<event>
12    1  0.1615162E-001  0.1804522E+03  0.7818608E-02  0.1168522E+00
         21   -1    0    0  501  502  0.00000000000E+00  0.00000000000E+00  0.44716876478E+02  0.44716876478E+02  0.00000000000E+00 0.  1.
         21   -1    0    0  502  503 -0.00000000000E+00 -0.00000000000E+00 -0.10165797239E+04  0.10165797239E+04  0.00000000000E+00 0.  1.
         -6    2    1    2    0  503  0.34730989785E+02 -0.13393129351E+02 -0.78217019763E+03  0.80271615655E+03  0.17657121047E+03 0.  0.
        -24    2    3    3    0    0 -0.31911132301E+02  0.29369795725E+02 -0.54742072131E+03  0.55492744247E+03  0.79963210391E+02 0.  0.
          6    2    1    2  501    0 -0.34730989785E+02  0.13393129351E+02 -0.18969264984E+03  0.25858044387E+03  0.17174087162E+03 0.  0.
         24    2    5    5    0    0  0.27117431128E+02  0.19461091640E+02 -0.36328516075E+02  0.93036809560E+02  0.78879640555E+02 0.  0.
          5    1    5    5  501    0 -0.61848420914E+02 -0.60679622893E+01 -0.15336413376E+03  0.16554363431E+03  0.47000000000E+01 0. -1.
        -13    1    6    6    0    0 -0.11985099673E+02 -0.24166955441E+02 -0.13432449847E+02  0.30134947458E+02  0.00000000000E+00 0.  1.
         14    1    6    6    0    0  0.39102530801E+02  0.43628047081E+02 -0.22896066228E+02  0.62901862102E+02  0.00000000000E+00 0. -1.
         -5    1    3    3    0  503  0.66642122086E+02 -0.42762925075E+02 -0.23474947632E+03  0.24778871408E+03  0.47000000000E+01 0.  1.
         13    1    4    4    0    0 -0.33212301586E+01 -0.12416199629E+02 -0.13604874419E+02  0.18715907431E+02  0.00000000000E+00 0. -1.
        -14    1    4    4    0    0 -0.28589902142E+02  0.41785995354E+02 -0.53381584689E+03  0.53621153504E+03  0.00000000000E+00 0.  1.
</event>
<event>
12    1  0.1615162E-001  0.2404271E+03  0.7818608E-02  0.1119818E+00
         21   -1    0    0  503  502  0.00000000000E+00  0.00000000000E+00  0.24177863359E+03  0.24177863359E+03  0.00000000000E+00 0. -1.
         21   -1    0    0  501  503 -0.00000000000E+00 -0.00000000000E+00 -0.26242631425E+03  0.26242631425E+03  0.00000000000E+00 0.  1.
          6    2    1    2  501    0 -0.11211716633E+03 -0.12448070305E+03 -0.88458085493E+02  0.25618358965E+03  0.17245142592E+03 0.  0.
         24    2    3    3    0    0 -0.22457837738E+02 -0.12091817988E+02 -0.72223460299E+02  0.11142271876E+03  0.80921118995E+02 0.  0.
         -6    2    1    2    0  502  0.11211716633E+03  0.12448070305E+03  0.67810404828E+02  0.24802135819E+03  0.16985475765E+03 0.  0.
        -24    2    5    5    0    0  0.69971908053E+02  0.12164594959E+03  0.10427126316E+03  0.19202365455E+03  0.79415254309E+02 0.  0.
          5    1    3    3  501    0 -0.89659328589E+02 -0.11238888506E+03 -0.16234625194E+02  0.14476087090E+03  0.47000000000E+01 0. -1.
        -13    1    4    4    0    0 -0.39407210499E+02 -0.34628978452E+02 -0.29366943436E+02  0.60120809664E+02  0.00000000000E+00 0.  1.
         14    1    4    4    0    0  0.16949372761E+02  0.22537160464E+02 -0.42856516864E+02  0.51301909092E+02  0.00000000000E+00 0. -1.
         -5    1    5    5    0  502  0.42145258274E+02  0.28347534567E+01 -0.36460858335E+02  0.55997703637E+02  0.47000000000E+01 0.  1.
         13    1    6    6    0    0  0.12367259061E+02  0.47917623443E+02 -0.31260564713E+01  0.49586489714E+02  0.00000000000E+00 0. -1.
        -14    1    6    6    0    0  0.57604648991E+02  0.73728326146E+02  0.10739731963E+03  0.14243716483E+03  0.00000000000E+00 0.  1.
</event>
<event>
12    1  0.1615162E-001  0.3205784E+03  0.7818608E-02  0.1075406E+00
         21   -1    0    0  503  502  0.00000000000E+00  0.00000000000E+00  0.87143962886E+03  0.87143962886E+03  0.00000000000E+00 0. -1.
         21   -1    0    0  501  503 -0.00000000000E+00 -0.00000000000E+00 -0.13480555223E+03  0.13480555223E+03  0.00000000000E+00 0.  1.
          6    2    1    2  501    0  0.77881158923E+02 -0.25892276109E+03  0.19003724924E+03  0.37267233040E+03  0.17223251324E+03 0.  0.
         24    2    3    3    0    0  0.12167513890E+03 -0.20485882473E+03  0.13846937023E+03  0.28594195485E+03  0.76269637169E+02 0.  0.
         -6    2    1    2    0  502 -0.77881158923E+02  0.25892276109E+03  0.54659682738E+03  0.63357285069E+03  0.17187202886E+03 0.  0.
        -24    2    5    5    0    0 -0.57235038140E+01  0.73421467851E+02  0.28525403900E+03  0.30503122468E+03  0.79061437024E+02 0.  0.
          5    1    3    3  501    0 -0.43793979978E+02 -0.54063936366E+02  0.51567879011E+02  0.86730375552E+02  0.47000000000E+01 0. -1.
        -13    1    4    4    0    0  0.19550353232E+02 -0.82821392858E+02  0.19627442856E+02  0.87331757909E+02  0.00000000000E+00 0.  1.
         14    1    4    4    0    0  0.10212478567E+03 -0.12203743187E+03  0.11884192738E+03  0.19861019694E+03  0.00000000000E+00 0. -1.
         -5    1    5    5    0  502 -0.72157655109E+02  0.18550129324E+03  0.26134278838E+03  0.32854162601E+03  0.47000000000E+01 0.  1.
         13    1    6    6    0    0 -0.33757375050E+02  0.62363012145E+02  0.14296706872E+03  0.15958787044E+03  0.00000000000E+00 0. -1.
        -14    1    6    6    0    0  0.28033871236E+02  0.11058455706E+02  0.14228697029E+03  0.14544335424E+03  0.00000000000E+00 0.  1.
</event>
<event>
12    1  0.1615162E-001  0.2031488E+03  0.7818608E-02  0.1147491E+00
         21   -1    0    0  503  502  0.00000000000E+00  0.00000000000E+00  0.88499334753E+03  0.88499334753E+03  0.00000000000E+00 0.  1.
         21   -1    0    0  501  503 -0.00000000000E+00 -0.00000000000E+00 -0.49837560653E+02  0.49837560653E+02  0.00000000000E+00 0.  1.
          6    2    1    2  501    0  0.18471094178E+01  0.10661976101E+03  0.29326172955E+03  0.35675182053E+03  0.17291105858E+03 0.  0.
         24    2    3    3    0    0  0.29566666656E+02 -0.93576423840E+01  0.11214996738E+03  0.13985854643E+03  0.77595390191E+02 0.  0.
         -6    2    1    2    0  502 -0.18471094178E+01 -0.10661976101E+03  0.54189405732E+03  0.57807908765E+03  0.17074857824E+03 0.  0.
        -24    2    5    5    0    0  0.20032441461E+02 -0.92983487443E+02  0.54032211412E+03  0.55182601719E+03  0.59302096024E+02 0.  0.
          5    1    3    3  501    0 -0.27719557238E+02  0.11597740339E+03  0.18111176217E+03  0.21689327410E+03  0.47000000000E+01 0. -1.
        -11    1    4    4    0    0  0.26970403628E+02  0.31533032878E+02  0.45129718413E+02  0.61306005565E+02  0.00000000000E+00 0.  1.
         12    1    4    4    0    0  0.25962630278E+01 -0.40890675262E+02  0.67020248965E+02  0.78552540865E+02  0.00000000000E+00 0. -1.
         -5    1    5    5    0  502 -0.21879550879E+02 -0.13636273562E+02  0.15719432026E+01  0.26253070463E+02  0.47000000000E+01 0.  1.
         13    1    6    6    0    0  0.47645866512E+01  0.38654611646E+01  0.59948297786E+01  0.85779403150E+01  0.00000000000E+00 0. -1.
        -14    1    6    6    0    0  0.15267854810E+02 -0.96848948608E+02  0.53432728434E+03  0.54324807687E+03  0.00000000000E+00 0.  1.
</event>
<event>
12    1  0.1615162E-001  0.2075261E+03  0.7818608E-02  0.1143806E+00
         21   -1    0    0  503  502  0.00000000000E+00  0.00000000000E+00  0.31648348741E+03  0.31648348741E+03  0.00000000000E+00 0. -1.
         21   -1    0    0  501  503 -0.00000000000E+00 -0.00000000000E+00 -0.22544876457E+03  0.22544876457E+03  0.00000000000E+00 0.  1.
          6    2    1    2  501    0  0.49248000877E+02 -0.10235304352E+03 -0.12599247720E+03  0.24165255503E+03  0.17210561273E+03 0.  0.
         24    2    3    3    0    0  0.61981130025E+02 -0.40489127768E+01 -0.37410711606E+02  0.10863130149E+03  0.80889703585E+02 0.  0.
         -6    2    1    2    0  502 -0.49248000877E+02  0.10235304352E+03  0.21702720004E+03  0.30027969695E+03  0.17368241055E+03 0.  0.
        -24    2    5    5    0    0  0.18662347920E+02  0.73701902441E+00  0.10370008343E+03  0.13353810866E+03  0.82035923426E+02 0.  0.
          5    1    3    3  501    0 -0.12733129148E+02 -0.98304130741E+02 -0.88581765596E+02  0.13302125354E+03  0.47000000000E+01 0. -1.
        -13    1    4    4    0    0  0.44113289691E+02  0.21880292548E+02 -0.53965997090E+02  0.73055173474E+02  0.00000000000E+00 0.  1.
         14    1    4    4    0    0  0.17867840335E+02 -0.25929205324E+02  0.16555285484E+02  0.35576128014E+02  0.00000000000E+00 0. -1.
         -5    1    5    5    0  502 -0.67910348797E+02  0.10161602449E+03  0.11332711661E+03  0.16674158829E+03  0.47000000000E+01 0.  1.
         13    1    6    6    0    0  0.21607704855E+02  0.28111633787E+02  0.99573630964E+02  0.10569798885E+03  0.00000000000E+00 0. -1.
        -14    1    6    6    0    0 -0.29453569352E+01 -0.27374614763E+02  0.41264524687E+01  0.27840119807E+02  0.00000000000E+00 0.  1.
</event>
<event>
12    1  0.1615162E-001  0.2169309E+03  0.7818608E-02  0.1136328E+00
         21   -1    0    0  501  502  0.00000000000E+00  0.00000000000E+00  0.95921931582E+03  0.95921931582E+03  0.00000000000E+00 0. -1.
         21   -1    0    0  502  503 -0.00000000000E+00 -0.00000000000E+00 -0.15881905979E+03  0.15881905979E+03  0.00000000000E+00 0. -1.
         -6    2    1    2    0  503 -0.30742951109E+02  0.12804197075E+03 -0.65071559977E+02  0.22579375450E+03  0.17148946422E+03 0.  0.
        -24    2    3    3    0    0  0.14720841207E+02  0.11040313151E+03  0.92172904326E+01  0.13680494421E+03  0.78899174305E+02 0.  0.
          6    2    1    2  501    0  0.30742951109E+02 -0.12804197075E+03  0.86547181601E+03  0.89224462110E+03  0.17239235557E+03 0.  0.
         24    2    5    5    0    0  0.64690928391E+02 -0.62686875059E+02  0.31985844418E+03  0.34166329631E+03  0.79434395623E+02 0.  0.
          5    1    5    5  501    0 -0.33947977282E+02 -0.65355095691E+02  0.54561337182E+03  0.55058132479E+03  0.47000000000E+01 0. -1.
        -13    1    6    6    0    0  0.33168473055E+02 -0.57334141612E+02  0.10299441806E+03  0.12245489598E+03  0.00000000000E+00 0.  1.
         14    1    6    6    0    0  0.31522455336E+02 -0.53527334479E+01  0.21686402612E+03  0.21920840032E+03  0.00000000000E+00 0. -1.
         -5    1    3    3    0  503 -0.45463792315E+02  0.17638839243E+02 -0.74288850409E+02  0.88988810289E+02  0.47000000000E+01 0.  1.
         11    1    4    4    0    0  0.46398224834E+02  0.56538764328E+02 -0.27022388001E+01  0.73189679833E+02  0.00000000000E+00 0. -1.
        -12    1    4    4    0    0 -0.31677383628E+02  0.53864367179E+02  0.11919529233E+02  0.63615264380E+02  0.00000000000E+00 0.  1.
</event>
<event>
12    1  0.1615162E-001  0.1872478E+03  0.7818608E-02  0.1161395E+00
         21   -1    0    0  503  502  0.00000000000E+00  0.00000000000E+00  0.32830008753E+03  0.32830008753E+03  0.00000000000E+00 0. -1.
         21   -1    0    0  501  503 -0.00000000000E+00 -0.00000000000E+00 -0.10761527874E+03  0.10761527874E+03  0.00000000000E+00 0.  1.
          6    2    1    2  501    0  0.71203116506E+02  0.29451197559E+02  0.13962357538E+03  0.23357330457E+03  0.17065898443E+03 0.  0.
         24    2    3    3    0    0  0.78214403240E+02  0.40943920997E+02  0.16540960343E+03  0.20410722108E+03  0.80656823963E+02 0.  0.
         -6    2    1    2    0  502 -0.71203116506E+02 -0.29451197559E+02  0.81061233411E+02  0.20234206169E+03  0.16862422581E+03 0.  0.
        -24    2    5    5    0    0  0.26964973743E+02 -0.12627098571E+02  0.34445427631E+02  0.92273230509E+02  0.80257760725E+02 0.  0.
          5    1    3    3  501    0 -0.70112867340E+01 -0.11492723438E+02 -0.25786028045E+02  0.29466083487E+02  0.47000000000E+01 0. -1.
        -11    1    4    4    0    0  0.68030578477E+02 -0.89083333837E+01  0.91108243882E+02  0.11405362824E+03  0.00000000000E+00 0.  1.
         12    1    4    4    0    0  0.10183824763E+02  0.49852254381E+02  0.74301359545E+02  0.90053592843E+02  0.00000000000E+00 0. -1.
         -5    1    5    5    0  502 -0.98168090249E+02 -0.16824098989E+02  0.46615805781E+02  0.11006883119E+03  0.47000000000E+01 0.  1.
         13    1    6    6    0    0 -0.22636469380E+02 -0.19372229804E+02  0.29572123733E+02  0.41978608072E+02  0.00000000000E+00 0. -1.
        -14    1    6    6    0    0  0.49601443123E+02  0.67451312327E+01  0.48733038976E+01  0.50294622437E+02  0.00000000000E+00 0.  1.
</event>
<event>
12    1  0.1615162E-001  0.1782827E+03  0.7818608E-02  0.1170015E+00
         21   -1    0    0  501  502  0.00000000000E+00  0.00000000000E+00  0.38794220143E+03  0.38794220143E+03  0.00000000000E+00 0. -1.
         21   -1    0    0  502  503 -0.00000000000E+00 -0.00000000000E+00 -0.81169058501E+02  0.81169058501E+02  0.00000000000E+00 0. -1.
         -6    2    1    2    0  503 -0.24467932890E+02 -0.31373625205E+02  0.16519406978E+03  0.24145062938E+03  0.17154107858E+03 0.  0.
        -24    2    3    3    0    0  0.44109811251E+02  0.98414394453E+01  0.61191787538E+02  0.11014886528E+03  0.79660581724E+02 0.  0.
          6    2    1    2  501    0  0.24467932890E+02  0.31373625205E+02  0.14157907316E+03  0.22766063055E+03  0.17378649157E+03 0.  0.
         24    2    5    5    0    0  0.18586831796E+02  0.80250438008E+02  0.13024617504E+03  0.17692548732E+03  0.86907760484E+02 0.  0.
          5    1    5    5  501    0  0.58811010947E+01 -0.48876812803E+02  0.11332898114E+02  0.50735143240E+02  0.47000000000E+01 0. -1.
        -11    1    6    6    0    0 -0.33929770005E+02  0.18608823508E+02  0.44897552111E+02  0.59273162481E+02  0.00000000000E+00 0.  1.
         12    1    6    6    0    0  0.52516601800E+02  0.61641614501E+02  0.85348622929E+02  0.11765232483E+03  0.00000000000E+00 0. -1.
         -5    1    3    3    0  503 -0.68577744141E+02 -0.41215064650E+02  0.10400228224E+03  0.13130176410E+03  0.47000000000E+01 0.  1.
         11    1    4    4    0    0  0.42248915054E+01  0.30347148449E+02  0.57494640528E+02  0.65149311713E+02  0.00000000000E+00 0. -1.
        -12    1    4    4    0    0  0.39884919746E+02 -0.20505709004E+02  0.36971470098E+01  0.44999553563E+02  0.00000000000E+00 0.  1.
</event>
<event>
12    1  0.1615162E-001  0.1835770E+03  0.7818608E-02  0.1164697E+00
         21   -1    0    0  503  502  0.00000000000E+00  0.00000000000E+00  0.98309102116E+03  0.98309102116E+03  0.00000000000E+00 0.  1.
         21   -1    0    0  501  503 -0.00000000000E+00 -0.00000000000E+00 -0.34048756749E+02  0.34048756749E+02  0.00000000000E+00 0.  1.
          6    2    1    2  501    0 -0.50738686930E+02 -0.35585721024E+02  0.46242211164E+03  0.49704393703E+03  0.17139926522E+03 0.  0.
         24    2    3    3    0    0  0.12352987830E+02 -0.88932719711E+01  0.13684657257E+03  0.16430595017E+03  0.89653634860E+02 0.  0.
         -6    2    1    2    0  502  0.50738686930E+02  0.35585721024E+02  0.48662015277E+03  0.52009584087E+03  0.17279974745E+03 0.  0.
        -24    2    5    5    0    0  0.24182653641E+02 -0.13277811116E+02  0.43816693340E+03  0.44618594881E+03  0.79564680511E+02 0.  0.
          5    1    3    3  501    0 -0.63091674760E+02 -0.26692449053E+02  0.32557553907E+03  0.33273798686E+03  0.47000000000E+01 0. -1.
        -11    1    4    4    0    0  0.33316670408E+02 -0.37027658682E+02  0.49712402725E+02  0.70373084480E+02  0.00000000000E+00 0.  1.
         12    1    4    4    0    0 -0.20963682578E+02  0.28134386711E+02  0.87134169843E+02  0.93932865692E+02  0.00000000000E+00 0. -1.
         -5    1    5    5    0  502  0.26556033289E+02  0.48863532140E+02  0.48453219366E+02  0.73909892059E+02  0.47000000000E+01 0.  1.
         13    1    6    6    0    0  0.37865441633E+01 -0.19239349317E+01  0.40809526125E+03  0.40811736265E+03  0.00000000000E+00 0. -1.
        -14    1    6    6    0    0  0.20396109477E+02 -0.11353876184E+02  0.30071672149E+02  0.38068586158E+02  0.00000000000E+00 0.  1.
</event>
<event>
12    1  0.1615162E-001  0.2230393E+03  0.7818608E-02  0.1131643E+00
         21   -1    0    0  501  502  0.00000000000E+00  0.00000000000E+00  0.11697318797E+03  0.11697318797E+03  0.00000000000E+00 0. -1.
         21   -1    0    0  502  503 -0.00000000000E+00 -0.00000000000E+00 -0.42598584297E+03  0.42598584297E+03  0.00000000000E+00 0.  1.
         -6    2    1    2    0  503  0.12888597564E+03  0.60044869507E+02 -0.16598059273E+03  0.27799736932E+03  0.17180220929E+03 0.  0.
        -24    2    3    3    0    0  0.59508426145E+02 -0.30416508290E+02 -0.88573034801E+02  0.14011870792E+03  0.85566658550E+02 0.  0.
          6    2    1    2  501    0 -0.12888597564E+03 -0.60044869507E+02 -0.14303206226E+03  0.26496166162E+03  0.17184158467E+03 0.  0.
         24    2    5    5    0    0 -0.20730176632E+01  0.21814629350E+01 -0.70692075353E+02  0.10618884762E+03  0.79181094067E+02 0.  0.
          5    1    5    5  501    0 -0.12681295798E+03 -0.62226332442E+02 -0.72339986912E+02  0.15877281400E+03  0.47000000000E+01 0. -1.
        -13    1    6    6    0    0  0.19588820426E+01 -0.91306965398E+01  0.16077143736E+02  0.18592508945E+02  0.00000000000E+00 0.  1.
         14    1    6    6    0    0 -0.40318997058E+01  0.11312159475E+02 -0.86769219089E+02  0.87596338671E+02  0.00000000000E+00 0. -1.
         -5    1    3    3    0  503  0.69377549495E+02  0.90461377798E+02 -0.77407557931E+02  0.13787866141E+03  0.47000000000E+01 0.  1.
         13    1    4    4    0    0  0.34377119444E+01 -0.29798893111E+02  0.56006726301E+01  0.30514905013E+02  0.00000000000E+00 0. -1.
        -14    1    4    4    0    0  0.56070714201E+02 -0.61761517930E+00 -0.94173707431E+02  0.10960380290E+03  0.00000000000E+00 0.  1.
</event>
<event>
12    1  0.1615162E-001  0.1741571E+03  0.7818608E-02  0.1173756E+00
         21   -1    0    0  501  502  0.00000000000E+00  0.00000000000E+00  0.35605597150E+02  0.35605597150E+02  0.00000000000E+00 0. -1.
         21   -1    0    0  502  503 -0.00000000000E+00 -0.00000000000E+00 -0.10360816160E+04  0.10360816160E+04  0.00000000000E+00 0. -1.
         -6    2    1    2    0  503  0.22809245925E+02 -0.15945844797E+02 -0.72907573821E+03  0.74958798244E+03  0.17191910804E+03 0.  0.
        -24    2    3    3    0    0  0.17286150323E+02 -0.68287750653E+02 -0.31895179425E+03  0.33607387252E+03  0.79078270431E+02 0.  0.
          6    2    1    2  501    0 -0.22809245925E+02  0.15945844797E+02 -0.27140028064E+03  0.32209923071E+03  0.17121702726E+03 0.  0.
         24    2    5    5    0    0 -0.13363994067E+02 -0.27891906818E+02 -0.26280661918E+03  0.27619822563E+03  0.79130183587E+02 0.  0.
          5    1    5    5  501    0 -0.94452518583E+01  0.43837751615E+02 -0.85936614553E+01  0.45901005071E+02  0.47000000000E+01 0. -1.
        -11    1    6    6    0    0 -0.27748288548E+02  0.14218853044E+02 -0.17503700819E+03  0.17779228761E+03  0.00000000000E+00 0.  1.
         12    1    6    6    0    0  0.14384294481E+02 -0.42110759862E+02 -0.87769610996E+02  0.98405938023E+02  0.00000000000E+00 0. -1.
         -5    1    3    3    0  503  0.55230956025E+01  0.52341905856E+02 -0.41012394396E+03  0.41351410992E+03  0.47000000000E+01 0.  1.
         11    1    4    4    0    0  0.31703417409E+02 -0.64317787785E+02 -0.31095553741E+03  0.31911632792E+03  0.00000000000E+00 0. -1.
        -12    1    4    4    0    0 -0.14417267086E+02 -0.39699628678E+01 -0.79962568412E+01  0.16957544600E+02  0.00000000000E+00 0.  1.
</event>
<event>
12    1  0.1615162E-001  0.2125223E+03  0.7818608E-02  0.1139629E+00
         21   -1    0    0  501  502  0.00000000000E+00  0.00000000000E+00  0.53487180394E+03  0.53487180394E+03  0.00000000000E+00 0.  1.
         21   -1    0    0  502  503 -0.00000000000E+00 -0.00000000000E+00 -0.26716728222E+03  0.26716728222E+03  0.00000000000E+00 0.  1.
         -6    2    1    2    0  503  0.87629076991E+02  0.88168792639E+02 -0.19785193192E+03  0.29036379681E+03  0.17237504578E+03 0.  0.
        -24    2    3    3    0    0 -0.21717606333E+02  0.36114233743E+02 -0.54957441580E+02  0.10299437662E+03  0.76234040472E+02 0.  0.
          6    2    1    2  501    0 -0.87629076991E+02 -0.88168792639E+02  0.46555645363E+03  0.51167528934E+03  0.17209357651E+03 0.  0.
         24    2    5    5    0    0 -0.13484096701E+01  0.64429874581E+01  0.22865189135E+03  0.24233980317E+03  0.80022262419E+02 0.  0.
          5    1    5    5  501    0 -0.86280667321E+02 -0.94611780097E+02  0.23690456228E+03  0.26933548618E+03  0.47000000000E+01 0. -1.
        -11    1    6    6    0    0 -0.15707510741E+02 -0.20832696341E+02  0.19486810398E+03  0.19660698126E+03  0.00000000000E+00 0.  1.
         12    1    6    6    0    0  0.14359101071E+02  0.27275683799E+02  0.33783787370E+02  0.45732821904E+02  0.00000000000E+00 0. -1.
         -5    1    3    3    0  503  0.10934668332E+03  0.52054558897E+02 -0.14289449034E+03  0.18736942020E+03  0.47000000000E+01 0.  1.
         13    1    4    4    0    0 -0.75748160955E+01 -0.19239256440E+02  0.38192956814E+01  0.21026503436E+02  0.00000000000E+00 0. -1.
        -14    1    4    4    0    0 -0.14142790238E+02  0.55353490183E+02 -0.58776737261E+02  0.81967873183E+02  0.00000000000E+00 0.  1.
</event>
<event>
12    1  0.1615162E-001  0.1768475E+03  0.7818608E-02  0.1170919E+00
         21   -1    0    0  503  502  0.00000000000E+00  0.00000000000E+00  0.13324211307E+04  0.13324211307E+04  0.00000000000E+00 0. -1.
         21   -1    0    0  501  503 -0.00000000000E+00 -0.00000000000E+00 -0.38651395249E+02  0.38651395249E+02  0.00000000000E+00 0. -1.
          6    2    1    2  501    0  0.31941890693E+02 -0.25226389051E+02  0.21718596908E+03  0.28007995285E+03  0.17209991208E+03 0.  0.
         24    2    3    3    0    0 -0.23266915123E+02  0.40323740876E+02  0.10087191383E+03  0.13552587570E+03  0.77619369787E+02 0.  0.
         -6    2    1    2    0  502 -0.31941890693E+02  0.25226389051E+02  0.10765837664E+04  0.10909925731E+04  0.17197538620E+03 0.  0.
        -24    2    5    5    0    0 -0.51774053446E+02  0.18699714106E+02  0.32063851383E+03  0.33474444781E+03  0.78832460760E+02 0.  0.
          5    1    3    3  501    0  0.55208805816E+02 -0.65550129927E+02  0.11631405525E+03  0.14455407715E+03  0.47000000000E+01 0. -1.
        -13    1    4    4    0    0  0.27327425540E+02  0.18922363929E+02  0.23806788039E+02  0.40885293199E+02  0.00000000000E+00 0.  1.
         14    1    4    4    0    0 -0.50594340662E+02  0.21401376947E+02  0.77065125789E+02  0.94640582496E+02  0.00000000000E+00 0. -1.
         -5    1    5    5    0  502  0.19832162753E+02  0.65266749447E+01  0.75594525256E+03  0.75624812531E+03  0.47000000000E+01 0.  1.
         11    1    6    6    0    0  0.19797080603E+02  0.14301003217E+02  0.78416906129E+02  0.82131932038E+02  0.00000000000E+00 0. -1.
        -12    1    6    6    0    0 -0.71571134049E+02  0.43987108892E+01  0.24222160770E+03  0.25261251577E+03  0.00000000000E+00 0.  1.
</event>
<event>
12    1  0.1615162E-001  0.1985421E+03  0.7818608E-02  0.1152706E+00
         21   -1    0    0  503  502  0.00000000000E+00  0.00000000000E+00  0.11829107146E+04  0.11829107146E+04  0.00000000000E+00 0.  1.
         21   -1    0    0  501  503 -0.00000000000E+00 -0.00000000000E+00 -0.33961518365E+02  0.33961518365E+02  0.00000000000E+00 0.  1.
          6    2    1    2  501    0 -0.83063817104E+02 -0.41797229143E+02  0.41728350170E+03  0.45874714809E+03  0.16636351467E+03 0.  0.
         24    2    3    3    0    0 -0.12026682652E+03 -0.42781215642E+02  0.35924453717E+03  0.38964111693E+03  0.80431464886E+02 0.  0.
         -6    2    1    2    0  502  0.83063817104E+02  0.41797229143E+02  0.73166569455E+03  0.75812508489E+03  0.17542049391E+03 0.  0.
        -24    2    5    5    0    0  0.51170350279E+02  0.58989809145E+02  0.23124758616E+03  0.25637499647E+03  0.78450560074E+02 0.  0.
          5    1    3    3  501    0  0.37203009414E+02  0.98398649873E+00  0.58038964530E+02  0.69106031160E+02  0.47000000000E+01 0. -1.
        -11    1    4    4    0    0 -0.10004345315E+03 -0.63913917797E+02  0.31473731820E+03  0.33638261084E+03  0.00000000000E+00 0.  1.
         12    1    4    4    0    0 -0.20223373367E+02  0.21132702155E+02  0.44507218970E+02  0.53258506092E+02  0.00000000000E+00 0. -1.
         -5    1    5    5    0  502  0.31893466825E+02 -0.17192580002E+02  0.50041810839E+03  0.50175008842E+03  0.47000000000E+01 0.  1.
         11    1    6    6    0    0  0.47151164553E+02  0.95710967654E+01  0.54006240393E+02  0.72329193369E+02  0.00000000000E+00 0. -1.
        -12    1    6    6    0    0  0.40191857259E+01  0.49418712380E+02  0.17724134577E+03  0.18404580310E+03  0.00000000000E+00 0.  1.
</event>
<event>
12    1  0.1615162E-001  0.1930819E+03  0.7818608E-02  0.1155719E+00
         21   -1    0    0  501  502  0.00000000000E+00  0.00000000000E+00  0.11116043004E+04  0.11116043004E+04  0.00000000000E+00 0.  1.
         21   -1    0    0  502  503 -0.00000000000E+00 -0.00000000000E+00 -0.58078669122E+02  0.58078669122E+02  0.00000000000E+00 0.  1.
         -6    2    1    2    0  503  0.18731047259E+02 -0.84488768755E+02  0.14651316602E+03  0.24234688088E+03  0.17255926136E+03 0.  0.
        -24    2    3    3    0    0  0.25850011831E+02 -0.44455373110E+01  0.13814724921E+03  0.16141680538E+03  0.79263716053E+02 0.  0.
          6    2    1    2  501    0 -0.18731047259E+02  0.84488768755E+02  0.90701246523E+03  0.92733608861E+03  0.17260186840E+03 0.  0.
         24    2    5    5    0    0 -0.55260636417E+02  0.21889203171E+01  0.57913290692E+03  0.58728495908E+03  0.80312950223E+02 0.  0.
          5    1    5    5  501    0  0.36529589158E+02  0.82299848438E+02  0.32787955832E+03  0.34005112954E+03  0.47000000000E+01 0. -1.
        -13    1    6    6    0    0 -0.28418871183E+02  0.21965396624E+01  0.53409511864E+03  0.53485516992E+03  0.00000000000E+00 0.  1.
         14    1    6    6    0    0 -0.26841765234E+02 -0.76193453771E-02  0.45037788274E+02  0.52429789161E+02  0.00000000000E+00 0. -1.
         -5    1    3    3    0  503 -0.71189645727E+01 -0.80043231444E+02  0.83659168112E+01  0.80930075502E+02  0.47000000000E+01 0.  1.
         13    1    4    4    0    0 -0.18414318056E+01 -0.28484107959E+02  0.13665218642E+02  0.31646065756E+02  0.00000000000E+00 0. -1.
        -14    1    4    4    0    0  0.27691443637E+02  0.24038570648E+02  0.12448203056E+03  0.12977073963E+03  0.00000000000E+00 0.  1.
</event>
<event>
12    1  0.1615162E-001  0.2088712E+03  0.7818608E-02  0.1143051E+00
         21   -1    0    0  503  502  0.00000000000E+00  0.00000000000E+00  0.17807339849E+03  0.17807339849E+03  0.00000000000E+00 0. -1.
         21   -1    0    0  501  503 -0.00000000000E+00 -0.00000000000E+00 -0.27798338123E+03  0.27798338123E+03  0.00000000000E+00 0. -1.
          6    2    1    2  501    0  0.70844363666E+02 -0.93237958795E+02 -0.13278489573E+03  0.24750552716E+03  0.17295929179E+03 0.  0.
         24    2    3    3    0    0  0.11609163859E+02 -0.69956692533E+02 -0.14816419209E+03  0.18185920959E+03  0.78047631477E+02 0.  0.
         -6    2    1    2    0  502 -0.70844363666E+02  0.93237958795E+02  0.32874912985E+02  0.20855125256E+03  0.16941258577E+03 0.  0.
        -24    2    5    5    0    0 -0.78178750512E+02  0.13059802003E+03  0.41849222294E+02  0.16915333848E+03  0.60776102591E+02 0.  0.
          5    1    3    3  501    0  0.59235199806E+02 -0.23281266262E+02  0.15379296354E+02  0.65646317575E+02  0.47000000000E+01 0. -1.
        -13    1    4    4    0    0 -0.26819511730E+02 -0.24594165273E+01 -0.28624683093E+02  0.39302766077E+02  0.00000000000E+00 0.  1.
         14    1    4    4    0    0  0.38428675589E+02 -0.67497276006E+02 -0.11953950899E+03  0.14255644351E+03  0.00000000000E+00 0. -1.
         -5    1    5    5    0  502  0.73343868466E+01 -0.37360061235E+02 -0.89743093082E+01  0.39397914075E+02  0.47000000000E+01 0.  1.
         13    1    6    6    0    0 -0.78680426471E+02  0.84742630656E+02  0.42750452013E+02  0.12328635005E+03  0.00000000000E+00 0. -1.
        -14    1    6    6    0    0  0.50167595835E+00  0.45855389374E+02 -0.90122971966E+00  0.45866988438E+02  0.00000000000E+00 0.  1.
</event>
<event>
12    1  0.1615162E-001  0.2213276E+03  0.7818608E-02  0.1132956E+00
         21   -1    0    0  503  502  0.00000000000E+00  0.00000000000E+00  0.19258367548E+03  0.19258367548E+03  0.00000000000E+00 0. -1.
         21   -1    0    0  501  503 -0.00000000000E+00 -0.00000000000E+00 -0.26412962374E+03  0.26412962374E+03  0.00000000000E+00 0. -1.
          6    2    1    2  501    0 -0.12781811881E+03  0.57843656261E+02 -0.80483041809E+02  0.23520532431E+03  0.17076493931E+03 0.  0.
         24    2    3    3    0    0 -0.13829255481E+03  0.90855250361E+02 -0.78631042912E+02  0.20020533782E+03  0.80745458982E+02 0.  0.
         -6    2    1    2    0  502  0.12781811881E+03 -0.57843656261E+02  0.89370935511E+01  0.22150797492E+03  0.17117987978E+03 0.  0.
        -24    2    5    5    0    0  0.74624437418E+02 -0.22554773414E+02  0.70360176137E+02  0.13279631803E+03  0.81282121234E+02 0.  0.
          5    1    3    3  501    0  0.10474435998E+02 -0.33011594100E+02 -0.18519988967E+01  0.34999986492E+02  0.47000000000E+01 0. -1.
        -13    1    4    4    0    0  0.43693346754E+01  0.26809223536E+02 -0.61733756787E+01  0.27855629940E+02  0.00000000000E+00 0.  1.
         14    1    4    4    0    0 -0.14266188949E+03  0.64046026826E+02 -0.72457667233E+02  0.17234970788E+03  0.00000000000E+00 0. -1.
         -5    1    5    5    0  502  0.53193681396E+02 -0.35288882847E+02 -0.61423082586E+02  0.88711656886E+02  0.47000000000E+01 0.  1.
         13    1    6    6    0    0  0.26902444615E+02  0.22940230914E+02  0.54531335746E+02  0.64989709177E+02  0.00000000000E+00 0. -1.
        -14    1    6    6    0    0  0.47721992803E+02 -0.45495004328E+02  0.15828840392E+02  0.67806608852E+02  0.00000000000E+00 0.  1.
</event>
<event>
12    1  0.1615162E-001  0.1904400E+03  0.7818608E-02  0.1159461E+00
         21   -1    0    0  503  502  0.00000000000E+00  0.00000000000E+00  0.21394858966E+02  0.21394858966E+02  0.00000000000E+00 0.  1.
         21   -1    0    0  501  503 -0.00000000000E+00 -0.00000000000E+00 -0.17700451335E+04  0.17700451335E+04  0.00000000000E+00 0.  1.
          6    2    1    2  501    0 -0.64406873874E+02  0.69111012395E+01 -0.64595555405E+03  0.67344336780E+03  0.17908484889E+03 0.  0.
         24    2    3    3    0    0 -0.61503604271E+02 -0.62392810691E+02 -0.34251884222E+03  0.36214385083E+03  0.78443962480E+02 0.  0.
         -6    2    1    2    0  502  0.64406873874E+02 -0.69111012395E+01 -0.11026947204E+04  0.11179966246E+04  0.17258272641E+03 0.  0.
        -24    2    5    5    0    0  0.68603752597E+02  0.56806493093E+02 -0.64550151961E+03  0.65634171183E+03  0.78605205568E+02 0.  0.
          5    1    3    3  501    0 -0.29032696031E+01  0.69303911931E+02 -0.30343671183E+03  0.31129951698E+03  0.47000000000E+01 0. -1.
        -13    1    4    4    0    0 -0.31878552780E+02 -0.75221300434E+02 -0.28144222471E+03  0.29306008261E+03  0.00000000000E+00 0.  1.
         14    1    4    4    0    0 -0.29625051490E+02  0.12828489743E+02 -0.61076617508E+02  0.69083768218E+02  0.00000000000E+00 0. -1.
         -5    1    5    5    0  502 -0.41968787229E+01 -0.63717594333E+02 -0.45719320082E+03  0.46165491278E+03  0.47000000000E+01 0.  1.
         13    1    6    6    0    0  0.16501308930E+02  0.24783260949E+02 -0.53810793760E+02  0.61498819052E+02  0.00000000000E+00 0. -1.
        -14    1    6    6    0    0  0.52102443667E+02  0.32023232144E+02 -0.59169072585E+03  0.59484289278E+03  0.00000000000E+00 0.  1.
</event>
<event>
12    1  0.1615162E-001  0.2558153E+03  0.7818608E-02  0.1109734E+00
         21   -1    0    0  501  502  0.00000000000E+00  0.00000000000E+00  0.41182362017E+03  0.41182362017E+03  0.00000000000E+00 0.  1.
         21   -1    0    0  502  503 -0.00000000000E+00 -0.00000000000E+00 -0.16447351759E+03  0.16447351759E+03  0.00000000000E+00 0.  1.
         -6    2    1    2    0  503  0.18863709405E+03  0.14292719398E+02  0.69626301331E+02  0.26480524444E+03  0.17171418278E+03 0.  0.
        -24    2    3    3    0    0  0.64022481589E+02  0.64176177946E+02  0.39608814286E+02  0.12718147976E+03  0.79930036037E+02 0.  0.
          6    2    1    2  501    0 -0.18863709405E+03 -0.14292719398E+02  0.17772380125E+03  0.31149189332E+03  0.17220108882E+03 0.  0.
         24    2    5    5    0    0 -0.14051365556E+03 -0.27517840176E+01  0.20010499285E+03  0.25697523294E+03  0.79010141540E+02 0.  0.
          5    1    5    5  501    0 -0.48123438490E+02 -0.11540935381E+02 -0.22381191598E+02  0.54516660379E+02  0.47000000000E+01 0. -1.
        -13    1    6    6    0    0 -0.24750090299E+02 -0.25881673324E+02  0.84367820767E+02  0.91653462373E+02  0.00000000000E+00 0.  1.
         14    1    6    6    0    0 -0.11576356526E+03  0.23129889306E+02  0.11573717208E+03  0.16532177057E+03  0.00000000000E+00 0. -1.
         -5    1    3    3    0  503  0.12461461246E+03 -0.49883458548E+02  0.30017487045E+02  0.13762376468E+03  0.47000000000E+01 0.  1.
         11    1    4    4    0    0 -0.14210549188E+01 -0.56224562937E+01 -0.15650438160E+02  0.16690345307E+02  0.00000000000E+00 0. -1.
        -12    1    4    4    0    0  0.65443536508E+02  0.69798634240E+02  0.55259252446E+02  0.11049113446E+03  0.00000000000E+00 0.  1.
</event>
<event>
12    1  0.1615162E-001  0.1789295E+03  0.7818608E-02  0.1169084E+00
         21   -1    0    0  501  502  0.00000000000E+00  0.00000000000E+00  0.16086062452E+02  0.16086062452E+02  0.00000000000E+00 0. -1.
         21   -1    0    0  502  503 -0.00000000000E+00 -0.00000000000E+00 -0.19909931192E+04  0.19909931192E+04  0.00000000000E+00 0. -1.
         -6    2    1    2    0  503  0.27104802028E+02  0.37108554026E+02 -0.90788676857E+03  0.92516048125E+03  0.17190641772E+03 0.  0.
        -24    2    3    3    0    0  0.64559566313E+02  0.49548632546E+02 -0.47589203427E+03  0.49134121545E+03  0.91213798986E+02 0.  0.
          6    2    1    2  501    0 -0.27104802028E+02 -0.37108554026E+02 -0.10670202882E+04  0.10819187004E+04  0.17292791509E+03 0.  0.
         24    2    5    5    0    0  0.45392428040E+02 -0.83742307711E+01 -0.39712035266E+03  0.40747854493E+03  0.78762870815E+02 0.  0.
          5    1    5    5  501    0 -0.72497230068E+02 -0.28734323255E+02 -0.66989993554E+03  0.67444015549E+03  0.47000000000E+01 0. -1.
        -11    1    6    6    0    0 -0.21599608063E+02  0.21040520257E+01 -0.65652788399E+02  0.69146646542E+02  0.00000000000E+00 0.  1.
         12    1    6    6    0    0  0.66992036103E+02 -0.10478282797E+02 -0.33146756426E+03  0.33833189839E+03  0.00000000000E+00 0. -1.
         -5    1    3    3    0  503 -0.37454764285E+02 -0.12440078520E+02 -0.43199473430E+03  0.43381926580E+03  0.47000000000E+01 0.  1.
         13    1    4    4    0    0  0.18970084887E+02 -0.18768367759E+02 -0.42118476660E+02  0.49860623995E+02  0.00000000000E+00 0. -1.
        -14    1    4    4    0    0  0.45589481425E+02  0.68317000305E+02 -0.43377355761E+03  0.44148059145E+03  0.00000000000E+00 0.  1.
</event>
<event>
12    1  0.1615162E-001  0.1923781E+03  0.7818608E-02  0.1156389E+00
         21   -1    0    0  503  502  0.00000000000E+00  0.00000000000E+00  0.43329731570E+03  0.43329731570E+03  0.00000000000E+00 0. -1.
         21   -1    0    0  501  503 -0.00000000000E+00 -0.00000000000E+00 -0.10305464333E+03  0.10305464333E+03  0.00000000000E+00 0. -1.
          6    2    1    2  501    0 -0.87456107782E+02 -0.69220633592E+01  0.53730484472E+02  0.19950135871E+03  0.17093080885E+03 0.  0.
         24    2    3    3    0    0 -0.45295713781E+01 -0.50041487128E+01 -0.26438039159E+02  0.84047597321E+02  0.79495095319E+02 0.  0.
         -6    2    1    2    0  502  0.87456107782E+02  0.69220633592E+01  0.27651218790E+03  0.33685060032E+03  0.17120996213E+03 0.  0.
        -24    2    5    5    0    0  0.76672003997E+02 -0.58372843693E+02  0.18179507510E+03  0.22120829302E+03  0.81226070274E+02 0.  0.
          5    1    3    3  501    0 -0.82926536404E+02 -0.19179146464E+01  0.80168523631E+02  0.11545376138E+03  0.47000000000E+01 0. -1.
        -13    1    4    4    0    0  0.41334179485E+01 -0.41787309406E+02 -0.14041643022E+02  0.44276767159E+02  0.00000000000E+00 0.  1.
         14    1    4    4    0    0 -0.86629893267E+01  0.36783160693E+02 -0.12396396137E+02  0.39770830162E+02  0.00000000000E+00 0. -1.
         -5    1    5    5    0  502  0.10784103785E+02  0.65294907052E+02  0.94717112803E+02  0.11564230731E+03  0.47000000000E+01 0.  1.
         11    1    6    6    0    0 -0.52688577036E+01 -0.41856416661E+02  0.67736680676E+02  0.79799613948E+02  0.00000000000E+00 0. -1.
        -12    1    6    6    0    0  0.81940861701E+02 -0.16516427032E+02  0.11405839442E+03  0.14140867907E+03  0.00000000000E+00 0.  1.
</event>
<event>
12    1  0.1615162E-001  0.1837911E+03  0.7818608E-02  0.1166571E+00
         21   -1    0    0  503  502  0.00000000000E+00  0.00000000000E+00  0.35792381484E+02  0.35792381484E+02  0.00000000000E+00 0. -1.
         21   -1    0    0  501  503 -0.00000000000E+00 -0.00000000000E+00 -0.17512189059E+04  0.17512189059E+04  0.00000000000E+00 0. -1.
          6    2    1    2  501    0  0.47869611061E+02  0.43272861088E+02 -0.14707230793E+04  0.14809738094E+04  0.16153330263E+03 0.  0.
         24    2    3    3    0    0 -0.17728201683E+02  0.59401519625E+02 -0.68962818179E+03  0.69694923348E+03  0.79425281031E+02 0.  0.
         -6    2    1    2    0  502 -0.47869611061E+02 -0.43272861088E+02 -0.24470344509E+03  0.30603747799E+03  0.17209044636E+03 0.  0.
        -24    2    5    5    0    0 -0.17786021488E+02 -0.14865694342E+02 -0.31454924442E+02  0.88761130819E+02  0.79698147055E+02 0.  0.
          5    1    3    3  501    0  0.65597812745E+02 -0.16128658537E+02 -0.78109489752E+03  0.78402457589E+03  0.47000000000E+01 0. -1.
        -13    1    4    4    0    0 -0.74020117988E+01 -0.11783541271E+02 -0.26501401345E+02  0.29932689434E+02  0.00000000000E+00 0.  1.
         14    1    4    4    0    0 -0.10326189885E+02  0.71185060896E+02 -0.66312678044E+03  0.66701654405E+03  0.00000000000E+00 0. -1.
         -5    1    5    5    0  502 -0.30083589573E+02 -0.28407166747E+02 -0.21324852064E+03  0.21727634717E+03  0.47000000000E+01 0.  1.
         11    1    6    6    0    0 -0.22348863380E+02  0.26815645126E+02  0.22259668815E+01  0.34978642719E+02  0.00000000000E+00 0. -1.
        -12    1    6    6    0    0  0.45628418918E+01 -0.41681339468E+02 -0.33680891324E+02  0.53782488101E+02  0.00000000000E+00 0.  1.
</event>
<event>
12    1  0.1615162E-001  0.1753070E+03  0.7818608E-02  0.1173429E+00
         21   -1    0    0  503  502  0.00000000000E+00  0.00000000000E+00  0.13209410526E+02  0.13209410526E+02  0.00000000000E+00 0. -1.
         21   -1    0    0  501  503 -0.00000000000E+00 -0.00000000000E+00 -0.25660831020E+04  0.25660831020E+04  0.00000000000E+00 0. -1.
          6    2    1    2  501    0  0.10267357671E+02  0.28424289306E+02 -0.17242457392E+04  0.17331347078E+04  0.17268233046E+03 0.  0.
         24    2    3    3    0    0  0.20840394865E+02 -0.35293680839E+02 -0.13801178513E+04  0.13829663739E+04  0.78681267152E+02 0.  0.
         -6    2    1    2    0  502 -0.10267357671E+02 -0.28424289306E+02 -0.82862795228E+03  0.84615780476E+03  0.16865760704E+03 0.  0.
        -24    2    5    5    0    0  0.45023827619E+02 -0.31388378899E+02 -0.68978889419E+03  0.69661090561E+03  0.80284867047E+02 0.  0.
          5    1    3    3  501    0 -0.10573037194E+02  0.63717970145E+02 -0.34412788788E+03  0.35016833388E+03  0.47000000000E+01 0. -1.
        -13    1    4    4    0    0 -0.24472365800E+01 -0.46599714938E+01 -0.48407159092E+01  0.71510021476E+01  0.00000000000E+00 0.  1.
         14    1    4    4    0    0  0.23287631445E+02 -0.30633709345E+02 -0.13752771354E+04  0.13758153717E+04  0.00000000000E+00 0. -1.
         -5    1    5    5    0  502 -0.55291185290E+02  0.29640895932E+01 -0.13883905808E+03  0.14954689916E+03  0.47000000000E+01 0.  1.
         13    1    6    6    0    0  0.43060319535E+02 -0.12885470127E+02 -0.15214878683E+03  0.15864891992E+03  0.00000000000E+00 0. -1.
        -14    1    6    6    0    0  0.19635080833E+01 -0.18502908772E+02 -0.53764010736E+03  0.53796198568E+03  0.00000000000E+00 0.  1.
</event>
<event>
12    1  0.1615162E-001  0.1814288E+03  0.7818608E-02  0.1166543E+00
         21   -1    0    0  503  502  0.00000000000E+00  0.00000000000E+00  0.12902843117E+04  0.12902843117E+04  0.00000000000E+00 0.  1.
         21   -1    0    0  501  503 -0.00000000000E+00 -0.00000000000E+00 -0.69637532888E+02  0.69637532888E+02  0.00000000000E+00 0.  1.
          6    2    1    2  501    0  0.38106178908E+02 -0.41835417653E+02  0.68341624853E+02  0.19342127687E+03  0.17186893150E+03 0.  0.
         24    2    3    3    0    0  0.17389220551E+02 -0.85444300680E+02  0.12781958525E+02  0.11966564274E+03  0.80952912728E+02 0.  0.
         -6    2    1    2    0  502 -0.38106178908E+02  0.41835417653E+02  0.11523051540E+04  0.11665005677E+04  0.17237785129E+03 0.  0.
        -24    2    5    5    0    0 -0.50077384529E+02  0.64810580324E+02  0.43964565995E+03  0.45335485172E+03  0.74391931648E+02 0.  0.
          5    1    3    3  501    0  0.20716958357E+02  0.43608883027E+02  0.55559666327E+02  0.73755634123E+02  0.47000000000E+01 0. -1.
        -13    1    4    4    0    0 -0.26552194569E+02 -0.53368857552E+02 -0.10435196390E+02  0.60515678270E+02  0.00000000000E+00 0.  1.
         14    1    4    4    0    0  0.43941415121E+02 -0.32075443128E+02  0.23217154916E+02  0.59149964472E+02  0.00000000000E+00 0. -1.
         -5    1    5    5    0  502  0.11971205621E+02 -0.22975162671E+02  0.71265949401E+03  0.71314571601E+03  0.47000000000E+01 0.  1.
         13    1    6    6    0    0 -0.53817726063E+01  0.44999613712E+02  0.94972663756E+02  0.10523181825E+03  0.00000000000E+00 0. -1.
        -14    1    6    6    0    0 -0.44695611923E+02  0.19810966612E+02  0.34467299620E+03  0.34812303347E+03  0.00000000000E+00 0.  1.
</event>
<event>
12    1  0.1615162E-001  0.2009446E+03  0.7818608E-02  0.1149160E+00
         21   -1    0    0  501  502  0.00000000000E+00  0.00000000000E+00  0.53373397599E+02  0.53373397599E+02  0.00000000000E+00 0.  1.
         21   -1    0    0  502  503 -0.00000000000E+00 -0.00000000000E+00 -0.77229404702E+03  0.77229404702E+03  0.00000000000E+00 0.  1.
         -6    2    1    2    0  503 -0.24001472150E+01  0.10484214363E+03 -0.42434791089E+03  0.46908391362E+03  0.17020849789E+03 0.  0.
        -24    2    3    3    0    0 -0.83741218595E+01  0.38078277073E+02 -0.80566561376E+02  0.11879716177E+03  0.78113467023E+02 0.  0.
          6    2    1    2  501    0  0.24001472150E+01 -0.10484214363E+03 -0.29457273853E+03  0.35658353100E+03  0.17140910276E+03 0.  0.
         24    2    5    5    0    0 -0.40306100974E+02 -0.12454452673E+03 -0.20642718017E+03  0.25656484778E+03  0.77957805820E+02 0.  0.
          5    1    5    5  501    0  0.42706248188E+02  0.19702383107E+02 -0.88145558356E+02  0.10001868322E+03  0.47000000000E+01 0. -1.
        -13    1    6    6    0    0  0.13414651711E+02 -0.68709235825E+02 -0.66173688589E+02  0.96332076847E+02  0.00000000000E+00 0.  1.
         14    1    6    6    0    0 -0.53720752685E+02 -0.55835290906E+02 -0.14025349158E+03  0.16023277093E+03  0.00000000000E+00 0. -1.
         -5    1    3    3    0  503  0.59739746445E+01  0.66763866552E+02 -0.34378134951E+03  0.35028675185E+03  0.47000000000E+01 0.  1.
         11    1    4    4    0    0  0.50746633596E+01 -0.94840534047E+01  0.10595042701E+02  0.15098159061E+02  0.00000000000E+00 0. -1.
        -12    1    4    4    0    0 -0.13448785219E+02  0.47562330478E+02 -0.91161604078E+02  0.10369900271E+03  0.00000000000E+00 0.  1.
</event>
<event>
12    1  0.1615162E-001  0.3397614E+03  0.7818608E-02  0.1067151E+00
         21   -1    0    0  501  502  0.00000000000E+00  0.00000000000E+00  0.51796563485E+03  0.51796563485E+03  0.00000000000E+00 0.  1.
         21   -1    0    0  502  503 -0.00000000000E+00 -0.00000000000E+00 -0.45137266161E+03  0.45137266161E+03  0.00000000000E+00 0.  1.
         -6    2    1    2    0  503 -0.36515976826E+02 -0.28859372980E+03 -0.31265997517E+03  0.46172946095E+03  0.17555078350E+03 0.  0.
        -24    2    3    3    0    0 -0.13365054658E+02 -0.29747325605E+03 -0.30856509918E+03  0.43616250585E+03  0.79726710213E+02 0.  0.
          6    2    1    2  501    0  0.36515976826E+02  0.28859372980E+03  0.37925294841E+03  0.50760883551E+03  0.17092154212E+03 0.  0.
         24    2    5    5    0    0 -0.34536158155E+02  0.12687304274E+03  0.11976757465E+03  0.19367136450E+03  0.76647311067E+02 0.  0.
          5    1    5    5  501    0  0.71052134981E+02  0.16172068707E+03  0.25948537376E+03  0.31393747101E+03  0.47000000000E+01 0. -1.
        -13    1    6    6    0    0 -0.33195617772E+02  0.53036992393E+02  0.98727220107E+02  0.11688428291E+03  0.00000000000E+00 0.  1.
         14    1    6    6    0    0 -0.13405403836E+01  0.73836050344E+02  0.21040354545E+02  0.76787081585E+02  0.00000000000E+00 0. -1.
         -5    1    3    3    0  503 -0.23150922168E+02  0.88795262493E+01 -0.40948759836E+01  0.25566955098E+02  0.47000000000E+01 0.  1.
         11    1    4    4    0    0  0.25901444440E+01 -0.14846794157E+02 -0.51924247511E+02  0.54067213952E+02  0.00000000000E+00 0. -1.
        -12    1    4    4    0    0 -0.15955199102E+02 -0.28262646190E+03 -0.25664085167E+03  0.38209529190E+03  0.00000000000E+00 0.  1.
</event>
<event>
12    1  0.1615162E-001  0.2558301E+03  0.7818608E-02  0.1109739E+00
         21   -1    0    0  503  502  0.00000000000E+00  0.00000000000E+00  0.14048136118E+03  0.14048136118E+03  0.00000000000E+00 0.  1.
         21   -1    0    0  501  503 -0.00000000000E+00 -0.00000000000E+00 -0.91655645742E+03  0.91655645742E+03  0.00000000000E+00 0. -1.
          6    2    1    2  501    0 -0.15363887354E+03 -0.10926412044E+03 -0.75879161517E+03  0.80062457119E+03  0.17231203461E+03 0.  0.
         24    2    3    3    0    0 -0.97554933213E+02 -0.20331984133E+01 -0.29931493902E+03  0.32545640630E+03  0.82530847525E+02 0.  0.
         -6    2    1    2    0  502  0.15363887354E+03  0.10926412044E+03 -0.17283481072E+02  0.25641324741E+03  0.17293201915E+03 0.  0.
        -24    2    5    5    0    0  0.38150618523E+02 -0.32561194953E+01  0.24475037540E+02  0.89787303090E+02  0.77438106419E+02 0.  0.
          5    1    3    3  501    0 -0.56083940326E+02 -0.10723092203E+03 -0.45947667615E+03  0.47516816489E+03  0.47000000000E+01 0. -1.
        -11    1    4    4    0    0 -0.83425356023E+02 -0.18588983658E+02 -0.13552064487E+03  0.16022230034E+03  0.00000000000E+00 0.  1.
         12    1    4    4    0    0 -0.14129577191E+02  0.16555785245E+02 -0.16379429415E+03  0.16523410596E+03  0.00000000000E+00 0. -1.
         -5    1    5    5    0  502  0.11548825502E+03  0.11252023994E+03 -0.41758518612E+02  0.16662594432E+03  0.47000000000E+01 0.  1.
         11    1    6    6    0    0  0.40903036162E+02  0.14126012638E+02 -0.15614931053E+02  0.46004659243E+02  0.00000000000E+00 0. -1.
        -12    1    6    6    0    0 -0.27524176390E+01 -0.17382132133E+02  0.40089968594E+02  0.43782643847E+02  0.00000000000E+00 0.  1.
</event>
<event>
12    1  0.1615162E-001  0.1959225E+03  0.7818608E-02  0.1153283E+00
         21   -1    0    0  503  502  0.00000000000E+00  0.00000000000E+00  0.26626228764E+03  0.26626228764E+03  0.00000000000E+00 0. -1.
         21   -1    0    0  501  503 -0.00000000000E+00 -0.00000000000E+00 -0.14793292090E+03  0.14793292090E+03  0.00000000000E+00 0. -1.
          6    2    1    2  501    0  0.61868331673E+02 -0.49636896925E+02  0.25306889284E+02  0.19755011661E+03  0.17914825684E+03 0.  0.
         24    2    3    3    0    0  0.47946854687E+02 -0.76960310753E+02  0.72960101436E+02  0.14068804583E+03  0.79045300515E+02 0.  0.
         -6    2    1    2    0  502 -0.61868331673E+02  0.49636896925E+02  0.93022477459E+02  0.21664509193E+03  0.17885861048E+03 0.  0.
        -24    2    5    5    0    0  0.12106349533E+02  0.12002259119E+02  0.10455837582E+03  0.13271782358E+03  0.79943410090E+02 0.  0.
          5    1    3    3  501    0  0.13921476987E+02  0.27323413828E+02 -0.47653212152E+02  0.56862070777E+02  0.47000000000E+01 0. -1.
        -13    1    4    4    0    0 -0.92478297739E+01 -0.55133836649E+02  0.18886078707E+02  0.59008018677E+02  0.00000000000E+00 0.  1.
         14    1    4    4    0    0  0.57194684461E+02 -0.21826474103E+02  0.54074022729E+02  0.81680027157E+02  0.00000000000E+00 0. -1.
         -5    1    5    5    0  502 -0.73974681206E+02  0.37634637806E+02 -0.11535898365E+02  0.83927268354E+02  0.47000000000E+01 0.  1.
         11    1    6    6    0    0 -0.84022914696E+01 -0.31472906820E+02  0.31868347180E+02  0.45571196140E+02  0.00000000000E+00 0. -1.
        -12    1    6    6    0    0  0.20508641003E+02  0.43475165939E+02  0.72690028644E+02  0.87146627436E+02  0.00000000000E+00 0.  1.
</event>
<event>
12    1  0.1615162E-001  0.2127792E+03  0.7818608E-02  0.1139424E+00
         21   -1    0    0  503  502  0.00000000000E+00  0.00000000000E+00  0.10201499588E+03  0.10201499588E+03  0.00000000000E+00 0.  1.
         21   -1    0    0  501  503 -0.00000000000E+00 -0.00000000000E+00 -0.88129981048E+03  0.88129981048E+03  0.00000000000E+00 0. -1.
          6    2    1    2  501    0  0.10316704645E+03  0.72676217548E+02 -0.73612458580E+03  0.76620244235E+03  0.17105994497E+03 0.  0.
         24    2    3    3    0    0  0.10858540112E+03  0.10470102429E+03 -0.65190529380E+03  0.67581479962E+03  0.94826354324E+02 0.  0.
         -6    2    1    2    0  502 -0.10316704645E+03 -0.72676217548E+02 -0.43160228794E+02  0.21711236401E+03  0.17131754488E+03 0.  0.
        -24    2    5    5    0    0 -0.12479734490E+02  0.16818925950E+02  0.20553417669E+01  0.81834475635E+02  0.79082469168E+02 0.  0.
          5    1    3    3  501    0 -0.54183546627E+01 -0.32024806740E+02 -0.84219292003E+02  0.90387642736E+02  0.47000000000E+01 0. -1.
        -13    1    4    4    0    0  0.90972729960E+02  0.48442581700E+02 -0.26312763935E+03  0.28259312785E+03  0.00000000000E+00 0.  1.
         14    1    4    4    0    0  0.17612671155E+02  0.56258442589E+02 -0.38877765445E+03  0.39322167176E+03  0.00000000000E+00 0. -1.
         -5    1    5    5    0  502 -0.90687311963E+02 -0.89495143499E+02 -0.45215570561E+02  0.13527788837E+03  0.47000000000E+01 0.  1.
         11    1    6    6    0    0 -0.11665276958E+02  0.27706682524E+02 -0.33281944455E+02  0.44848932760E+02  0.00000000000E+00 0. -1.
        -12    1    6    6    0    0 -0.81445753232E+00 -0.10887756574E+02  0.35337286222E+02  0.36985542876E+02  0.00000000000E+00 0.  1.
</event>
<event>
12    1  0.1615162E-001  0.1919011E+03  0.7818608E-02  0.1156897E+00
         21   -1    0    0  501  502  0.00000000000E+00  0.00000000000E+00  0.14298925864E+03  0.14298925864E+03  0.00000000000E+00 0.  1.
         21   -1    0    0  502  503 -0.00000000000E+00 -0.00000000000E+00 -0.51338846517E+03  0.51338846517E+03  0.00000000000E+00 0. -1.
         -6    2    1    2    0  503 -0.83893858981E+02  0.50087678129E+01 -0.41710676325E+03  0.45887422637E+03  0.17182618063E+03 0.  0.
        -24    2    3    3    0    0 -0.73699104771E+01  0.44592904743E+02 -0.29788361259E+03  0.31170402475E+03  0.79886855387E+02 0.  0.
          6    2    1    2  501    0  0.83893858981E+02 -0.50087678129E+01  0.46707556721E+02  0.19750349744E+03  0.17251889263E+03 0.  0.
         24    2    5    5    0    0  0.16644367544E+02 -0.54843508437E+02  0.56798632820E+02  0.11306467172E+03  0.79200315106E+02 0.  0.
          5    1    5    5  501    0  0.67249491437E+02  0.49834740624E+02 -0.10091076099E+02  0.84438825716E+02  0.47000000000E+01 0. -1.
        -13    1    6    6    0    0  0.42210016752E+02 -0.11045649082E+02  0.11635399254E+02  0.45156111366E+02  0.00000000000E+00 0.  1.
         14    1    6    6    0    0 -0.25565649209E+02 -0.43797859354E+02  0.45163233566E+02  0.67908560356E+02  0.00000000000E+00 0. -1.
         -5    1    3    3    0  503 -0.76523948503E+02 -0.39584136930E+02 -0.11922315066E+03  0.14717020162E+03  0.47000000000E+01 0.  1.
         13    1    4    4    0    0 -0.12885148707E+02 -0.17079553615E+02 -0.14793766635E+03  0.14947672505E+03  0.00000000000E+00 0. -1.
        -14    1    4    4    0    0  0.55152382297E+01  0.61672458358E+02 -0.14994594624E+03  0.16222729970E+03  0.00000000000E+00 0.  1.
</event>
<event>
12    1  0.1615162E-001  0.1858423E+03  0.7818608E-02  0.1163149E+00
         21   -1    0    0  503  502  0.00000000000E+00  0.00000000000E+00  0.51609889877E+03  0.51609889877E+03  0.00000000000E+00 0. -1.
         21   -1    0    0  501  503 -0.00000000000E+00 -0.00000000000E+00 -0.25030763142E+03  0.25030763142E+03  0.00000000000E+00 0. -1.
          6    2    1    2  501    0 -0.30197200025E+02 -0.61815104363E+02 -0.19594980661E+03  0.27006240594E+03  0.17263950410E+03 0.  0.
         24    2    3    3    0    0 -0.38110930237E+02 -0.86899512192E+02 -0.70609999488E+02  0.14190620480E+03  0.78406828209E+02 0.  0.
         -6    2    1    2    0  502  0.30197200025E+02  0.61815104363E+02  0.46174107397E+03  0.49634412425E+03  0.16858141142E+03 0.  0.
        -24    2    5    5    0    0 -0.15971911769E+01  0.94265214983E+02  0.40691884633E+03  0.42498965954E+03  0.78388656345E+02 0.  0.
          5    1    3    3  501    0  0.79137302121E+01  0.25084407830E+02 -0.12533980712E+03  0.12815620115E+03  0.47000000000E+01 0. -1.
        -13    1    4    4    0    0 -0.36269222790E+02 -0.27059524469E+01 -0.87324277503E+01  0.37403662853E+02  0.00000000000E+00 0.  1.
         14    1    4    4    0    0 -0.18417074475E+01 -0.84193559745E+02 -0.61877571738E+02  0.10450254195E+03  0.00000000000E+00 0. -1.
         -5    1    5    5    0  502  0.31794391202E+02 -0.32450110620E+02  0.54822227634E+02  0.71354464709E+02  0.47000000000E+01 0.  1.
         11    1    6    6    0    0  0.18631718113E+02  0.24905649037E+02  0.25360078851E+03  0.25550106106E+03  0.00000000000E+00 0. -1.
        -12    1    6    6    0    0 -0.20228909290E+02  0.69359565945E+02  0.15331805783E+03  0.16948859848E+03  0.00000000000E+00 0.  1.
</event>
<event>
12    1  0.1615162E-001  0.3205468E+03  0.7818608E-02  0.1075506E+00
         21   -1    0    0  503  502  0.00000000000E+00  0.00000000000E+00  0.26915091042E+03  0.26915091042E+03  0.00000000000E+00 0. -1.
         21   -1    0    0  501  503 -0.00000000000E+00 -0.00000000000E+00 -0.54528478869E+03  0.54528478869E+03  0.00000000000E+00 0. -1.
          6    2    1    2  501    0 -0.25826628765E+03 -0.75288481881E+02 -0.36197638396E+03  0.48350507909E+03  0.17429982248E+03 0.  0.
         24    2    3    3    0    0 -0.26200228631E+03 -0.76876646190E+02 -0.27221191888E+03  0.39352603073E+03  0.78792076510E+02 0.  0.
         -6    2    1    2    0  502  0.25826628765E+03  0.75288481881E+02  0.85842505696E+02  0.33093062002E+03  0.17255813120E+03 0.  0.
        -24    2    5    5    0    0  0.36853823376E+02  0.98751482472E+01  0.11073370716E+02  0.88206708760E+02  0.78753292508E+02 0.  0.
          5    1    3    3  501    0  0.37359986601E+01  0.15881643092E+01 -0.89764465084E+02  0.89979048360E+02  0.47000000000E+01 0. -1.
        -11    1    4    4    0    0 -0.12622805943E+03 -0.10154444105E+02 -0.16551221114E+03  0.20840088234E+03  0.00000000000E+00 0.  1.
         12    1    4    4    0    0 -0.13577422688E+03 -0.66722202085E+02 -0.10669970774E+03  0.18512514839E+03  0.00000000000E+00 0. -1.
         -5    1    5    5    0  502  0.22141246427E+03  0.65413333634E+02  0.74769134980E+02  0.24272391126E+03  0.47000000000E+01 0.  1.
         11    1    6    6    0    0 -0.56845232031E+01  0.32929229782E+02  0.20089095239E+02  0.38989995199E+02  0.00000000000E+00 0. -1.
        -12    1    6    6    0    0  0.42538346579E+02 -0.23054081534E+02 -0.90157245228E+01  0.49216713561E+02  0.00000000000E+00 0.  1.
</event>
<event>
12    1  0.1615162E-001  0.4291801E+03  0.7818608E-02  0.1034179E+00
         21   -1    0    0  501  502  0.00000000000E+00  0.00000000000E+00  0.18362964927E+03  0.18362964927E+03  0.00000000000E+00 0. -1.
         21   -1    0    0  502  503 -0.00000000000E+00 -0.00000000000E+00 -0.10117126900E+04  0.10117126900E+04  0.00000000000E+00 0.  1.
         -6    2    1    2    0  503  0.11208006978E+03  0.37658548660E+03 -0.35386383786E+03  0.55625096586E+03  0.17267585388E+03 0.  0.
        -24    2    3    3    0    0  0.80027816752E+02  0.11827832059E+03 -0.95527172040E+02  0.18949510450E+03  0.79929603120E+02 0.  0.
          6    2    1    2  501    0 -0.11208006978E+03 -0.37658548660E+03 -0.47421920292E+03  0.63909137345E+03  0.17080796362E+03 0.  0.
         24    2    5    5    0    0 -0.15205738461E+02 -0.26609828542E+03 -0.34646801895E+03  0.44432353036E+03  0.79647972321E+02 0.  0.
          5    1    5    5  501    0 -0.96874331322E+02 -0.11048720119E+03 -0.12775118397E+03  0.19476784309E+03  0.47000000000E+01 0. -1.
        -13    1    6    6    0    0 -0.45156003774E+02 -0.20629942089E+03 -0.25759929394E+03  0.33310045329E+03  0.00000000000E+00 0.  1.
         14    1    6    6    0    0  0.29950265313E+02 -0.59798864524E+02 -0.88868725004E+02  0.11122307708E+03  0.00000000000E+00 0. -1.
         -5    1    3    3    0  503  0.32052253031E+02  0.25830716601E+03 -0.25833666582E+03  0.36675586136E+03  0.47000000000E+01 0.  1.
         13    1    4    4    0    0  0.78200749663E+02  0.11951451910E+03 -0.61677704216E+02  0.15557383045E+03  0.00000000000E+00 0. -1.
        -14    1    4    4    0    0  0.18270670899E+01 -0.12361985126E+01 -0.33849467825E+02  0.33921274046E+02  0.00000000000E+00 0.  1.
</event>
<event>
12    1  0.1615162E-001  0.1882757E+03  0.7818608E-02  0.1160810E+00
         21   -1    0    0  501  502  0.00000000000E+00  0.00000000000E+00  0.61195694746E+03  0.61195694746E+03  0.00000000000E+00 0.  1.
         21   -1    0    0  502  503 -0.00000000000E+00 -0.00000000000E+00 -0.22687324278E+03  0.22687324278E+03  0.00000000000E+00 0.  1.
         -6    2    1    2    0  503  0.53777010792E+02  0.40154184004E+02 -0.17094380488E+03  0.25179157162E+03  0.17225819495E+03 0.  0.
        -24    2    3    3    0    0  0.76701116116E+02 -0.18087119851E+02 -0.14635625616E+03  0.18438087787E+03  0.79786899226E+02 0.  0.
          6    2    1    2  501    0 -0.53777010792E+02 -0.40154184004E+02  0.55602750956E+03  0.58703861862E+03  0.17590742729E+03 0.  0.
         24    2    5    5    0    0 -0.17724690398E+02 -0.92884541163E+02  0.36150513076E+03  0.38224285151E+03  0.80510467172E+02 0.  0.
          5    1    5    5  501    0 -0.36052320394E+02  0.52730357159E+02  0.19452237880E+03  0.20479576711E+03  0.47000000000E+01 0. -1.
        -11    1    6    6    0    0  0.72187001286E+01  0.97752314696E+01  0.91526484121E+02  0.92329638131E+02  0.00000000000E+00 0.  1.
         12    1    6    6    0    0 -0.24943390527E+02 -0.10265977263E+03  0.26997864664E+03  0.28991321338E+03  0.00000000000E+00 0. -1.
         -5    1    3    3    0  503 -0.22924105324E+02  0.58241303855E+02 -0.24587548718E+02  0.67410693748E+02  0.47000000000E+01 0.  1.
         11    1    4    4    0    0 -0.95537353207E+01 -0.18862755718E+02 -0.54078065757E+02  0.58064744966E+02  0.00000000000E+00 0. -1.
        -12    1    4    4    0    0  0.86254851437E+02  0.77563586692E+00 -0.92278190404E+02  0.12631613290E+03  0.00000000000E+00 0.  1.
</event>
<event>
12    1  0.1615162E-001  0.2045947E+03  0.7818608E-02  0.1146284E+00
         21   -1    0    0  501  502  0.00000000000E+00  0.00000000000E+00  0.36839537435E+02  0.36839537435E+02  0.00000000000E+00 0.  1.
         21   -1    0    0  502  503 -0.00000000000E+00 -0.00000000000E+00 -0.11274646825E+04  0.11274646825E+04  0.00000000000E+00 0. -1.
         -6    2    1    2    0  503 -0.10672113660E+03  0.34552763227E+02 -0.56533173165E+03  0.60121456427E+03  0.17110140571E+03 0.  0.
        -24    2    3    3    0    0 -0.34875531272E+02 -0.38175539911E+02 -0.35220475054E+03  0.36479037523E+03  0.79687872567E+02 0.  0.
          6    2    1    2  501    0  0.10672113660E+03 -0.34552763227E+02 -0.52529341341E+03  0.56308965566E+03  0.16897779647E+03 0.  0.
         24    2    5    5    0    0  0.12544553758E+03 -0.92274372256E+01 -0.50206121700E+03  0.52367138225E+03  0.79652510778E+02 0.  0.
          5    1    5    5  501    0 -0.18724400980E+02 -0.25325326002E+02 -0.23232196415E+02  0.39418273420E+02  0.47000000000E+01 0. -1.
        -11    1    6    6    0    0  0.11166270080E+03 -0.24766733471E+02 -0.30887424707E+03  0.32937099196E+03  0.00000000000E+00 0.  1.
         12    1    6    6    0    0  0.13782836772E+02  0.15539296246E+02 -0.19318696993E+03  0.19430039029E+03  0.00000000000E+00 0. -1.
         -5    1    3    3    0  503 -0.71845605324E+02  0.72728303138E+02 -0.21312698112E+03  0.23642418904E+03  0.47000000000E+01 0.  1.
         13    1    4    4    0    0  0.24630496852E+02 -0.13120041679E+01 -0.10568587435E+03  0.10852597277E+03  0.00000000000E+00 0. -1.
        -14    1    4    4    0    0 -0.59506028124E+02 -0.36863535743E+02 -0.24651887619E+03  0.25626440246E+03  0.00000000000E+00 0.  1.
</event>
<event>
12    1  0.1615162E-001  0.3668619E+03  0.7818608E-02  0.1055925E+00
         21   -1    0    0  503  502  0.00000000000E+00  0.00000000000E+00  0.52032607895E+03  0.52032607895E+03  0.00000000000E+00 0. -1.
         21   -1    0    0  501  503 -0.00000000000E+00 -0.00000000000E+00 -0.56029471605E+03  0.56029471605E+03  0.00000000000E+00 0.  1.
          6    2    1    2  501    0  0.32045142937E+03 -0.54722142504E+02 -0.41654144197E+03  0.55488820391E+03  0.16944177315E+03 0.  0.
         24    2    3    3    0    0  0.14288570537E+03 -0.80980259292E+02 -0.25254088010E+03  0.31170648310E+03  0.80061902894E+02 0.  0.
         -6    2    1    2    0  502 -0.32045142937E+03  0.54722142504E+02  0.37657280488E+03  0.52573259109E+03  0.17001190691E+03 0.  0.
        -24    2    5    5    0    0 -0.11694753700E+03  0.93506799871E+01  0.23253138883E+03  0.27227169991E+03  0.79352820688E+02 0.  0.
          5    1    3    3  501    0  0.17756572400E+03  0.26258116788E+02 -0.16400056188E+03  0.24318172081E+03  0.47000000000E+01 0. -1.
        -13    1    4    4    0    0  0.10684908244E+03 -0.30529837370E+02 -0.11044809566E+03  0.15667667096E+03  0.00000000000E+00 0.  1.
         14    1    4    4    0    0  0.36036622926E+02 -0.50450421922E+02 -0.14209278444E+03  0.15502981214E+03  0.00000000000E+00 0. -1.
         -5    1    5    5    0  502 -0.20350389237E+03  0.45371462517E+02  0.14404141605E+03  0.25346089118E+03  0.47000000000E+01 0.  1.
         13    1    6    6    0    0 -0.73889499856E+02 -0.21950659021E+02  0.81702615521E+02  0.11232456100E+03  0.00000000000E+00 0. -1.
        -14    1    6    6    0    0 -0.43058037144E+02  0.31301339008E+02  0.15082877331E+03  0.15994713891E+03  0.00000000000E+00 0.  1.
</event>
<event>
12    1  0.1615162E-001  0.1755812E+03  0.7818608E-02  0.1172258E+00
         21   -1    0    0  503  502  0.00000000000E+00  0.00000000000E+00  0.19235483099E+04  0.19235483099E+04  0.00000000000E+00 0. -1.
         21   -1    0    0  501  503 -0.00000000000E+00 -0.00000000000E+00 -0.22404434666E+02  0.22404434666E+02  0.00000000000E+00 0. -1.
          6    2    1    2  501    0 -0.20038810045E+02 -0.25014165804E+02  0.43069841862E+03  0.46511277603E+03  0.17263112184E+03 0.  0.
         24    2    3    3    0    0  0.57287432343E+01 -0.65403369414E+02  0.15924064144E+03  0.18941970510E+03  0.78815122681E+02 0.  0.
         -6    2    1    2    0  502  0.20038810045E+02  0.25014165804E+02  0.14704454566E+04  0.14808399685E+04  0.17219148970E+03 0.  0.
        -24    2    5    5    0    0  0.69839333766E+02  0.31354544822E+02  0.69106184681E+03  0.69982704047E+03  0.79566138743E+02 0.  0.
          5    1    3    3  501    0 -0.25767553280E+02  0.40389203610E+02  0.27145777718E+03  0.27569307093E+03  0.47000000000E+01 0. -1.
        -11    1    4    4    0    0  0.39775433006E+02 -0.18127283150E+02  0.78577194986E+02  0.89916956338E+02  0.00000000000E+00 0.  1.
         12    1    4    4    0    0 -0.34046689772E+02 -0.47276086264E+02  0.80663446451E+02  0.99502748757E+02  0.00000000000E+00 0. -1.
         -5    1    5    5    0  502 -0.49800523721E+02 -0.63403790182E+01  0.77938360976E+03  0.78101292802E+03  0.47000000000E+01 0.  1.
         13    1    6    6    0    0  0.45739729096E+02  0.37120731280E+02  0.64355948335E+03  0.64624985889E+03  0.00000000000E+00 0. -1.
        -14    1    6    6    0    0  0.24099604670E+02 -0.57661864579E+01  0.47502363462E+02  0.53577181580E+02  0.00000000000E+00 0.  1.
</event>
<event>
12    1  0.1615162E-001  0.2047180E+03  0.7818608E-02  0.1146027E+00
         21   -1    0    0  501  502  0.00000000000E+00  0.00000000000E+00  0.34452158289E+03  0.34452158289E+03  0.00000000000E+00 0.  1.
         21   -1    0    0  502  503 -0.00000000000E+00 -0.00000000000E+00 -0.32093512448E+03  0.32093512448E+03  0.00000000000E+00 0. -1.
         -6    2    1    2    0  503 -0.97028784765E+02  0.53779496527E+02 -0.25078656612E+03  0.32373348022E+03  0.17205419248E+03 0.  0.
        -24    2    3    3    0    0 -0.64041581774E+02  0.42962277015E+02 -0.26412682200E+03  0.28624721305E+03  0.78913924227E+02 0.  0.
          6    2    1    2  501    0  0.97028784765E+02 -0.53779496527E+02  0.27437302452E+03  0.34172322716E+03  0.17084316806E+03 0.  0.
         24    2    5    5    0    0 -0.11063755448E+02 -0.20258016422E+02  0.15582255989E+03  0.17775984850E+03  0.82371716333E+02 0.  0.
          5    1    5    5  501    0  0.10809254021E+03 -0.33521480105E+02  0.11855046463E+03  0.16396337866E+03  0.47000000000E+01 0. -1.
        -11    1    6    6    0    0  0.56180248664E+01 -0.44349936804E+02  0.46198192676E+02  0.64286484617E+02  0.00000000000E+00 0.  1.
         12    1    6    6    0    0 -0.16681780315E+02  0.24091920382E+02  0.10962436722E+03  0.11347336388E+03  0.00000000000E+00 0. -1.
         -5    1    3    3    0  503 -0.32987202991E+02  0.10817219512E+02  0.13340255883E+02  0.37486267168E+02  0.47000000000E+01 0.  1.
         11    1    4    4    0    0 -0.69579489181E+02  0.10555691472E+02 -0.22152374466E+03  0.23243385594E+03  0.00000000000E+00 0. -1.
        -12    1    4    4    0    0  0.55379074072E+01  0.32406585543E+02 -0.42603077334E+02  0.53813357109E+02  0.00000000000E+00 0.  1.
</event>
<event>
12    1  0.1615162E-001  0.2701810E+03  0.7818608E-02  0.1101215E+00
         21   -1    0    0  503  502  0.00000000000E+00  0.00000000000E+00  0.46565489338E+03  0.46565489338E+03  0.00000000000E+00 0. -1.
         21   -1    0    0  501  503 -0.00000000000E+00 -0.00000000000E+00 -0.28871737018E+03  0.28871737018E+03  0.00000000000E+00 0.  1.
          6    2    1    2  501    0 -0.37410192332E+02  0.20523756778E+03 -0.16670001956E+03  0.31724007341E+03  0.17126116297E+03 0.  0.
         24    2    3    3    0    0 -0.17414567489E+02  0.10963631371E+03 -0.13420141390E+02  0.13542633399E+03  0.76398974461E+02 0.  0.
         -6    2    1    2    0  502  0.37410192332E+02 -0.20523756778E+03  0.34363754275E+03  0.43713219014E+03  0.17168520364E+03 0.  0.
        -24    2    5    5    0    0  0.31111727075E+02 -0.30176084172E+02  0.16796243697E+03  0.18899910791E+03  0.75038303144E+02 0.  0.
          5    1    3    3  501    0 -0.19995624842E+02  0.95601254067E+02 -0.15327987817E+03  0.18181373942E+03  0.47000000000E+01 0. -1.
        -13    1    4    4    0    0  0.27584399136E+02  0.65158384495E+02 -0.14119164422E+02  0.72151680158E+02  0.00000000000E+00 0.  1.
         14    1    4    4    0    0 -0.44998966625E+02  0.44477929216E+02  0.69902303234E+00  0.63274653834E+02  0.00000000000E+00 0. -1.
         -5    1    5    5    0  502  0.62984652569E+01 -0.17506148361E+03  0.17567510578E+03  0.24813308223E+03  0.47000000000E+01 0.  1.
         11    1    6    6    0    0  0.97113054013E+01 -0.42868602640E+02  0.15466057751E+03  0.16078532514E+03  0.00000000000E+00 0. -1.
        -12    1    6    6    0    0  0.21400421674E+02  0.12692518468E+02  0.13301859463E+02  0.28213782767E+02  0.00000000000E+00 0.  1.
</event>
<event>
12    1  0.1615162E-001  0.2315672E+03  0.7818608E-02  0.1125730E+00
         21   -1    0    0  503  502  0.00000000000E+00  0.00000000000E+00  0.96549159671E+03  0.96549159671E+03  0.00000000000E+00 0.  1.
         21   -1    0    0  501  503 -0.00000000000E+00 -0.00000000000E+00 -0.81250814721E+02  0.81250814721E+02  0.00000000000E+00 0.  1.
          6    2    1    2  501    0 -0.25781737286E+02 -0.15291004706E+03  0.14693599619E+03  0.27425088966E+03  0.17198018209E+03 0.  0.
         24    2    3    3    0    0  0.16763527676E+02 -0.16726610037E+03  0.12412534720E+03  0.22366816983E+03  0.79758285998E+02 0.  0.
         -6    2    1    2    0  502  0.25781737286E+02  0.15291004706E+03  0.73730478580E+03  0.77249152178E+03  0.17052455419E+03 0.  0.
        -24    2    5    5    0    0  0.45808205916E+02  0.38236124459E+02  0.47924870302E+03  0.48935515917E+03  0.78922490555E+02 0.  0.
          5    1    3    3  501    0 -0.42545264963E+02  0.14356053311E+02  0.22810648992E+02  0.50582719825E+02  0.47000000000E+01 0. -1.
        -11    1    4    4    0    0 -0.17485650546E+02 -0.13042872707E+03  0.10975107277E+03  0.17135547495E+03  0.00000000000E+00 0.  1.
         12    1    4    4    0    0  0.34249178222E+02 -0.36837373300E+02  0.14374274424E+02  0.52312694881E+02  0.00000000000E+00 0. -1.
         -5    1    5    5    0  502 -0.20026468630E+02  0.11467392260E+03  0.25805608278E+03  0.28313636261E+03  0.47000000000E+01 0.  1.
         11    1    6    6    0    0  0.47483548931E+01 -0.22928704855E+02  0.16083614376E+03  0.16253165082E+03  0.00000000000E+00 0. -1.
        -12    1    6    6    0    0  0.41059851023E+02  0.61164829314E+02  0.31841255926E+03  0.32682350834E+03  0.00000000000E+00 0.  1.
</event>
<event>
12    1  0.1615162E-001  0.1876098E+03  0.7818608E-02  0.1160763E+00
         21   -1    0    0  501  502  0.00000000000E+00  0.00000000000E+00  0.10107718331E+03  0.10107718331E+03  0.00000000000E+00 0.  1.
         21   -1    0    0  502  503 -0.00000000000E+00 -0.00000000000E+00 -0.48815154344E+03  0.48815154344E+03  0.00000000000E+00 0.  1.
         -6    2    1    2    0  503 -0.23817982829E+02 -0.69463977382E+02 -0.35165019430E+03  0.39830383497E+03  0.17203355876E+03 0.  0.
        -24    2    3    3    0    0 -0.62345242717E+02 -0.29318600184E+02 -0.31392225925E+03  0.33091327074E+03  0.78802907873E+02 0.  0.
          6    2    1    2  501    0  0.23817982829E+02  0.69463977382E+02 -0.35424165820E+02  0.19092489178E+03  0.17264096361E+03 0.  0.
         24    2    5    5    0    0  0.64242570813E+02  0.90680410818E+02 -0.66290068912E+01  0.13674430910E+03  0.79404140498E+02 0.  0.
          5    1    5    5  501    0 -0.40424587984E+02 -0.21216433436E+02 -0.28795158929E+02  0.54180582677E+02  0.47000000000E+01 0. -1.
        -13    1    6    6    0    0  0.44725362514E+02  0.53067673867E+02  0.34664486572E+02  0.77576818000E+02  0.00000000000E+00 0.  1.
         14    1    6    6    0    0  0.19517208299E+02  0.37612736951E+02 -0.41293493464E+02  0.59167491101E+02  0.00000000000E+00 0. -1.
         -5    1    3    3    0  503  0.38527259888E+02 -0.40145377198E+02 -0.37727935053E+02  0.67390564237E+02  0.47000000000E+01 0.  1.
         13    1    4    4    0    0 -0.42940574337E+02  0.14434708898E+02 -0.22894224996E+03  0.23338124938E+03  0.00000000000E+00 0. -1.
        -14    1    4    4    0    0 -0.19404668380E+02 -0.43753309082E+02 -0.84980009291E+02  0.97532021356E+02  0.00000000000E+00 0.  1.
</event>
<event>
12    1  0.1615162E-001  0.1850110E+03  0.7818608E-02  0.1163181E+00
         21   -1    0    0  501  502  0.00000000000E+00  0.00000000000E+00  0.37277354391E+03  0.37277354391E+03  0.00000000000E+00 0.  1.
         21   -1    0    0  502  503 -0.00000000000E+00 -0.00000000000E+00 -0.10403737793E+03  0.10403737793E+03  0.00000000000E+00 0. -1.
         -6    2    1    2    0  503 -0.32575639844E+01  0.65812198414E+02  0.51877689166E+02  0.19214674100E+03  0.17287920135E+03 0.  0.
        -24    2    3    3    0    0 -0.34802070006E+02  0.22439094158E+02 -0.24452402139E+02  0.98740879982E+02  0.86238879781E+02 0.  0.
          6    2    1    2  501    0  0.32575639844E+01 -0.65812198414E+02  0.21685847681E+03  0.28466418084E+03  0.17223309701E+03 0.  0.
         24    2    5    5    0    0  0.52849609728E+02  0.72097966938E+01  0.12406669122E+03  0.15650807196E+03  0.79102277471E+02 0.  0.
          5    1    5    5  501    0 -0.49592045744E+02 -0.73021995108E+02  0.92791785594E+02  0.12815610888E+03  0.47000000000E+01 0. -1.
        -13    1    6    6    0    0  0.30477293941E+02 -0.34923833322E+02  0.48057954658E+02  0.66769054103E+02  0.00000000000E+00 0.  1.
         14    1    6    6    0    0  0.22372315787E+02  0.42133630016E+02  0.76008736561E+02  0.89739017855E+02  0.00000000000E+00 0. -1.
         -5    1    3    3    0  503  0.31544506022E+02  0.43373104256E+02  0.76330091305E+02  0.93405861013E+02  0.47000000000E+01 0.  1.
         13    1    4    4    0    0 -0.23573556913E+02  0.17628982822E+02  0.30534874644E+02  0.42413113425E+02  0.00000000000E+00 0. -1.
        -14    1    4    4    0    0 -0.11228513093E+02  0.48101113357E+01 -0.54987276783E+02  0.56327766557E+02  0.00000000000E+00 0.  1.
</event>
<event>
12    1  0.1615162E-001  0.2585787E+03  0.7818608E-02  0.1108006E+00
         21   -1    0    0  503  502  0.00000000000E+00  0.00000000000E+00  0.65434938872E+03  0.65434938872E+03  0.00000000000E+00 0. -1.
         21   -1    0    0  501  503 -0.00000000000E+00 -0.00000000000E+00 -0.11898372864E+03  0.11898372864E+03  0.00000000000E+00 0.  1.
          6    2    1    2  501    0 -0.16945304645E+03 -0.93836799833E+02  0.12233518715E+03  0.28605737951E+03  0.17129870520E+03 0.  0.
         24    2    3    3    0    0 -0.42469804114E+02 -0.39397028885E+02  0.98105573695E+02  0.14570925283E+03  0.90833213213E+02 0.  0.
         -6    2    1    2    0  502  0.16945304645E+03  0.93836799833E+02  0.41303047292E+03  0.48727573785E+03  0.17124191421E+03 0.  0.
        -24    2    5    5    0    0  0.84058171681E+02 -0.16791777866E+02  0.16318708134E+03  0.20096336097E+03  0.80053162989E+02 0.  0.
          5    1    3    3  501    0 -0.12698324234E+03 -0.54439770947E+02  0.24229613458E+02  0.14034812668E+03  0.47000000000E+01 0. -1.
        -13    1    4    4    0    0 -0.29277674170E+02 -0.58355448547E+02  0.26483301580E+02  0.70454991608E+02  0.00000000000E+00 0.  1.
         14    1    4    4    0    0 -0.13192129944E+02  0.18958419662E+02  0.71622272115E+02  0.75254261218E+02  0.00000000000E+00 0. -1.
         -5    1    5    5    0  502  0.85394874769E+02  0.11062857770E+03  0.24984339158E+03  0.28631237689E+03  0.47000000000E+01 0.  1.
         11    1    6    6    0    0  0.91247531732E+02  0.12602427884E+01  0.10247765755E+03  0.13722015361E+03  0.00000000000E+00 0. -1.
        -12    1    6    6    0    0 -0.71893600505E+01 -0.18052020655E+02  0.60709423789E+02  0.63743207359E+02  0.00000000000E+00 0.  1.
</event>
<event>
12    1  0.1615162E-001  0.1852083E+03  0.7818608E-02  0.1162984E+00
         21   -1    0    0  501  502  0.00000000000E+00  0.00000000000E+00  0.57860576089E+03  0.57860576089E+03  0.00000000000E+00 0.  1.
         21   -1    0    0  502  503 -0.00000000000E+00 -0.00000000000E+00 -0.67351855762E+02  0.67351855762E+02  0.00000000000E+00 0.  1.
         -6    2    1    2    0  503 -0.27155430093E+02 -0.63584806058E+02  0.14296370238E+03  0.23396736268E+03  0.17181868832E+03 0.  0.
        -24    2    3    3    0    0  0.37462790877E+02 -0.58778064767E+02  0.41843102097E+02  0.11377549505E+03  0.79597088399E+02 0.  0.
          6    2    1    2  501    0  0.27155430093E+02  0.63584806058E+02  0.36829020274E+03  0.41199025397E+03  0.17122456303E+03 0.  0.
         24    2    5    5    0    0  0.57994748705E+02 -0.68609994978E+01  0.14088135265E+03  0.17188496417E+03  0.79286954726E+02 0.  0.
          5    1    5    5  501    0 -0.30839318612E+02  0.70445805556E+02  0.22740885009E+03  0.24010528980E+03  0.47000000000E+01 0. -1.
        -11    1    6    6    0    0  0.41032926495E+02  0.22685973179E+02  0.29465754384E+02  0.55376756109E+02  0.00000000000E+00 0.  1.
         12    1    6    6    0    0  0.16961822211E+02 -0.29546972677E+02  0.11141559827E+03  0.11650820806E+03  0.00000000000E+00 0. -1.
         -5    1    3    3    0  503 -0.64618220970E+02 -0.48067412911E+01  0.10112060029E+03  0.12019186763E+03  0.47000000000E+01 0.  1.
         11    1    4    4    0    0  0.86534901241E+01  0.14052646460E+02  0.30442908311E+02  0.34628462719E+02  0.00000000000E+00 0. -1.
        -12    1    4    4    0    0  0.28809300753E+02 -0.72830711227E+02  0.11400193787E+02  0.79147032326E+02  0.00000000000E+00 0.  1.
</event>
<event>
12    1  0.1615162E-001  0.2749918E+03  0.7818608E-02  0.1098508E+00
         21   -1    0    0  503  502  0.00000000000E+00  0.00000000000E+00  0.73723251758E+02  0.73723251758E+02  0.00000000000E+00 0. -1.
         21   -1    0    0  501  503 -0.00000000000E+00 -0.00000000000E+00 -0.14144878320E+04  0.14144878320E+04  0.00000000000E+00 0.  1.
          6    2    1    2  501    0 -0.17103889383E+02 -0.21313928512E+03 -0.10614933758E+04  0.10965348472E+04  0.17291496843E+03 0.  0.
         24    2    3    3    0    0 -0.57527029619E+01 -0.90356921416E+02 -0.77102425535E+03  0.78094213781E+03  0.84821892397E+02 0.  0.
         -6    2    1    2    0  502  0.17103889383E+02  0.21313928512E+03 -0.27927120447E+03  0.39167623661E+03  0.17232809054E+03 0.  0.
        -24    2    5    5    0    0  0.50750511760E+02  0.65419468863E+02 -0.15919236864E+03  0.19830029156E+03  0.84412523052E+02 0.  0.
          5    1    3    3  501    0 -0.11351186421E+02 -0.12278236370E+03 -0.29046912046E+03  0.31559270938E+03  0.47000000000E+01 0. -1.
        -11    1    4    4    0    0 -0.28996650819E+00 -0.10676064234E+03 -0.66769511317E+03  0.67617651762E+03  0.00000000000E+00 0.  1.
         12    1    4    4    0    0 -0.54627364537E+01  0.16403720921E+02 -0.10332914218E+03  0.10476562019E+03  0.00000000000E+00 0. -1.
         -5    1    5    5    0  502 -0.33646622377E+02  0.14771981625E+03 -0.12007883583E+03  0.19337594505E+03  0.47000000000E+01 0.  1.
         11    1    6    6    0    0  0.18291501992E+02 -0.13013770935E+02 -0.61206825256E+01  0.23268004505E+02  0.00000000000E+00 0. -1.
        -12    1    6    6    0    0  0.32459009768E+02  0.78433239799E+02 -0.15307168612E+03  0.17503228705E+03  0.00000000000E+00 0.  1.
</event>
<event>
12    1  0.1615162E-001  0.1893761E+03  0.7818608E-02  0.1159045E+00
         21   -1    0    0  503  502  0.00000000000E+00  0.00000000000E+00  0.55104419432E+03  0.55104419432E+03  0.00000000000E+00 0. -1.
         21   -1    0    0  501  503 -0.00000000000E+00 -0.00000000000E+00 -0.65110126034E+02  0.65110126034E+02  0.00000000000E+00 0. -1.
          6    2    1    2  501    0 -0.61902983708E+02 -0.50250282485E+02  0.23370079897E+03  0.30074200975E+03  0.17167592350E+03 0.  0.
         24    2    3    3    0    0 -0.44699904444E+02 -0.74522346511E+02  0.77249889382E+02  0.14141826344E+03  0.80497939338E+02 0.  0.
         -6    2    1    2    0  502  0.61902983708E+02  0.50250282485E+02  0.25223326932E+03  0.31541231060E+03  0.17177378510E+03 0.  0.
        -24    2    5    5    0    0  0.96812134066E+02  0.41754226106E+02  0.24476728802E+03  0.27841686994E+03  0.80553854563E+02 0.  0.
          5    1    3    3  501    0 -0.17203079264E+02  0.24272064026E+02  0.15645090958E+03  0.15932374631E+03  0.47000000000E+01 0. -1.
        -11    1    4    4    0    0  0.88124803315E+01 -0.35044629555E+02 -0.40774051127E+01  0.36364970819E+02  0.00000000000E+00 0.  1.
         12    1    4    4    0    0 -0.53512384775E+02 -0.39477716957E+02  0.81327294494E+02  0.10505329262E+03  0.00000000000E+00 0. -1.
         -5    1    5    5    0  502 -0.34909150358E+02  0.84960563793E+01  0.74659812964E+01  0.36995440658E+02  0.47000000000E+01 0.  1.
         13    1    6    6    0    0  0.45271821125E+01  0.11835975837E+02 -0.23953620903E+01  0.12896645356E+02  0.00000000000E+00 0. -1.
        -14    1    6    6    0    0  0.92284951954E+02  0.29918250269E+02  0.24716265011E+03  0.26552022459E+03  0.00000000000E+00 0.  1.
</event>
<event>
12    1  0.1615162E-001  0.1796815E+03  0.7818608E-02  0.1168703E+00
         21   -1    0    0  501  502  0.00000000000E+00  0.00000000000E+00  0.32284146356E+02  0.32284146356E+02  0.00000000000E+00 0. -1.
         21   -1    0    0  502  503 -0.00000000000E+00 -0.00000000000E+00 -0.11173992456E+04  0.11173992456E+04  0.00000000000E+00 0. -1.
         -6    2    1    2    0  503 -0.46031669333E+02  0.24348450026E+01 -0.73596673930E+03  0.75701303837E+03  0.17116324330E+03 0.  0.
        -24    2    3    3    0    0 -0.73120612272E+01  0.46499642315E+02 -0.22883726447E+03  0.24648066070E+03  0.78552781698E+02 0.  0.
          6    2    1    2  501    0  0.46031669333E+02 -0.24348450026E+01 -0.34914835999E+03  0.39267035363E+03  0.17366803472E+03 0.  0.
         24    2    5    5    0    0  0.46280905696E+02  0.17404828400E+02 -0.35820451071E+03  0.37035940060E+03  0.80067245701E+02 0.  0.
          5    1    5    5  501    0 -0.24923636270E+00 -0.19839673403E+02  0.90561507172E+01  0.22310953034E+02  0.47000000000E+01 0. -1.
        -11    1    6    6    0    0 -0.47145619564E+01 -0.22970034837E+01 -0.24073065621E+03  0.24078777410E+03  0.00000000000E+00 0.  1.
         12    1    6    6    0    0  0.50995467652E+02  0.19701831884E+02 -0.11747385450E+03  0.12957162649E+03  0.00000000000E+00 0. -1.
         -5    1    3    3    0  503 -0.38719608106E+02 -0.44064797312E+02 -0.50712947482E+03  0.51053237767E+03  0.47000000000E+01 0.  1.
         11    1    4    4    0    0 -0.39384491985E+02  0.29306247371E+02 -0.17301180304E+03  0.17984181475E+03  0.00000000000E+00 0. -1.
        -12    1    4    4    0    0  0.32072430757E+02  0.17193394944E+02 -0.55825461435E+02  0.66638845945E+02  0.00000000000E+00 0.  1.
</event>
<event>
12    1  0.1615162E-001  0.1974821E+03  0.7818608E-02  0.1151937E+00
         21   -1    0    0  501  502  0.00000000000E+00  0.00000000000E+00  0.19443094190E+02  0.19443094190E+02  0.00000000000E+00 0.  1.
         21   -1    0    0  502  503 -0.00000000000E+00 -0.00000000000E+00 -0.20104222718E+04  0.20104222718E+04  0.00000000000E+00 0.  1.
         -6    2    1    2    0  503  0.70095368843E+02 -0.66530062736E+02 -0.10558897056E+04  0.10741501944E+04  0.17191846841E+03 0.  0.
        -24    2    3    3    0    0 -0.11551543962E+02  0.59151661593E+01 -0.59268604756E+03  0.59823607570E+03  0.80257236105E+02 0.  0.
          6    2    1    2  501    0 -0.70095368843E+02  0.66530062736E+02 -0.93508947201E+03  0.95571517158E+03  0.17221950685E+03 0.  0.
         24    2    5    5    0    0 -0.53520245037E+02  0.50542141362E+02 -0.27622971223E+03  0.29643630689E+03  0.78439183100E+02 0.  0.
          5    1    5    5  501    0 -0.16575123806E+02  0.15987921374E+02 -0.65885975979E+03  0.65927886469E+03  0.47000000000E+01 0. -1.
        -13    1    6    6    0    0 -0.32744527182E+02  0.65773620803E+02 -0.24590362843E+03  0.25664560727E+03  0.00000000000E+00 0.  1.
         14    1    6    6    0    0 -0.20775717855E+02 -0.15231479442E+02 -0.30326083796E+02  0.39790699627E+02  0.00000000000E+00 0. -1.
         -5    1    3    3    0  503  0.81646912805E+02 -0.72445228895E+02 -0.46320365805E+03  0.47591411872E+03  0.47000000000E+01 0.  1.
         11    1    4    4    0    0 -0.44272836540E+02  0.39212933175E+01 -0.42923717679E+03  0.43153217091E+03  0.00000000000E+00 0. -1.
        -12    1    4    4    0    0  0.32721292578E+02  0.19938728418E+01 -0.16344887077E+03  0.16670390479E+03  0.00000000000E+00 0.  1.
</event>
<event>
12    1  0.1615162E-001  0.2087180E+03  0.7818608E-02  0.1142830E+00
         21   -1    0    0  501  502  0.00000000000E+00  0.00000000000E+00  0.12389974862E+04  0.12389974862E+04  0.00000000000E+00 0.  1.
         21   -1    0    0  502  503 -0.00000000000E+00 -0.00000000000E+00 -0.35228198889E+02  0.35228198889E+02  0.00000000000E+00 0.  1.
         -6    2    1    2    0  503  0.70975029491E+02  0.93050688337E+02  0.54398863348E+03  0.58221865196E+03  0.17134479835E+03 0.  0.
        -24    2    3    3    0    0  0.49215234102E+02  0.71742759662E+02  0.53780374680E+03  0.55078842220E+03  0.81029951982E+02 0.  0.
          6    2    1    2  501    0 -0.70975029491E+02 -0.93050688337E+02  0.65978065387E+03  0.69200703317E+03  0.17282169229E+03 0.  0.
         24    2    5    5    0    0 -0.44336479305E+02 -0.10669901595E+03  0.64284938511E+03  0.65729900723E+03  0.73730926833E+02 0.  0.
          5    1    5    5  501    0 -0.26638550186E+02  0.13648327614E+02  0.16931268760E+02  0.34708025937E+02  0.47000000000E+01 0. -1.
        -11    1    6    6    0    0 -0.54965178182E+02 -0.65737661571E+02  0.30496058328E+03  0.31677052943E+03  0.00000000000E+00 0.  1.
         12    1    6    6    0    0  0.10628698877E+02 -0.40961354380E+02  0.33788880182E+03  0.34052847780E+03  0.00000000000E+00 0. -1.
         -5    1    3    3    0  503  0.21759795389E+02  0.21307928675E+02  0.61848866807E+01  0.31430229764E+02  0.47000000000E+01 0.  1.
         11    1    4    4    0    0 -0.16674624391E+02 -0.25861254138E+01  0.44676908798E+02  0.47757275079E+02  0.00000000000E+00 0. -1.
        -12    1    4    4    0    0  0.65889858493E+02  0.74328885076E+02  0.49312683801E+03  0.50303114712E+03  0.00000000000E+00 0.  1.
</event>
<event>
12    1  0.1615162E-001  0.1904226E+03  0.7818608E-02  0.1158455E+00
         21   -1    0    0  501  502  0.00000000000E+00  0.00000000000E+00  0.43142227520E+03  0.43142227520E+03  0.00000000000E+00 0.  1.
         21   -1    0    0  502  503 -0.00000000000E+00 -0.00000000000E+00 -0.20617662115E+03  0.20617662115E+03  0.00000000000E+00 0.  1.
         -6    2    1    2    0  503  0.66749263261E+02 -0.48624632646E+02 -0.13366827513E+03  0.23129853259E+03  0.16974093306E+03 0.  0.
        -24    2    3    3    0    0  0.36410062493E+02 -0.55932310569E+02 -0.15865761069E+03  0.19104401543E+03  0.82894284399E+02 0.  0.
          6    2    1    2  501    0 -0.66749263261E+02  0.48624632646E+02  0.35891392918E+03  0.40630036377E+03  0.17158367636E+03 0.  0.
         24    2    5    5    0    0  0.23380192047E+01  0.95885634616E+00  0.29131956388E+03  0.29842929699E+03  0.64703719050E+02 0.  0.
          5    1    5    5  501    0 -0.69087282466E+02  0.47665776300E+02  0.67594365294E+02  0.10787106678E+03  0.47000000000E+01 0. -1.
        -13    1    6    6    0    0  0.43937393741E+01  0.29458211486E+02  0.83465061905E+02  0.88620018779E+02  0.00000000000E+00 0.  1.
         14    1    6    6    0    0 -0.20557201694E+01 -0.28499355140E+02  0.20785450198E+03  0.20980927821E+03  0.00000000000E+00 0. -1.
         -5    1    3    3    0  503  0.30339200768E+02  0.73076779237E+01  0.24989335559E+02  0.40254517158E+02  0.47000000000E+01 0.  1.
         13    1    4    4    0    0  0.84291408225E+00  0.13965013189E+02  0.78762344589E-01  0.13990650486E+02  0.00000000000E+00 0. -1.
        -14    1    4    4    0    0  0.35567148411E+02 -0.69897323758E+02 -0.15873637303E+03  0.17705336494E+03  0.00000000000E+00 0.  1.
</event>
<event>
12    1  0.1615162E-001  0.1978509E+03  0.7818608E-02  0.1151605E+00
         21   -1    0    0  501  502  0.00000000000E+00  0.00000000000E+00  0.91765221683E+03  0.91765221683E+03  0.00000000000E+00 0.  1.
         21   -1    0    0  502  503 -0.00000000000E+00 -0.00000000000E+00 -0.12182544403E+03  0.12182544403E+03  0.00000000000E+00 0.  1.
         -6    2    1    2    0  503  0.15157459379E+02  0.97887210653E+02 -0.21234849931E+02  0.19880252067E+03  0.17105516300E+03 0.  0.
        -24    2    3    3    0    0 -0.33438023318E+02  0.14412812051E+02 -0.46335618594E+02  0.98894389133E+02  0.79418386390E+02 0.  0.
          6    2    1    2  501    0 -0.15157459379E+02 -0.97887210653E+02  0.81706162274E+03  0.84067514018E+03  0.17126979124E+03 0.  0.
         24    2    5    5    0    0  0.42054171747E+02 -0.90517909255E+02  0.66031326931E+03  0.67358350771E+03  0.87972057961E+02 0.  0.
          5    1    5    5  501    0 -0.57211631126E+02 -0.73693013978E+01  0.15674835343E+03  0.16709163247E+03  0.47000000000E+01 0. -1.
        -11    1    6    6    0    0 -0.63833083660E+01 -0.17518107165E+02  0.36682345889E+03  0.36729699250E+03  0.00000000000E+00 0.  1.
         12    1    6    6    0    0  0.48437480113E+02 -0.72999802090E+02  0.29348981041E+03  0.30628651521E+03  0.00000000000E+00 0. -1.
         -5    1    3    3    0  503  0.48595482697E+02  0.83474398602E+02  0.25100768663E+02  0.99908131540E+02  0.47000000000E+01 0.  1.
         11    1    4    4    0    0  0.14097129462E+02  0.14807899963E+01 -0.47548775084E+02  0.49616608208E+02  0.00000000000E+00 0. -1.
        -12    1    4    4    0    0 -0.47535152780E+02  0.12932022055E+02  0.12131564900E+01  0.49277780925E+02  0.00000000000E+00 0.  1.
</event>
<event>
12    1  0.1615162E-001  0.2886823E+03  0.7818608E-02  0.1091060E+00
         21   -1    0    0  501  502  0.00000000000E+00  0.00000000000E+00  0.57175746266E+03  0.57175746266E+03  0.00000000000E+00 0. -1.
         21   -1    0    0  502  503 -0.00000000000E+00 -0.00000000000E+00 -0.17552080499E+03  0.17552080499E+03  0.00000000000E+00 0. -1.
         -6    2    1    2    0  503  0.76137076935E+02  0.21917466012E+03  0.43997705873E+02  0.29185568215E+03  0.17149214256E+03 0.  0.
        -24    2    3    3    0    0  0.98420607756E+02  0.15097009103E+03 -0.15793419147E+02  0.19833837028E+03  0.81302476083E+02 0.  0.
          6    2    1    2  501    0 -0.76137076935E+02 -0.21917466012E+03  0.35223895179E+03  0.45542258550E+03  0.17176456591E+03 0.  0.
         24    2    5    5    0    0 -0.76188462032E+02 -0.53290242163E+02  0.16160051988E+03  0.20267222550E+03  0.79478118410E+02 0.  0.
          5    1    5    5  501    0  0.51385096774E-01 -0.16588441795E+03  0.19063843191E+03  0.25275036000E+03  0.47000000000E+01 0. -1.
        -13    1    6    6    0    0 -0.23926716226E+02 -0.28402147357E+02  0.13303695771E+03  0.13812314013E+03  0.00000000000E+00 0.  1.
         14    1    6    6    0    0 -0.52261745806E+02 -0.24888094806E+02  0.28563562176E+02  0.64549085369E+02  0.00000000000E+00 0. -1.
         -5    1    3    3    0  503 -0.22283530821E+02  0.68204569082E+02  0.59791125020E+02  0.93517311877E+02  0.47000000000E+01 0.  1.
         11    1    4    4    0    0  0.84574924879E+02  0.10091129954E+03  0.22806871271E+02  0.13362694964E+03  0.00000000000E+00 0. -1.
        -12    1    4    4    0    0  0.13845682877E+02  0.50058791493E+02 -0.38600290418E+02  0.64711420633E+02  0.00000000000E+00 0.  1.
</event>
<event>
12    1  0.1615162E-001  0.1971508E+03  0.7818608E-02  0.1152665E+00
         21   -1    0    0  501  502  0.00000000000E+00  0.00000000000E+00  0.13418688613E+03  0.13418688613E+03  0.00000000000E+00 0. -1.
         21   -1    0    0  502  503 -0.00000000000E+00 -0.00000000000E+00 -0.28730490544E+03  0.28730490544E+03  0.00000000000E+00 0. -1.
         -6    2    1    2    0  503  0.33896692922E-02  0.94596957892E+02 -0.89643071986E+02  0.21657408836E+03  0.17297361342E+03 0.  0.
        -24    2    3    3    0    0  0.60694505212E+02  0.92395923407E+02 -0.65141519730E+02  0.15091837938E+03  0.79448788647E+02 0.  0.
          6    2    1    2  501    0 -0.33896692922E-02 -0.94596957892E+02 -0.63474947320E+02  0.20491770321E+03  0.17033382429E+03 0.  0.
         24    2    5    5    0    0 -0.13074687575E+02 -0.41782286701E+02 -0.10336076641E+03  0.13729213936E+03  0.79050468436E+02 0.  0.
          5    1    5    5  501    0  0.13071297905E+02 -0.52814671190E+02  0.39885819088E+02  0.67625563851E+02  0.47000000000E+01 0. -1.
        -13    1    6    6    0    0  0.26243976709E+02 -0.23705102487E+02 -0.81428378640E+02  0.88776455468E+02  0.00000000000E+00 0.  1.
         14    1    6    6    0    0 -0.39318664284E+02 -0.18077184214E+02 -0.21932387767E+02  0.48515683890E+02  0.00000000000E+00 0. -1.
         -5    1    3    3    0  503 -0.60691115543E+02  0.22010344851E+01 -0.24501552256E+02  0.65655708979E+02  0.47000000000E+01 0.  1.
         11    1    4    4    0    0  0.48809296942E+02  0.67714094265E+01 -0.29358896228E+02  0.57359778951E+02  0.00000000000E+00 0. -1.
        -12    1    4    4    0    0  0.11885208270E+02  0.85624513980E+02 -0.35782623502E+02  0.93558600431E+02  0.00000000000E+00 0.  1.
</event>
<event>
12    1  0.1615162E-001  0.2167833E+03  0.7818608E-02  0.1136423E+00
         21   -1    0    0  503  502  0.00000000000E+00  0.00000000000E+00  0.12619180300E+03  0.12619180300E+03  0.00000000000E+00 0. -1.
         21   -1    0    0  501  503 -0.00000000000E+00 -0.00000000000E+00 -0.45909505269E+03  0.45909505269E+03  0.00000000000E+00 0. -1.
          6    2    1    2  501    0  0.12653177749E+03 -0.31607624868E+02 -0.29420251565E+03  0.36507613081E+03  0.17238366631E+03 0.  0.
         24    2    3    3    0    0  0.15087192390E+03 -0.56495594538E+02 -0.26137563095E+03  0.31699756884E+03  0.78842555613E+02 0.  0.
         -6    2    1    2    0  502 -0.12653177749E+03  0.31607624868E+02 -0.38700734048E+02  0.22021072488E+03  0.17316374873E+03 0.  0.
        -24    2    5    5    0    0 -0.93633495541E+02 -0.10646308535E+02  0.34908213796E+02  0.12906217007E+03  0.80980769192E+02 0.  0.
          5    1    3    3  501    0 -0.24340146412E+02  0.24887969669E+02 -0.32826884698E+02  0.48078561965E+02  0.47000000000E+01 0. -1.
        -11    1    4    4    0    0  0.58112996086E+02 -0.63599907721E+02 -0.13274716090E+03  0.15825257439E+03  0.00000000000E+00 0.  1.
         12    1    4    4    0    0  0.92758927811E+02  0.71043131835E+01 -0.12862847005E+03  0.15874499445E+03  0.00000000000E+00 0. -1.
         -5    1    5    5    0  502 -0.32898281944E+02  0.42253933403E+02 -0.73608947844E+02  0.91148554819E+02  0.47000000000E+01 0.  1.
         13    1    6    6    0    0 -0.31494200489E+02  0.31763654310E+02 -0.29766522748E+01  0.44829397256E+02  0.00000000000E+00 0. -1.
        -14    1    6    6    0    0 -0.62139295052E+02 -0.42409962844E+02  0.37884866071E+02  0.84232772810E+02  0.00000000000E+00 0.  1.
</event>
<event>
12    1  0.1615162E-001  0.1752732E+03  0.7818608E-02  0.1172492E+00
         21   -1    0    0  503  502  0.00000000000E+00  0.00000000000E+00  0.38220752348E+03  0.38220752348E+03  0.00000000000E+00 0.  1.
         21   -1    0    0  501  503 -0.00000000000E+00 -0.00000000000E+00 -0.10734841544E+03  0.10734841544E+03  0.00000000000E+00 0. -1.
          6    2    1    2  501    0  0.27801544561E+02  0.13905791956E+02  0.14631191143E+02  0.17588280396E+03  0.17249461454E+03 0.  0.
         24    2    3    3    0    0  0.74886713083E+02  0.38605597554E+02 -0.12991896737E+02  0.11578106958E+03  0.78345738448E+02 0.  0.
         -6    2    1    2    0  502 -0.27801544561E+02 -0.13905791956E+02  0.26022791690E+03  0.31367313497E+03  0.17235419908E+03 0.  0.
        -24    2    5    5    0    0 -0.77168423816E+01  0.60113318913E+02  0.13574679618E+03  0.16738621330E+03  0.76927179618E+02 0.  0.
          5    1    3    3  501    0 -0.47085168522E+02 -0.24699805598E+02  0.27623087880E+02  0.60101734379E+02  0.47000000000E+01 0. -1.
        -11    1    4    4    0    0  0.81260097876E+02  0.32491160428E+02  0.12866636433E+02  0.88455804478E+02  0.00000000000E+00 0.  1.
         12    1    4    4    0    0 -0.63733847930E+01  0.61144371267E+01 -0.25858533170E+02  0.27325265100E+02  0.00000000000E+00 0. -1.
         -5    1    5    5    0  502 -0.20084702179E+02 -0.74019110869E+02  0.12448112072E+03  0.14628692167E+03  0.47000000000E+01 0.  1.
         13    1    6    6    0    0  0.31179259039E+02  0.40180051165E+02  0.50955838745E+02  0.71993612272E+02  0.00000000000E+00 0. -1.
        -14    1    6    6    0    0 -0.38896101420E+02  0.19933267748E+02  0.84790957435E+02  0.95392601032E+02  0.00000000000E+00 0.  1.
</event>
<event>
12    1  0.1615162E-001  0.1819395E+03  0.7818608E-02  0.1166291E+00
         21   -1    0    0  501  502  0.00000000000E+00  0.00000000000E+00  0.13726989143E+03  0.13726989143E+03  0.00000000000E+00 0. -1.
         21   -1    0    0  502  503 -0.00000000000E+00 -0.00000000000E+00 -0.24115180309E+03  0.24115180309E+03  0.00000000000E+00 0. -1.
         -6    2    1    2    0  503 -0.52423072067E+02 -0.23560220540E+02 -0.34716951618E+02  0.18377901725E+03  0.17107366243E+03 0.  0.
        -24    2    3    3    0    0  0.19457491747E+02 -0.47293018742E+02  0.58497405602E+01  0.97768508132E+02  0.83121826923E+02 0.  0.
          6    2    1    2  501    0  0.52423072067E+02  0.23560220540E+02 -0.69164960047E+02  0.19464267726E+03  0.17262305071E+03 0.  0.
         24    2    5    5    0    0  0.97252957423E+02  0.34693215194E+02 -0.29506629593E+02  0.13358094321E+03  0.79444762517E+02 0.  0.
          5    1    5    5  501    0 -0.44829885356E+02 -0.11132994655E+02 -0.39658330454E+02  0.61061734052E+02  0.47000000000E+01 0. -1.
        -13    1    6    6    0    0  0.36956311918E+02 -0.62575942839E+01  0.22795086638E+02  0.43869607379E+02  0.00000000000E+00 0.  1.
         14    1    6    6    0    0  0.60296645505E+02  0.40950809478E+02 -0.52301716231E+02  0.89711335833E+02  0.00000000000E+00 0. -1.
         -5    1    3    3    0  503 -0.71880563814E+02  0.23732798202E+02 -0.40566692178E+02  0.86010509120E+02  0.47000000000E+01 0.  1.
         13    1    4    4    0    0 -0.26565964067E+02  0.26096598208E+01  0.12657152884E+02  0.29542584354E+02  0.00000000000E+00 0. -1.
        -14    1    4    4    0    0  0.46023455814E+02 -0.49902678563E+02 -0.68074123235E+01  0.68225923778E+02  0.00000000000E+00 0.  1.
</event>
<event>
12    1  0.1615162E-001  0.1966018E+03  0.7818608E-02  0.1153226E+00
         21   -1    0    0  501  502  0.00000000000E+00  0.00000000000E+00  0.76920175263E+02  0.76920175263E+02  0.00000000000E+00 0.  1.
         21   -1    0    0  502  503 -0.00000000000E+00 -0.00000000000E+00 -0.59984294875E+03  0.59984294875E+03  0.00000000000E+00 0.  1.
         -6    2    1    2    0  503 -0.94202261270E+02 -0.17433755659E+02 -0.11891175042E+03  0.22745570526E+03  0.16857666388E+03 0.  0.
        -24    2    3    3    0    0 -0.12846742562E+03 -0.27523033939E+02 -0.11330643557E+03  0.19099470448E+03  0.79870094246E+02 0.  0.
          6    2    1    2  501    0  0.94202261270E+02  0.17433755659E+02 -0.40401102307E+03  0.44930741875E+03  0.17168065680E+03 0.  0.
         24    2    5    5    0    0  0.10826522335E+03 -0.27569829928E+02 -0.32780228525E+03  0.35956918087E+03  0.96717131405E+02 0.  0.
          5    1    5    5  501    0 -0.14062962083E+02  0.45003585587E+02 -0.76208737816E+02  0.89738237880E+02  0.47000000000E+01 0. -1.
        -13    1    6    6    0    0  0.58467492569E+02 -0.33958565943E+02 -0.71542539224E+02  0.98437629019E+02  0.00000000000E+00 0.  1.
         14    1    6    6    0    0  0.49797730784E+02  0.63887360148E+01 -0.25625974603E+03  0.26113155186E+03  0.00000000000E+00 0. -1.
         -5    1    3    3    0  503  0.34265164345E+02  0.10089278280E+02 -0.56053148525E+01  0.36461000787E+02  0.47000000000E+01 0.  1.
         13    1    4    4    0    0 -0.31193879048E+01  0.20138218628E+01  0.11241653524E+02  0.11838954065E+02  0.00000000000E+00 0. -1.
        -14    1    4    4    0    0 -0.12534803771E+03 -0.29536855801E+02 -0.12454808909E+03  0.17915575041E+03  0.00000000000E+00 0.  1.
</event>
<event>
12    1  0.1615162E-001  0.2327620E+03  0.7818608E-02  0.1124802E+00
         21   -1    0    0  501  502  0.00000000000E+00  0.00000000000E+00  0.66411325566E+03  0.66411325566E+03  0.00000000000E+00 0.  1.
         21   -1    0    0  502  503 -0.00000000000E+00 -0.00000000000E+00 -0.93712119571E+02  0.93712119571E+02  0.00000000000E+00 0.  1.
         -6    2    1    2    0  503  0.40845508606E+02  0.15186467229E+03  0.14811262497E+03  0.27589041051E+03  0.17160109170E+03 0.  0.
        -24    2    3    3    0    0  0.70067737502E+02  0.16762521863E+03  0.12188192789E+03  0.23331726227E+03  0.81080446248E+02 0.  0.
          6    2    1    2  501    0 -0.40845508606E+02 -0.15186467229E+03  0.42228851112E+03  0.48193496472E+03  0.17088735860E+03 0.  0.
         24    2    5    5    0    0  0.28006730988E+02 -0.13656477616E+03  0.33145355978E+03  0.36683589390E+03  0.72614018556E+02 0.  0.
          5    1    5    5  501    0 -0.68852239594E+02 -0.15299896131E+02  0.90834951336E+02  0.11509907082E+03  0.47000000000E+01 0. -1.
        -13    1    6    6    0    0 -0.10066272834E+02 -0.72745002876E+02  0.10227600846E+03  0.12591087006E+03  0.00000000000E+00 0.  1.
         14    1    6    6    0    0  0.38073003822E+02 -0.63819773286E+02  0.22917755132E+03  0.24092502384E+03  0.00000000000E+00 0. -1.
         -5    1    3    3    0  503 -0.29222228896E+02 -0.15760546340E+02  0.26230697072E+02  0.42573148245E+02  0.47000000000E+01 0.  1.
         11    1    4    4    0    0  0.46278065148E+02  0.65500231861E+02  0.96413650802E+02  0.12540945638E+03  0.00000000000E+00 0. -1.
        -12    1    4    4    0    0  0.23789672354E+02  0.10212498677E+03  0.25468277092E+02  0.10790780589E+03  0.00000000000E+00 0.  1.
</event>
<event>
12    1  0.1615162E-001  0.1842538E+03  0.7818608E-02  0.1164195E+00
         21   -1    0    0  503  502  0.00000000000E+00  0.00000000000E+00  0.22492369118E+03  0.22492369118E+03  0.00000000000E+00 0. -1.
         21   -1    0    0  501  503 -0.00000000000E+00 -0.00000000000E+00 -0.28418903981E+03  0.28418903981E+03  0.00000000000E+00 0. -1.
          6    2    1    2  501    0  0.55040934723E+02  0.28806892638E+02 -0.20486706818E+03  0.27427383599E+03  0.17145343369E+03 0.  0.
         24    2    3    3    0    0  0.20433885598E+02 -0.23909672675E+02 -0.33004515755E+02  0.91146800752E+02  0.78925440125E+02 0.  0.
         -6    2    1    2    0  502 -0.55040934723E+02 -0.28806892638E+02  0.14560171955E+03  0.23483889499E+03  0.17346499447E+03 0.  0.
        -24    2    5    5    0    0 -0.59443024812E+02 -0.83236566170E+02  0.10296269455E+03  0.16539723450E+03  0.79329247865E+02 0.  0.
          5    1    3    3  501    0  0.34607049124E+02  0.52716565312E+02 -0.17186255243E+03  0.18312703524E+03  0.47000000000E+01 0. -1.
        -13    1    4    4    0    0  0.27244929947E+02 -0.50231280254E+02 -0.17099509771E+02  0.59647807656E+02  0.00000000000E+00 0.  1.
         14    1    4    4    0    0 -0.68110443491E+01  0.26321607579E+02 -0.15905005985E+02  0.31498993096E+02  0.00000000000E+00 0. -1.
         -5    1    5    5    0  502  0.44020900892E+01  0.54429673533E+02  0.42639025007E+02  0.69441660490E+02  0.47000000000E+01 0.  1.
         11    1    6    6    0    0 -0.76470816975E+02 -0.54436433338E+02  0.88285630784E+02  0.12886218889E+03  0.00000000000E+00 0. -1.
        -12    1    6    6    0    0  0.17027792163E+02 -0.28800132833E+02  0.14677063762E+02  0.36535045611E+02  0.00000000000E+00 0.  1.
</event>
<event>
12    1  0.1615162E-001  0.2901744E+03  0.7818608E-02  0.1091142E+00
         21   -1    0    0  501  502  0.00000000000E+00  0.00000000000E+00  0.51604226879E+03  0.51604226879E+03  0.00000000000E+00 0. -1.
         21   -1    0    0  502  503 -0.00000000000E+00 -0.00000000000E+00 -0.33191031099E+03  0.33191031099E+03  0.00000000000E+00 0.  1.
         -6    2    1    2    0  503 -0.15467823819E+03  0.17459749181E+03 -0.21304700578E+03  0.35998642683E+03  0.17260231549E+03 0.  0.
        -24    2    3    3    0    0 -0.12839829883E+03  0.15525413377E+03 -0.93800120538E+02  0.23626613604E+03  0.80207575894E+02 0.  0.
          6    2    1    2  501    0  0.15467823819E+03 -0.17459749181E+03  0.39717896357E+03  0.48796615295E+03  0.16109064470E+03 0.  0.
         24    2    5    5    0    0  0.11942385333E+03 -0.18210081441E+03  0.27113489282E+03  0.35678547879E+03  0.79743240597E+02 0.  0.
          5    1    5    5  501    0  0.35254384858E+02  0.75033225995E+01  0.12604407075E+03  0.13118067416E+03  0.47000000000E+01 0. -1.
        -11    1    6    6    0    0  0.90874124263E+02 -0.84123020274E+02  0.10775670579E+03  0.16415327180E+03  0.00000000000E+00 0.  1.
         12    1    6    6    0    0  0.28549729070E+02 -0.97977794137E+02  0.16337818703E+03  0.19263220699E+03  0.00000000000E+00 0. -1.
         -5    1    3    3    0  503 -0.26279939361E+02  0.19343358037E+02 -0.11924688524E+03  0.12372029078E+03  0.47000000000E+01 0.  1.
         11    1    4    4    0    0 -0.65471390315E+02  0.21948931957E+02 -0.36539935644E+02  0.78124422946E+02  0.00000000000E+00 0. -1.
        -12    1    4    4    0    0 -0.62926908515E+02  0.13330520182E+03 -0.57260184894E+02  0.15814171310E+03  0.00000000000E+00 0.  1.
</event>
<event>
12    1  0.1615162E-001  0.1862431E+03  0.7818608E-02  0.1162068E+00
         21   -1    0    0  503  502  0.00000000000E+00  0.00000000000E+00  0.34579494540E+03  0.34579494540E+03  0.00000000000E+00 0.  1.
         21   -1    0    0  501  503 -0.00000000000E+00 -0.00000000000E+00 -0.18587147813E+03  0.18587147813E+03  0.00000000000E+00 0.  1.
          6    2    1    2  501    0 -0.53044725609E+02  0.49057538641E+02 -0.10090960763E+03  0.21116619704E+03  0.17084504338E+03 0.  0.
         24    2    3    3    0    0  0.44782819964E+01  0.77181554330E+02 -0.29384939424E+02  0.11505311351E+03  0.79979353121E+02 0.  0.
         -6    2    1    2    0  502  0.53044725609E+02 -0.49057538641E+02  0.26083307490E+03  0.32050022649E+03  0.17165697540E+03 0.  0.
        -24    2    5    5    0    0  0.17860210345E+02 -0.56322323589E+02  0.26199816626E+03  0.28424867959E+03  0.93075676076E+02 0.  0.
          5    1    3    3  501    0 -0.57523007605E+02 -0.28124015689E+02 -0.71524668211E+02  0.96113083527E+02  0.47000000000E+01 0. -1.
        -13    1    4    4    0    0 -0.36712945913E+02  0.26098345345E+02 -0.62647896424E+01  0.45477594666E+02  0.00000000000E+00 0.  1.
         14    1    4    4    0    0  0.41191227909E+02  0.51083208985E+02 -0.23120149782E+02  0.69575518847E+02  0.00000000000E+00 0. -1.
         -5    1    5    5    0  502  0.35184515264E+02  0.72647849478E+01 -0.11650913599E+01  0.36251546899E+02  0.47000000000E+01 0.  1.
         13    1    6    6    0    0 -0.20138543565E+02 -0.14465698283E+02  0.11288248902E+02  0.27244117292E+02  0.00000000000E+00 0. -1.
        -14    1    6    6    0    0  0.37998753910E+02 -0.41856625306E+02  0.25070991736E+03  0.25700456230E+03  0.00000000000E+00 0.  1.
</event>
<event>
12    1  0.1615162E-001  0.2004375E+03  0.7818608E-02  0.1150022E+00
         21   -1    0    0  501  502  0.00000000000E+00  0.00000000000E+00  0.63117364876E+02  0.63117364876E+02  0.00000000000E+00 0. -1.
         21   -1    0    0  502  503 -0.00000000000E+00 -0.00000000000E+00 -0.62906387563E+03  0.62906387563E+03  0.00000000000E+00 0. -1.
         -6    2    1    2    0  503  0.54588760697E+01  0.98535569573E+02 -0.30594805285E+03  0.36575867982E+03  0.17445957418E+03 0.  0.
        -24    2    3    3    0    0 -0.35973025715E+02  0.10886701453E+03 -0.28545794309E+03  0.31816376583E+03  0.81214895049E+02 0.  0.
          6    2    1    2  501    0 -0.54588760697E+01 -0.98535569573E+02 -0.25999845791E+03  0.32642256069E+03  0.17091937342E+03 0.  0.
         24    2    5    5    0    0 -0.69578133303E+02 -0.62103456544E+02 -0.16283911598E+03  0.20435452338E+03  0.80908822661E+02 0.  0.
          5    1    5    5  501    0  0.64119257234E+02 -0.36432113028E+02 -0.97159341930E+02  0.12206803731E+03  0.47000000000E+01 0. -1.
        -13    1    6    6    0    0 -0.53614499673E+02 -0.29667167106E+02 -0.33040882179E+02  0.69615768863E+02  0.00000000000E+00 0.  1.
         14    1    6    6    0    0 -0.15963633631E+02 -0.32436289438E+02 -0.12979823380E+03  0.13473875452E+03  0.00000000000E+00 0. -1.
         -5    1    3    3    0  503  0.41431901785E+02 -0.10331444958E+02 -0.20490109755E+02  0.47594913995E+02  0.47000000000E+01 0.  1.
         11    1    4    4    0    0  0.86227575928E+01  0.57664799919E+02 -0.20373325451E+03  0.21191229340E+03  0.00000000000E+00 0. -1.
        -12    1    4    4    0    0 -0.44595783308E+02  0.51202214611E+02 -0.81724688581E+02  0.10625147243E+03  0.00000000000E+00 0.  1.
</event>
<event>
12    1  0.1615162E-001  0.2405354E+03  0.7818608E-02  0.1119787E+00
         21   -1    0    0  503  502  0.00000000000E+00  0.00000000000E+00  0.16564971215E+03  0.16564971215E+03  0.00000000000E+00 0.  1.
         21   -1    0    0  501  503 -0.00000000000E+00 -0.00000000000E+00 -0.55098823570E+03  0.55098823570E+03  0.00000000000E+00 0. -1.
          6    2    1    2  501    0  0.15933972538E+03 -0.43278273406E+02 -0.41057016577E+03  0.47478279386E+03  0.17201361368E+03 0.  0.
         24    2    3    3    0    0  0.17786841650E+03 -0.32938230873E+02 -0.28187146613E+03  0.34426201327E+03  0.79641130865E+02 0.  0.
         -6    2    1    2    0  502 -0.15933972538E+03  0.43278273406E+02  0.25231642224E+02  0.24185515400E+03  0.17491461549E+03 0.  0.
        -24    2    5    5    0    0 -0.16959154725E+03  0.70478195243E+02  0.47283222730E+02  0.20506795782E+03  0.78030092090E+02 0.  0.
          5    1    3    3  501    0 -0.18528691122E+02 -0.10340042533E+02 -0.12869869964E+03  0.13052078058E+03  0.47000000000E+01 0. -1.
        -11    1    4    4    0    0  0.17755463421E+03 -0.42264723926E+02 -0.24085335318E+03  0.30219578547E+03  0.00000000000E+00 0.  1.
         12    1    4    4    0    0  0.31378229343E+00  0.93264930521E+01 -0.41018112951E+02  0.42066227809E+02  0.00000000000E+00 0. -1.
         -5    1    5    5    0  502  0.10251821869E+02 -0.27199921837E+02 -0.22051580505E+02  0.36787196174E+02  0.47000000000E+01 0.  1.
         13    1    6    6    0    0 -0.62513281220E+01  0.22961517847E+02  0.23245750570E+02  0.33266729997E+02  0.00000000000E+00 0. -1.
        -14    1    6    6    0    0 -0.16334021913E+03  0.47516677396E+02  0.24037472159E+02  0.17180122783E+03  0.00000000000E+00 0.  1.
</event>
<event>
12    1  0.1615162E-001  0.2300971E+03  0.7818608E-02  0.1126636E+00
         21   -1    0    0  501  502  0.00000000000E+00  0.00000000000E+00  0.26907322892E+03  0.26907322892E+03  0.00000000000E+00 0. -1.
         21   -1    0    0  502  503 -0.00000000000E+00 -0.00000000000E+00 -0.23252824685E+03  0.23252824685E+03  0.00000000000E+00 0. -1.
         -6    2    1    2    0  503  0.14304992968E+03 -0.53972652005E+02 -0.80500168624E+02  0.24377237192E+03  0.17195453649E+03 0.  0.
        -24    2    3    3    0    0  0.28926081485E+02 -0.68814960034E+01 -0.86390158771E+02  0.12008481521E+03  0.77929648626E+02 0.  0.
          6    2    1    2  501    0 -0.14304992968E+03  0.53972652005E+02  0.11704515070E+03  0.25782910384E+03  0.17146413602E+03 0.  0.
         24    2    5    5    0    0 -0.16052210439E+03  0.51207014175E+02  0.56338942876E+02  0.19442358902E+03  0.78974370440E+02 0.  0.
          5    1    5    5  501    0  0.17472174707E+02  0.27656378299E+01  0.60706207821E+02  0.63405514820E+02  0.47000000000E+01 0. -1.
        -13    1    6    6    0    0 -0.18384773051E+01 -0.10663861181E+02  0.16128815534E+02  0.19422580277E+02  0.00000000000E+00 0.  1.
         14    1    6    6    0    0 -0.15868362708E+03  0.61870875356E+02  0.40210127343E+02  0.17500100875E+03  0.00000000000E+00 0. -1.
         -5    1    3    3    0  503  0.11412384820E+03 -0.47091156001E+02  0.58899901475E+01  0.12368755671E+03  0.47000000000E+01 0.  1.
         11    1    4    4    0    0  0.30835913305E+02 -0.21629201929E+02 -0.95490483502E+02  0.10265041824E+03  0.00000000000E+00 0. -1.
        -12    1    4    4    0    0 -0.19098318199E+01  0.14747705925E+02  0.91003247303E+01  0.17434396974E+02  0.00000000000E+00 0.  1.
</event>
<event>
12    1  0.1615162E-001  0.3669723E+03  0.7818608E-02  0.1056071E+00
         21   -1    0    0  501  502  0.00000000000E+00  0.00000000000E+00  0.10321957245E+03  0.10321957245E+03  0.00000000000E+00 0. -1.
         21   -1    0    0  502  503 -0.00000000000E+00 -0.00000000000E+00 -0.12968353772E+04  0.12968353772E+04  0.00000000000E+00 0.  1.
         -6    2    1    2    0  503 -0.31840101475E+03 -0.60680354987E+02 -0.59236884171E+03  0.69566404130E+03  0.16729106986E+03 0.  0.
        -24    2    3    3    0    0 -0.10234123332E+03 -0.38262269723E+02 -0.15164849592E+03  0.20429766792E+03  0.82477521057E+02 0.  0.
          6    2    1    2  501    0  0.31840101475E+03  0.60680354987E+02 -0.60124696303E+03  0.70439090833E+03  0.17206780500E+03 0.  0.
         24    2    5    5    0    0  0.25870450761E+03  0.26310380127E+02 -0.56357808085E+03  0.62573976199E+03  0.79433860279E+02 0.  0.
          5    1    5    5  501    0  0.59696507147E+02  0.34369974860E+02 -0.37668882179E+02  0.78651146350E+02  0.47000000000E+01 0. -1.
        -11    1    6    6    0    0  0.84693227412E+02  0.43460867833E+02 -0.23465673324E+03  0.25323027516E+03  0.00000000000E+00 0.  1.
         12    1    6    6    0    0  0.17401128019E+03 -0.17150487706E+02 -0.32892134761E+03  0.37250948683E+03  0.00000000000E+00 0. -1.
         -5    1    3    3    0  503 -0.21605978143E+03 -0.22418085264E+02 -0.44072034579E+03  0.49136637338E+03  0.47000000000E+01 0.  1.
         13    1    4    4    0    0 -0.99514228478E+02 -0.15059641134E+02 -0.15029738778E+03  0.18088443613E+03  0.00000000000E+00 0. -1.
        -14    1    4    4    0    0 -0.28270048451E+01 -0.23202628588E+02 -0.13511081468E+01  0.23413231794E+02  0.00000000000E+00 0.  1.
</event>
<event>
12    1  0.1615162E-001  0.1868395E+03  0.7818608E-02  0.1161680E+00
         21   -1    0    0  503  502  0.00000000000E+00  0.00000000000E+00  0.78689881222E+03  0.78689881222E+03  0.00000000000E+00 0.  1.
         21   -1    0    0  501  503 -0.00000000000E+00 -0.00000000000E+00 -0.73775040274E+02  0.73775040274E+02  0.00000000000E+00 0.  1.
          6    2    1    2  501    0 -0.67463449423E+02 -0.22215342589E+02  0.63069708532E+03  0.65779008917E+03  0.17281246927E+03 0.  0.
         24    2    3    3    0    0 -0.12526585793E+02 -0.15774014673E+02  0.14457186767E+03  0.16850554321E+03  0.84186449498E+02 0.  0.
         -6    2    1    2    0  502  0.67463449423E+02  0.22215342589E+02  0.82426686625E+02  0.20288376332E+03  0.17123908518E+03 0.  0.
        -24    2    5    5    0    0  0.64555784617E+02  0.68481221006E+02  0.94164669662E+02  0.15483320384E+03  0.79051938876E+02 0.  0.
          5    1    3    3  501    0 -0.54936863631E+02 -0.64413279164E+01  0.48612521765E+03  0.48928454597E+03  0.47000000000E+01 0. -1.
        -13    1    4    4    0    0 -0.44205506613E+02 -0.27670135056E+02  0.78022872030E+02  0.93847385412E+02  0.00000000000E+00 0.  1.
         14    1    4    4    0    0  0.31678920820E+02  0.11896120383E+02  0.66548995639E+02  0.74658157793E+02  0.00000000000E+00 0. -1.
         -5    1    5    5    0  502  0.29076648064E+01 -0.46265878417E+02 -0.11737983038E+02  0.48050559477E+02  0.47000000000E+01 0.  1.
         11    1    6    6    0    0 -0.10514120438E+02  0.36600572356E+02  0.47456971372E+02  0.60846633080E+02  0.00000000000E+00 0. -1.
        -12    1    6    6    0    0  0.75069905055E+02  0.31880648650E+02  0.46707698291E+02  0.93986570758E+02  0.00000000000E+00 0.  1.
</event>
<event>
12    1  0.1615162E-001  0.1940647E+03  0.7818608E-02  0.1157026E+00
         21   -1    0    0  503  502  0.00000000000E+00  0.00000000000E+00  0.59385938016E+03  0.59385938016E+03  0.00000000000E+00 0. -1.
         21   -1    0    0  501  503 -0.00000000000E+00 -0.00000000000E+00 -0.80994302444E+02  0.80994302444E+02  0.00000000000E+00 0.  1.
          6    2    1    2  501    0 -0.59713702403E+02  0.46797444944E+02  0.81018912103E+02  0.20140650787E+03  0.16806186416E+03 0.  0.
         24    2    3    3    0    0 -0.14447655858E+01  0.75857631019E+02  0.78489673380E+02  0.13607465912E+03  0.81235561772E+02 0.  0.
         -6    2    1    2    0  502  0.59713702403E+02 -0.46797444944E+02  0.43184616561E+03  0.47344717473E+03  0.17862079778E+03 0.  0.
        -24    2    5    5    0    0  0.10650378133E+03 -0.51887887869E+02  0.35970511428E+03  0.38718220280E+03  0.80541173220E+02 0.  0.
          5    1    3    3  501    0 -0.58268936817E+02 -0.29060186076E+02  0.25292387237E+01  0.65331848749E+02  0.47000000000E+01 0. -1.
        -11    1    4    4    0    0  0.12342724885E+02 -0.14188845687E+02  0.62680073272E+01  0.19823070281E+02  0.00000000000E+00 0.  1.
         12    1    4    4    0    0 -0.13787490470E+02  0.90046476706E+02  0.72221666052E+02  0.11625158884E+03  0.00000000000E+00 0. -1.
         -5    1    5    5    0  502 -0.46790078924E+02  0.50904429252E+01  0.72141051335E+02  0.86264971933E+02  0.47000000000E+01 0.  1.
         13    1    6    6    0    0  0.91076656602E+02 -0.54574571123E+02  0.35542985392E+03  0.37094975704E+03  0.00000000000E+00 0. -1.
        -14    1    6    6    0    0  0.15427124725E+02  0.26866832544E+01  0.42752603564E+01  0.16232445759E+02  0.00000000000E+00 0.  1.
</event>
<event>
12    1  0.1615162E-001  0.2313721E+03  0.7818608E-02  0.1126460E+00
         21   -1    0    0  501  502  0.00000000000E+00  0.00000000000E+00  0.55352843675E+03  0.55352843675E+03  0.00000000000E+00 0. -1.
         21   -1    0    0  502  503 -0.00000000000E+00 -0.00000000000E+00 -0.10260806037E+03  0.10260806037E+03  0.00000000000E+00 0.  1.
         -6    2    1    2    0  503 -0.11040487351E+03 -0.10554539193E+03  0.13738103903E+03  0.26908475876E+03  0.17379295630E+03 0.  0.
        -24    2    3    3    0    0 -0.58945036556E+02  0.14586841171E+02  0.69394212277E+02  0.12169355529E+03  0.79413295051E+02 0.  0.
          6    2    1    2  501    0  0.11040487351E+03  0.10554539193E+03  0.31353933736E+03  0.38705173835E+03  0.16784834298E+03 0.  0.
         24    2    5    5    0    0 -0.52076646419E+00  0.75490510527E+02  0.17751593449E+03  0.20891625725E+03  0.80218496423E+02 0.  0.
          5    1    5    5  501    0  0.11092563998E+03  0.30054881406E+02  0.13602340287E+03  0.17813548110E+03  0.47000000000E+01 0. -1.
        -11    1    6    6    0    0  0.83305161985E+01  0.67704480762E+01 -0.63195854248E+01  0.12456870684E+02  0.00000000000E+00 0.  1.
         12    1    6    6    0    0 -0.88512826626E+01  0.68720062451E+02  0.18383551991E+03  0.19645938657E+03  0.00000000000E+00 0. -1.
         -5    1    3    3    0  503 -0.51459836958E+02 -0.12013223310E+03  0.67986826754E+02  0.14739120348E+03  0.47000000000E+01 0.  1.
         13    1    4    4    0    0 -0.74753484218E+02 -0.32403545644E+01  0.43692414139E+02  0.86646467636E+02  0.00000000000E+00 0. -1.
        -14    1    4    4    0    0  0.15808447662E+02  0.17827195736E+02  0.25701798138E+02  0.35047087651E+02  0.00000000000E+00 0.  1.
</event>
<event>
12    1  0.1615162E-001  0.2863914E+03  0.7818608E-02  0.1092726E+00
         21   -1    0    0  503  502  0.00000000000E+00  0.00000000000E+00  0.23357237948E+03  0.23357237948E+03  0.00000000000E+00 0. -1.
         21   -1    0    0  501  503 -0.00000000000E+00 -0.00000000000E+00 -0.38103717196E+03  0.38103717196E+03  0.00000000000E+00 0.  1.
          6    2    1    2  501    0 -0.22602937194E+03  0.20357993616E+02  0.17978075809E+02  0.28695517018E+03  0.17468924867E+03 0.  0.
         24    2    3    3    0    0 -0.58642476018E+02  0.45904762418E+02 -0.20782485904E+02  0.11318669932E+03  0.82662748419E+02 0.  0.
         -6    2    1    2    0  502  0.22602937194E+03 -0.20357993616E+02 -0.16544286829E+03  0.32765438126E+03  0.16876707620E+03 0.  0.
        -24    2    5    5    0    0  0.68094842690E+02  0.34987432993E+02 -0.39728442568E+02  0.11829192376E+03  0.80954320514E+02 0.  0.
          5    1    3    3  501    0 -0.16738689592E+03 -0.25546768801E+02  0.38760561713E+02  0.17376847086E+03  0.47000000000E+01 0. -1.
        -13    1    4    4    0    0 -0.64130811142E+02  0.10429443839E+02  0.10198623228E+02  0.65768884378E+02  0.00000000000E+00 0.  1.
         14    1    4    4    0    0  0.54883351249E+01  0.35475318579E+02 -0.30981109132E+02  0.47417814941E+02  0.00000000000E+00 0. -1.
         -5    1    5    5    0  502  0.15793452925E+03 -0.55345426610E+02 -0.12571442573E+03  0.20936245750E+03  0.47000000000E+01 0.  1.
         11    1    6    6    0    0  0.44731744710E+02  0.48021219447E+02 -0.56600091171E+02  0.86663353400E+02  0.00000000000E+00 0. -1.
        -12    1    6    6    0    0  0.23363097980E+02 -0.13033786454E+02  0.16871648603E+02  0.31628570362E+02  0.00000000000E+00 0.  1.
</event>
<event>
12    1  0.1615162E-001  0.2487197E+03  0.7818608E-02  0.1114174E+00
         21   -1    0    0  503  502  0.00000000000E+00  0.00000000000E+00  0.11125719280E+03  0.11125719280E+03  0.00000000000E+00 0.  1.
         21   -1    0    0  501  503 -0.00000000000E+00 -0.00000000000E+00 -0.56058870723E+03  0.56058870723E+03  0.00000000000E+00 0. -1.
          6    2    1    2  501    0 -0.11906291210E+03  0.13489815931E+03 -0.19193539310E+03  0.31416666071E+03  0.17172071848E+03 0.  0.
         24    2    3    3    0    0 -0.13217989815E+03  0.98860171017E+02 -0.89101739626E+02  0.20431384003E+03  0.80994853773E+02 0.  0.
         -6    2    1    2    0  502  0.11906291210E+03 -0.13489815931E+03 -0.25739612133E+03  0.35767923932E+03  0.17119633332E+03 0.  0.
        -24    2    5    5    0    0  0.96507540540E+02 -0.24460624760E+02 -0.18003064412E+03  0.22088486485E+03  0.80418052391E+02 0.  0.
          5    1    3    3  501    0  0.13116986049E+02  0.36037988292E+02 -0.10283365347E+03  0.10985282067E+03  0.47000000000E+01 0. -1.
        -13    1    4    4    0    0 -0.66399680305E+02  0.76814128155E+02 -0.88874761455E+02  0.13493721152E+03  0.00000000000E+00 0.  1.
         14    1    4    4    0    0 -0.65780217841E+02  0.22046042863E+02 -0.22697817095E+00  0.69376628516E+02  0.00000000000E+00 0. -1.
         -5    1    5    5    0  502  0.22555371558E+02 -0.11043753455E+03 -0.77365477206E+02  0.13679437447E+03  0.47000000000E+01 0.  1.
         11    1    6    6    0    0  0.37926090875E+02 -0.44117699882E+02 -0.12607787529E+03  0.13885384564E+03  0.00000000000E+00 0. -1.
        -12    1    6    6    0    0  0.58581449665E+02  0.19657075122E+02 -0.53952768837E+02  0.82031019208E+02  0.00000000000E+00 0.  1.
</event>
<event>
12    1  0.1615162E-001  0.2852168E+03  0.7818608E-02  0.1093164E+00
         21   -1    0    0  501  502  0.00000000000E+00  0.00000000000E+00  0.29484138610E+03  0.29484138610E+03  0.00000000000E+00 0.  1.
         21   -1    0    0  502  503 -0.00000000000E+00 -0.00000000000E+00 -0.30657827803E+03  0.30657827803E+03  0.00000000000E+00 0.  1.
         -6    2    1    2    0  503  0.21791412094E+03 -0.54790584169E+02  0.92425665993E+02  0.29981849156E+03  0.17567029324E+03 0.  0.
        -24    2    3    3    0    0  0.21855139232E+03 -0.76534089236E+02  0.47376621099E+02  0.24957217256E+03  0.80122076780E+02 0.  0.
          6    2    1    2  501    0 -0.21791412094E+03  0.54790584169E+02 -0.10416255792E+03  0.30160117258E+03  0.17211872823E+03 0.  0.
         24    2    5    5    0    0 -0.18082399801E+03  0.98635997938E+02 -0.59442911975E+02  0.22866260760E+03  0.79540869895E+02 0.  0.
          5    1    5    5  501    0 -0.37090122934E+02 -0.43845413770E+02 -0.44719645945E+02  0.72938564980E+02  0.47000000000E+01 0. -1.
        -11    1    6    6    0    0 -0.22092253802E+02 -0.36676488843E+01 -0.30155666341E+02  0.37561729710E+02  0.00000000000E+00 0.  1.
         12    1    6    6    0    0 -0.15873174421E+03  0.10230364682E+03 -0.29287245635E+02  0.19110087789E+03  0.00000000000E+00 0. -1.
         -5    1    3    3    0  503 -0.63727137760E+00  0.21743505068E+02  0.45049044894E+02  0.50246319002E+02  0.47000000000E+01 0.  1.
         13    1    4    4    0    0  0.91946106724E+02 -0.70686245799E+02  0.39761021882E+02  0.12260330643E+03  0.00000000000E+00 0. -1.
        -14    1    4    4    0    0  0.12660528560E+03 -0.58478434379E+01  0.76155992175E+01  0.12696886613E+03  0.00000000000E+00 0.  1.
</event>
<event>
12    1  0.1615162E-001  0.2138532E+03  0.7818608E-02  0.1138780E+00
         21   -1    0    0  503  502  0.00000000000E+00  0.00000000000E+00  0.52737939454E+02  0.52737939454E+02  0.00000000000E+00 0.  1.
         21   -1    0    0  501  503 -0.00000000000E+00 -0.00000000000E+00 -0.86244325766E+03  0.86244325766E+03  0.00000000000E+00 0.  1.
          6    2    1    2  501    0 -0.34033105641E+02 -0.12144493333E+03 -0.40244739913E+03  0.45573797068E+03  0.17270224303E+03 0.  0.
         24    2    3    3    0    0  0.11043863507E+01 -0.11104512953E+03 -0.16625339735E+03  0.21667208910E+03  0.83512643375E+02 0.  0.
         -6    2    1    2    0  502  0.34033105641E+02  0.12144493333E+03 -0.40725791908E+03  0.45944322643E+03  0.17123650763E+03 0.  0.
        -24    2    5    5    0    0  0.80265663185E+02  0.10058356023E+03 -0.22926311728E+03  0.27430304783E+03  0.78236537676E+02 0.  0.
          5    1    3    3  501    0 -0.35137491991E+02 -0.10399803805E+02 -0.23619400177E+03  0.23906588158E+03  0.47000000000E+01 0. -1.
        -11    1    4    4    0    0 -0.27888282143E+02 -0.96134345481E+02 -0.93613207419E+02  0.13705108998E+03  0.00000000000E+00 0.  1.
         12    1    4    4    0    0  0.28992668494E+02 -0.14910784048E+02 -0.72640189935E+02  0.79620999122E+02  0.00000000000E+00 0. -1.
         -5    1    5    5    0  502 -0.46232557545E+02  0.20861373101E+02 -0.17799480179E+03  0.18514017860E+03  0.47000000000E+01 0.  1.
         13    1    6    6    0    0 -0.13426739992E+02  0.29260884030E+02 -0.39270801212E+02  0.50780631238E+02  0.00000000000E+00 0. -1.
        -14    1    6    6    0    0  0.93692403177E+02  0.71322676203E+02 -0.18999231607E+03  0.22352241659E+03  0.00000000000E+00 0.  1.
</event>
<event>
12    1  0.1615162E-001  0.2424378E+03  0.7818608E-02  0.1119037E+00
         21   -1    0    0  503  502  0.00000000000E+00  0.00000000000E+00  0.13682137676E+04  0.13682137676E+04  0.00000000000E+00 0. -1.
         21   -1    0    0  501  503 -0.00000000000E+00 -0.00000000000E+00 -0.53483667280E+02  0.53483667280E+02  0.00000000000E+00 0. -1.
          6    2    1    2  501    0  0.83758804072E+02  0.13956461877E+03  0.98047517423E+03  0.10087780461E+04  0.17264923662E+03 0.  0.
         24    2    3    3    0    0  0.21662518454E+02  0.15885497753E+01  0.41615127918E+03  0.42450337366E+03  0.80928603684E+02 0.  0.
         -6    2    1    2    0  502 -0.83758804072E+02 -0.13956461877E+03  0.33425492606E+03  0.41291938877E+03  0.17967260769E+03 0.  0.
        -24    2    5    5    0    0 -0.30932319889E+02 -0.15171444803E+03  0.18226732997E+03  0.25148650752E+03  0.77781757090E+02 0.  0.
          5    1    3    3  501    0  0.62096285618E+02  0.13797606900E+03  0.56432389505E+03  0.58427467242E+03  0.47000000000E+01 0. -1.
        -13    1    4    4    0    0  0.34466963344E+02 -0.13094575939E+02  0.39077782308E+03  0.39251337110E+03  0.00000000000E+00 0.  1.
         14    1    4    4    0    0 -0.12804444890E+02  0.14683125714E+02  0.25373456099E+02  0.31990002565E+02  0.00000000000E+00 0. -1.
         -5    1    5    5    0  502 -0.52826484183E+02  0.12149829259E+02  0.15198759609E+03  0.16143288125E+03  0.47000000000E+01 0.  1.
         13    1    6    6    0    0  0.14718865149E+02 -0.87679356400E+02  0.64350117676E+02  0.10975086412E+03  0.00000000000E+00 0. -1.
        -14    1    6    6    0    0 -0.45651185038E+02 -0.64035091630E+02  0.11791721229E+03  0.14173564340E+03  0.00000000000E+00 0.  1.
</event>
<event>
12    1  0.1615162E-001  0.1793370E+03  0.7818608E-02  0.1169016E+00
         21   -1    0    0  501  502  0.00000000000E+00  0.00000000000E+00  0.65300842170E+03  0.65300842170E+03  0.00000000000E+00 0.  1.
         21   -1    0    0  502  503 -0.00000000000E+00 -0.00000000000E+00 -0.29489126951E+03  0.29489126951E+03  0.00000000000E+00 0.  1.
         -6    2    1    2    0  503 -0.34173759209E+02  0.24912274213E+02 -0.25387179617E+03  0.31082573707E+03  0.17427932380E+03 0.  0.
        -24    2    3    3    0    0 -0.89397924134E+01  0.33821707824E+02 -0.26683736299E+03  0.28072047157E+03  0.79862238046E+02 0.  0.
          6    2    1    2  501    0  0.34173759209E+02 -0.24912274213E+02  0.61198894836E+03  0.63707395415E+03  0.17188450457E+03 0.  0.
         24    2    5    5    0    0 -0.38465371883E+02  0.94895395403E+01  0.41300537145E+03  0.42241962264E+03  0.79342703187E+02 0.  0.
          5    1    5    5  501    0  0.72639131092E+02 -0.34401813753E+02  0.19898357692E+03  0.21465433151E+03  0.47000000000E+01 0. -1.
        -13    1    6    6    0    0  0.18906960127E+01  0.27598960422E+02  0.29670067374E+03  0.29798752851E+03  0.00000000000E+00 0.  1.
         14    1    6    6    0    0 -0.40356067895E+02 -0.18109420882E+02  0.11630469771E+03  0.12443209413E+03  0.00000000000E+00 0. -1.
         -5    1    3    3    0  503 -0.25233966796E+02 -0.89094336106E+01  0.12965566814E+02  0.30105265491E+02  0.47000000000E+01 0.  1.
         11    1    4    4    0    0  0.22539852500E+02  0.15827993364E+02 -0.28473462494E+02  0.39614497233E+02  0.00000000000E+00 0. -1.
        -12    1    4    4    0    0 -0.31479644913E+02  0.17993714460E+02 -0.23836390049E+03  0.24110597434E+03  0.00000000000E+00 0.  1.
</event>
<event>
12    1  0.1615162E-001  0.1859099E+03  0.7818608E-02  0.1162336E+00
         21   -1    0    0  501  502  0.00000000000E+00  0.00000000000E+00  0.11828410766E+03  0.11828410766E+03  0.00000000000E+00 0. -1.
         21   -1    0    0  502  503 -0.00000000000E+00 -0.00000000000E+00 -0.31364520422E+03  0.31364520422E+03  0.00000000000E+00 0. -1.
         -6    2    1    2    0  503  0.97949923376E+01  0.50388198217E+02 -0.15518876718E+03  0.24172857218E+03  0.17808491446E+03 0.  0.
        -24    2    3    3    0    0 -0.10767510663E+02 -0.38587235531E+02 -0.56197750394E+02  0.10696672393E+03  0.81723796092E+02 0.  0.
          6    2    1    2  501    0 -0.97949923376E+01 -0.50388198217E+02 -0.40172329388E+02  0.19020073970E+03  0.17868293969E+03 0.  0.
         24    2    5    5    0    0 -0.13466893489E+02 -0.10257401017E+03 -0.37644389995E+02  0.13761440777E+03  0.82570214643E+02 0.  0.
          5    1    5    5  501    0  0.36719011509E+01  0.52185811954E+02 -0.25279393938E+01  0.52586331921E+02  0.47000000000E+01 0. -1.
        -13    1    6    6    0    0  0.25771451288E+02 -0.25650719828E+02  0.11650419947E+02  0.38181925229E+02  0.00000000000E+00 0.  1.
         14    1    6    6    0    0 -0.39238344777E+02 -0.76923290343E+02 -0.49294809942E+02  0.99432482546E+02  0.00000000000E+00 0. -1.
         -5    1    3    3    0  503  0.20562503001E+02  0.88975433749E+02 -0.98991016781E+02  0.13476184825E+03  0.47000000000E+01 0.  1.
         11    1    4    4    0    0  0.32012623662E+02 -0.30902848332E+02 -0.42146242464E+02  0.61287028502E+02  0.00000000000E+00 0. -1.
        -12    1    4    4    0    0 -0.42780134325E+02 -0.76843871992E+01 -0.14051507930E+02  0.45679695431E+02  0.00000000000E+00 0.  1.
</event>
<event>
12    1  0.1615162E-001  0.1924506E+03  0.7818608E-02  0.1156315E+00
         21   -1    0    0  503  502  0.00000000000E+00  0.00000000000E+00  0.21062827797E+03  0.21062827797E+03  0.00000000000E+00 0.  1.
         21   -1    0    0  501  503 -0.00000000000E+00 -0.00000000000E+00 -0.17785774196E+03  0.17785774196E+03  0.00000000000E+00 0.  1.
          6    2    1    2  501    0 -0.59005137871E+02  0.61253620379E+02 -0.52349563179E+01  0.19231865259E+03  0.17241069300E+03 0.  0.
         24    2    3    3    0    0 -0.52983960363E+02  0.97122746005E+02 -0.40711843094E+02  0.14129367589E+03  0.77886589545E+02 0.  0.
         -6    2    1    2    0  502  0.59005137871E+02 -0.61253620379E+02  0.38005492334E+02  0.19616736734E+03  0.17263720994E+03 0.  0.
        -24    2    5    5    0    0  0.27016224662E+01  0.26057442473E+02  0.41544021484E+02  0.92110081522E+02  0.77923503031E+02 0.  0.
          5    1    3    3  501    0 -0.60211775083E+01 -0.35869125626E+02  0.35476886776E+02  0.51024976698E+02  0.47000000000E+01 0. -1.
        -11    1    4    4    0    0  0.16010296486E+02  0.27264871474E+02  0.66069867353E+01  0.32301007473E+02  0.00000000000E+00 0.  1.
         12    1    4    4    0    0 -0.68994256849E+02  0.69857874531E+02 -0.47318829829E+02  0.10899266842E+03  0.00000000000E+00 0. -1.
         -5    1    5    5    0  502  0.56303515405E+02 -0.87311062852E+02 -0.35385291499E+01  0.10405728582E+03  0.47000000000E+01 0.  1.
         13    1    6    6    0    0  0.32237567876E+02  0.22657848938E+02 -0.19200356195E+01  0.39450290719E+02  0.00000000000E+00 0. -1.
        -14    1    6    6    0    0 -0.29535945410E+02  0.33995935351E+01  0.43464057103E+02  0.52659790802E+02  0.00000000000E+00 0.  1.
</event>
<event>
12    1  0.1615162E-001  0.1935042E+03  0.7818608E-02  0.1155776E+00
         21   -1    0    0  503  502  0.00000000000E+00  0.00000000000E+00  0.31632411566E+03  0.31632411566E+03  0.00000000000E+00 0. -1.
         21   -1    0    0  501  503 -0.00000000000E+00 -0.00000000000E+00 -0.15132311394E+03  0.15132311394E+03  0.00000000000E+00 0. -1.
          6    2    1    2  501    0  0.77240391017E+02 -0.46010307229E+02  0.19392024143E+03  0.27395059641E+03  0.17135005942E+03 0.  0.
         24    2    3    3    0    0  0.45679632569E+02 -0.88570580120E+01  0.21418094808E+02  0.94630976764E+02  0.79568905170E+02 0.  0.
         -6    2    1    2    0  502 -0.77240391017E+02  0.46010307229E+02 -0.28919239711E+02  0.19369663319E+03  0.16911249779E+03 0.  0.
        -24    2    5    5    0    0 -0.39731825345E+02  0.93723441621E+02 -0.29007242187E+02  0.13282354031E+03  0.80236969702E+02 0.  0.
          5    1    3    3  501    0  0.31560758448E+02 -0.37153249217E+02  0.17250214662E+03  0.17931961964E+03  0.47000000000E+01 0. -1.
        -13    1    4    4    0    0  0.15416752402E+02  0.33097990444E+02  0.22501235535E+02  0.42888912631E+02  0.00000000000E+00 0.  1.
         14    1    4    4    0    0  0.30262880167E+02 -0.41955048456E+02 -0.10831407267E+01  0.51742064133E+02  0.00000000000E+00 0. -1.
         -5    1    5    5    0  502 -0.37508565672E+02 -0.47713134392E+02  0.88002476639E-01  0.60873092879E+02  0.47000000000E+01 0.  1.
         11    1    6    6    0    0  0.18465687358E+02  0.56198719318E+02 -0.22434437483E+02  0.63265959629E+02  0.00000000000E+00 0. -1.
        -12    1    6    6    0    0 -0.58197512703E+02  0.37524722303E+02 -0.65728047047E+01  0.69557580682E+02  0.00000000000E+00 0.  1.
</event>
<event>
12    1  0.1615162E-001  0.2237998E+03  0.7818608E-02  0.1131358E+00
         21   -1    0    0  503  502  0.00000000000E+00  0.00000000000E+00  0.82935381157E+02  0.82935381157E+02  0.00000000000E+00 0. -1.
         21   -1    0    0  501  503 -0.00000000000E+00 -0.00000000000E+00 -0.11918274254E+04  0.11918274254E+04  0.00000000000E+00 0. -1.
          6    2    1    2  501    0 -0.13323122562E+03  0.44031015391E+02 -0.10046000079E+04  0.10292266704E+04  0.17434756502E+03 0.  0.
         24    2    3    3    0    0 -0.12779885304E+03  0.89990170011E+02 -0.84464977262E+03  0.86264959417E+03  0.79374469415E+02 0.  0.
         -6    2    1    2    0  502  0.13323122562E+03 -0.44031015391E+02 -0.10429203635E+03  0.24553613615E+03  0.17240033501E+03 0.  0.
        -24    2    5    5    0    0  0.22674709457E+02 -0.35568368117E+02  0.42490198091E+01  0.90302085318E+02  0.79731807857E+02 0.  0.
          5    1    3    3  501    0 -0.54323725741E+01 -0.45959154620E+02 -0.15995023526E+03  0.16657707623E+03  0.47000000000E+01 0. -1.
        -13    1    4    4    0    0 -0.34954372171E+02  0.30314347876E+02 -0.10408245851E+03  0.11390314303E+03  0.00000000000E+00 0.  1.
         14    1    4    4    0    0 -0.92844480872E+02  0.59675822135E+02 -0.74056731410E+03  0.74874645114E+03  0.00000000000E+00 0. -1.
         -5    1    5    5    0  502  0.11055651616E+03 -0.84626472741E+01 -0.10854105616E+03  0.15523405083E+03  0.47000000000E+01 0.  1.
         13    1    6    6    0    0  0.25183680708E+02 -0.55072617583E+02  0.21380979302E+02  0.64221158953E+02  0.00000000000E+00 0. -1.
        -14    1    6    6    0    0 -0.25089712514E+01  0.19504249466E+02 -0.17131959493E+02  0.26080926365E+02  0.00000000000E+00 0.  1.
</event>
<event>
12    1  0.1615162E-001  0.1851954E+03  0.7818608E-02  0.1163283E+00
         21   -1    0    0  503  502  0.00000000000E+00  0.00000000000E+00  0.47007154682E+03  0.47007154682E+03  0.00000000000E+00 0. -1.
         21   -1    0    0  501  503 -0.00000000000E+00 -0.00000000000E+00 -0.84749314694E+02  0.84749314694E+02  0.00000000000E+00 0. -1.
          6    2    1    2  501    0 -0.13136880034E+02  0.67840061411E+02  0.85396225372E+02  0.20232553798E+03  0.16990661100E+03 0.  0.
         24    2    3    3    0    0 -0.31296522114E+02  0.35510951804E+02  0.11815076065E+03  0.15262751479E+03  0.84232155580E+02 0.  0.
         -6    2    1    2    0  502  0.13136880034E+02 -0.67840061411E+02  0.29992600676E+03  0.35249532354E+03  0.17182110475E+03 0.  0.
        -24    2    5    5    0    0 -0.53717806946E+02 -0.66342523382E+02  0.20715679550E+03  0.23804005564E+03  0.80387791219E+02 0.  0.
          5    1    3    3  501    0  0.18159642080E+02  0.32329109607E+02 -0.32754535275E+02  0.49698023195E+02  0.47000000000E+01 0. -1.
        -11    1    4    4    0    0 -0.47118296968E+02 -0.30750147988E+01  0.91980560065E+02  0.10339251934E+03  0.00000000000E+00 0.  1.
         12    1    4    4    0    0  0.15821774854E+02  0.38585966603E+02  0.26170200582E+02  0.49234995448E+02  0.00000000000E+00 0. -1.
         -5    1    5    5    0  502  0.66854686979E+02 -0.14975380289E+01  0.92769211261E+02  0.11445526790E+03  0.47000000000E+01 0.  1.
         13    1    6    6    0    0 -0.16820378611E+02 -0.75520365936E+02  0.11787247879E+03  0.14099706402E+03  0.00000000000E+00 0. -1.
        -14    1    6    6    0    0 -0.36897428335E+02  0.91778425543E+01  0.89284316711E+02  0.97042991619E+02  0.00000000000E+00 0.  1.
</event>
<event>
12    1  0.1615162E-001  0.1931621E+03  0.7818608E-02  0.1155923E+00
         21   -1    0    0  501  502  0.00000000000E+00  0.00000000000E+00  0.10514891322E+04  0.10514891322E+04  0.00000000000E+00 0. -1.
         21   -1    0    0  502  503 -0.00000000000E+00 -0.00000000000E+00 -0.46153177091E+02  0.46153177091E+02  0.00000000000E+00 0.  1.
         -6    2    1    2    0  503  0.48923971195E+02  0.71524721567E+02  0.23464022505E+03  0.30310878467E+03  0.17120034865E+03 0.  0.
        -24    2    3    3    0    0  0.69833176670E+02  0.47914521219E+02  0.24344910906E+03  0.27002823341E+03  0.80469275068E+02 0.  0.
          6    2    1    2  501    0 -0.48923971195E+02 -0.71524721567E+02  0.77069573007E+03  0.79453352463E+03  0.17263334748E+03 0.  0.
         24    2    5    5    0    0 -0.76555894202E+02 -0.13213165959E+02  0.62993604221E+03  0.63961696511E+03  0.79088887302E+02 0.  0.
          5    1    5    5  501    0  0.27631923007E+02 -0.58311555608E+02  0.14075968786E+03  0.15491655952E+03  0.47000000000E+01 0. -1.
        -11    1    6    6    0    0 -0.84516878500E+02  0.55341376678E+01  0.40505863086E+03  0.41381907141E+03  0.00000000000E+00 0.  1.
         12    1    6    6    0    0  0.79609842974E+01 -0.18747303627E+02  0.22487741135E+03  0.22579789370E+03  0.00000000000E+00 0. -1.
         -5    1    3    3    0  503 -0.20909205475E+02  0.23610200347E+02 -0.88088840095E+01  0.33080551258E+02  0.47000000000E+01 0.  1.
         11    1    4    4    0    0  0.33570375117E+02 -0.20321321900E+02  0.91478318414E+02  0.99539986684E+02  0.00000000000E+00 0. -1.
        -12    1    4    4    0    0  0.36262801553E+02  0.68235843119E+02  0.15197079064E+03  0.17048824672E+03  0.00000000000E+00 0.  1.
</event>
<event>
12    1  0.1615162E-001  0.1891029E+03  0.7818608E-02  0.1159309E+00
         21   -1    0    0  503  502  0.00000000000E+00  0.00000000000E+00  0.23511985593E+03  0.23511985593E+03  0.00000000000E+00 0. -1.
         21   -1    0    0  501  503 -0.00000000000E+00 -0.00000000000E+00 -0.33542012972E+03  0.33542012972E+03  0.00000000000E+00 0. -1.
          6    2    1    2  501    0  0.78369917662E+02 -0.27540479315E+01 -0.26111326799E+03  0.32230477581E+03  0.17190346425E+03 0.  0.
         24    2    3    3    0    0  0.70862821151E+02 -0.35089634980E+02 -0.26820799763E+03  0.28803566616E+03  0.69110007125E+02 0.  0.
         -6    2    1    2    0  502 -0.78369917662E+02  0.27540479315E+01  0.16081299420E+03  0.24823520984E+03  0.17207693490E+03 0.  0.
        -24    2    5    5    0    0 -0.10643497193E+03 -0.38600975040E+02  0.12653696864E+03  0.18745016954E+03  0.79419916303E+02 0.  0.
          5    1    3    3  501    0  0.75070965119E+01  0.32335587049E+02  0.70947296398E+01  0.34269109654E+02  0.47000000000E+01 0. -1.
        -11    1    4    4    0    0  0.13504952281E+01 -0.24701905086E+02 -0.13673674423E+03  0.13895663055E+03  0.00000000000E+00 0.  1.
         12    1    4    4    0    0  0.69512325922E+02 -0.10387729894E+02 -0.13147125340E+03  0.14907903561E+03  0.00000000000E+00 0. -1.
         -5    1    5    5    0  502  0.28065054263E+02  0.41355022971E+02  0.34276025559E+02  0.60785040297E+02  0.47000000000E+01 0.  1.
         11    1    6    6    0    0 -0.16931942046E+02  0.20045533079E+02  0.72941393404E+01  0.27234509846E+02  0.00000000000E+00 0. -1.
        -12    1    6    6    0    0 -0.89503029880E+02 -0.58646508118E+02  0.11924282930E+03  0.16021565970E+03  0.00000000000E+00 0.  1.
</event>
<event>
12    1  0.1615162E-001  0.1897799E+03  0.7818608E-02  0.1158718E+00
         21   -1    0    0  503  502  0.00000000000E+00  0.00000000000E+00  0.26536830895E+02  0.26536830895E+02  0.00000000000E+00 0. -1.
         21   -1    0    0  501  503 -0.00000000000E+00 -0.00000000000E+00 -0.14769544179E+04  0.14769544179E+04  0.00000000000E+00 0. -1.
          6    2    1    2  501    0 -0.56218962721E+02 -0.57756812910E+02 -0.94132937207E+03  0.96026943549E+03  0.17181379691E+03 0.  0.
         24    2    3    3    0    0 -0.49686644823E+02  0.82581102688E+01 -0.27500449271E+03  0.29063403012E+03  0.79395902912E+02 0.  0.
         -6    2    1    2    0  502  0.56218962721E+02  0.57756812910E+02 -0.50908821493E+03  0.54322181330E+03  0.17153048317E+03 0.  0.
        -24    2    5    5    0    0 -0.90143058179E+00 -0.27434666137E+02 -0.17619373766E+03  0.19485254021E+03  0.78548111079E+02 0.  0.
          5    1    3    3  501    0 -0.65323178978E+01 -0.66014923179E+02 -0.66632487936E+03  0.66963540536E+03  0.47000000000E+01 0. -1.
        -11    1    4    4    0    0 -0.16584815656E+01  0.20534527213E+02 -0.13868651953E+02  0.24834590312E+02  0.00000000000E+00 0.  1.
         12    1    4    4    0    0 -0.48028163258E+02 -0.12276416945E+02 -0.26113584075E+03  0.26579943981E+03  0.00000000000E+00 0. -1.
         -5    1    5    5    0  502  0.57120393303E+02  0.85191479047E+02 -0.33289447727E+03  0.34836927308E+03  0.47000000000E+01 0.  1.
         13    1    6    6    0    0  0.20191285943E+02 -0.49015622344E+02 -0.11421307491E+03  0.12591602655E+03  0.00000000000E+00 0. -1.
        -14    1    6    6    0    0 -0.21092716524E+02  0.21580956207E+02 -0.61980662755E+02  0.68936513668E+02  0.00000000000E+00 0.  1.
</event>
<event>
12    1  0.1615162E-001  0.3959892E+03  0.7818608E-02  0.1045256E+00
         21   -1    0    0  501  502  0.00000000000E+00  0.00000000000E+00  0.18445730792E+04  0.18445730792E+04  0.00000000000E+00 0. -1.
         21   -1    0    0  502  503 -0.00000000000E+00 -0.00000000000E+00 -0.89362056871E+02  0.89362056871E+02  0.00000000000E+00 0. -1.
         -6    2    1    2    0  503 -0.18452344856E+03  0.30445957185E+03  0.10966204235E+04  0.11659261681E+04  0.17338668416E+03 0.  0.
        -24    2    3    3    0    0 -0.14433986163E+03  0.12864199136E+03  0.69053355992E+03  0.72156688436E+03  0.80245957075E+02 0.  0.
          6    2    1    2  501    0  0.18452344856E+03 -0.30445957185E+03  0.65859059884E+03  0.76800896798E+03  0.17132327357E+03 0.  0.
         24    2    5    5    0    0  0.17484723754E+03 -0.16662413577E+03  0.36333172059E+03  0.44198422708E+03  0.70745732748E+02 0.  0.
          5    1    5    5  501    0  0.96762110245E+01 -0.13783543608E+03  0.29525887825E+03  0.32602474090E+03  0.47000000000E+01 0. -1.
        -11    1    6    6    0    0  0.18193311314E+02 -0.19351122008E+00  0.89161906081E+01  0.20261601075E+02  0.00000000000E+00 0.  1.
         12    1    6    6    0    0  0.15665392623E+03 -0.16643062455E+03  0.35441552998E+03  0.42172262600E+03  0.00000000000E+00 0. -1.
         -5    1    3    3    0  503 -0.40183586933E+02  0.17581758049E+03  0.40608686354E+03  0.44435928370E+03  0.47000000000E+01 0.  1.
         13    1    4    4    0    0 -0.15230080080E+02  0.46739749260E+02  0.98184363362E+02  0.10980313615E+03  0.00000000000E+00 0. -1.
        -14    1    4    4    0    0 -0.12910978155E+03  0.81902242097E+02  0.59234919656E+03  0.61176374820E+03  0.00000000000E+00 0.  1.
</event>
<event>
12    1  0.1615162E-001  0.1746340E+03  0.7818608E-02  0.1173428E+00
         21   -1    0    0  501  502  0.00000000000E+00  0.00000000000E+00  0.47069207356E+03  0.47069207356E+03  0.00000000000E+00 0. -1.
         21   -1    0    0  502  503 -0.00000000000E+00 -0.00000000000E+00 -0.13715110646E+03  0.13715110646E+03  0.00000000000E+00 0. -1.
         -6    2    1    2    0  503  0.98435840720E+01 -0.19773153714E+02 -0.55008910586E+02  0.18185250665E+03  0.17191998189E+03 0.  0.
        -24    2    3    3    0    0  0.49634522522E+02 -0.63560516151E+02 -0.32053915792E+02  0.11821546022E+03  0.80274008733E+02 0.  0.
          6    2    1    2  501    0 -0.98435840720E+01  0.19773153714E+02  0.38854987769E+03  0.42599067338E+03  0.17323155774E+03 0.  0.
         24    2    5    5    0    0  0.24769541918E+02  0.37749322926E+01  0.37664071162E+03  0.38576717507E+03  0.79563228910E+02 0.  0.
          5    1    5    5  501    0 -0.34613125990E+02  0.15998221422E+02  0.11909166072E+02  0.40223498306E+02  0.47000000000E+01 0. -1.
        -13    1    6    6    0    0  0.37574047484E+02  0.20728565750E+02  0.10690702819E+03  0.11519806925E+03  0.00000000000E+00 0.  1.
         14    1    6    6    0    0 -0.12804505566E+02 -0.16953633458E+02  0.26973368343E+03  0.27056910582E+03  0.00000000000E+00 0. -1.
         -5    1    3    3    0  503 -0.39790938450E+02  0.43787362437E+02 -0.22954994794E+02  0.63637046427E+02  0.47000000000E+01 0.  1.
         13    1    4    4    0    0  0.48399506155E+00  0.14364078161E+02 -0.20967474763E+02  0.25420385335E+02  0.00000000000E+00 0. -1.
        -14    1    4    4    0    0  0.49150527461E+02 -0.77924594312E+02 -0.11086441029E+02  0.92795074886E+02  0.00000000000E+00 0.  1.
</event>
<event>
12    1  0.1615162E-001  0.2348867E+03  0.7818608E-02  0.1123568E+00
         21   -1    0    0  503  502  0.00000000000E+00  0.00000000000E+00  0.65253176608E+02  0.65253176608E+02  0.00000000000E+00 0.  1.
         21   -1    0    0  501  503 -0.00000000000E+00 -0.00000000000E+00 -0.85679471696E+03  0.85679471696E+03  0.00000000000E+00 0.  1.
          6    2    1    2  501    0  0.23659277902E+02 -0.15747909052E+03 -0.33050847518E+03  0.40547210855E+03  0.17266254160E+03 0.  0.
         24    2    3    3    0    0 -0.41131119914E+02 -0.12192656994E+03 -0.27027613769E+03  0.31001634997E+03  0.80641733361E+02 0.  0.
         -6    2    1    2    0  502 -0.23659277902E+02  0.15747909052E+03 -0.46103306518E+03  0.51657578502E+03  0.17011651624E+03 0.  0.
        -24    2    5    5    0    0 -0.30935305013E+02  0.87754785885E+02 -0.41686440141E+03  0.43358554411E+03  0.74582835524E+02 0.  0.
          5    1    3    3  501    0  0.64790397815E+02 -0.35552520578E+02 -0.60232337487E+02  0.95455758588E+02  0.47000000000E+01 0. -1.
        -11    1    4    4    0    0 -0.50234789123E+02 -0.11537751395E+03 -0.18340923539E+03  0.22242853322E+03  0.00000000000E+00 0.  1.
         12    1    4    4    0    0  0.91036692090E+01 -0.65490559898E+01 -0.86866902301E+02  0.87587816749E+02  0.00000000000E+00 0. -1.
         -5    1    5    5    0  502  0.72760271115E+01  0.69724304633E+02 -0.44168663771E+02  0.82990240910E+02  0.47000000000E+01 0.  1.
         13    1    6    6    0    0  0.12828642476E+01  0.77120439043E+02 -0.35235422952E+03  0.36069753385E+03  0.00000000000E+00 0. -1.
        -14    1    6    6    0    0 -0.32218169261E+02  0.10634346842E+02 -0.64510171884E+02  0.72888010261E+02  0.00000000000E+00 0.  1.
</event>
<event>
12    1  0.1615162E-001  0.1775292E+03  0.7818608E-02  0.1170290E+00
         21   -1    0    0  503  502  0.00000000000E+00  0.00000000000E+00  0.16949721433E+03  0.16949721433E+03  0.00000000000E+00 0.  1.
         21   -1    0    0  501  503 -0.00000000000E+00 -0.00000000000E+00 -0.35179166143E+03  0.35179166143E+03  0.00000000000E+00 0. -1.
          6    2    1    2  501    0  0.18237712721E+02 -0.41942939569E+02 -0.27032002021E+03  0.32340306171E+03  0.17153659276E+03 0.  0.
         24    2    3    3    0    0  0.13986256756E+02  0.31041588920E+02 -0.21303608480E+03  0.23040652666E+03  0.80892511887E+02 0.  0.
         -6    2    1    2    0  502 -0.18237712721E+02  0.41942939569E+02  0.88025573101E+02  0.19788581405E+03  0.17122636928E+03 0.  0.
        -24    2    5    5    0    0 -0.79452843948E+02  0.36895056098E+02  0.75285318886E+02  0.13497971342E+03  0.69840133303E+02 0.  0.
          5    1    3    3  501    0  0.42514559651E+01 -0.72984528489E+02 -0.57283935409E+02  0.92996535057E+02  0.47000000000E+01 0. -1.
        -11    1    4    4    0    0 -0.18627969636E+02 -0.19791694310E+02 -0.59277856518E+02  0.65211783366E+02  0.00000000000E+00 0.  1.
         12    1    4    4    0    0  0.32614226393E+02  0.50833283230E+02 -0.15375822828E+03  0.16519474329E+03  0.00000000000E+00 0. -1.
         -5    1    5    5    0  502  0.61215131227E+02  0.50478834714E+01  0.12740254215E+02  0.62906100627E+02  0.47000000000E+01 0.  1.
         13    1    6    6    0    0  0.24497059975E+01  0.57770003982E+01 -0.10582316402E+02  0.12302853876E+02  0.00000000000E+00 0. -1.
        -14    1    6    6    0    0 -0.81902549946E+02  0.31118055700E+02  0.85867635288E+02  0.12267685955E+03  0.00000000000E+00 0.  1.
</event>
<event>
12    1  0.1615162E-001  0.2269256E+03  0.7818608E-02  0.1128924E+00
         21   -1    0    0  501  502  0.00000000000E+00  0.00000000000E+00  0.53769102008E+03  0.53769102008E+03  0.00000000000E+00 0. -1.
         21   -1    0    0  502  503 -0.00000000000E+00 -0.00000000000E+00 -0.30247743482E+03  0.30247743482E+03  0.00000000000E+00 0. -1.
         -6    2    1    2    0  503 -0.79956621276E+01 -0.14766457713E+03 -0.22990842664E+03  0.32264190231E+03  0.17138014627E+03 0.  0.
        -24    2    3    3    0    0 -0.61054188607E+02 -0.77464504041E+02 -0.81264715921E+02  0.14984057063E+03  0.78229656911E+02 0.  0.
          6    2    1    2  501    0  0.79956621276E+01  0.14766457713E+03  0.46512201189E+03  0.51752655259E+03  0.17212346945E+03 0.  0.
         24    2    5    5    0    0  0.50206696410E+02  0.14795283229E+03  0.29988892427E+03  0.34692198714E+03  0.77528996598E+02 0.  0.
          5    1    5    5  501    0 -0.42211034282E+02 -0.28825516005E+00  0.16523308763E+03  0.17060456545E+03  0.47000000000E+01 0. -1.
        -13    1    6    6    0    0  0.16964078931E+02  0.15789260782E+01  0.82659764219E+01  0.18936719561E+02  0.00000000000E+00 0.  1.
         14    1    6    6    0    0  0.33242617480E+02  0.14637390622E+03  0.29162294784E+03  0.32798526758E+03  0.00000000000E+00 0. -1.
         -5    1    3    3    0  503  0.53058526480E+02 -0.70200073093E+02 -0.14864371072E+03  0.17280133168E+03  0.47000000000E+01 0.  1.
         13    1    4    4    0    0 -0.16818592067E+02 -0.30417802594E+02 -0.77752930371E+02  0.85168221392E+02  0.00000000000E+00 0. -1.
        -14    1    4    4    0    0 -0.44235596540E+02 -0.47046701447E+02 -0.35117855501E+01  0.64672349239E+02  0.00000000000E+00 0.  1.
</event>
<event>
12    1  0.1615162E-001  0.4017427E+03  0.7818608E-02  0.1043211E+00
         21   -1    0    0  503  502  0.00000000000E+00  0.00000000000E+00  0.69551868110E+03  0.69551868110E+03  0.00000000000E+00 0. -1.
         21   -1    0    0  501  503 -0.00000000000E+00 -0.00000000000E+00 -0.58620313265E+03  0.58620313265E+03  0.00000000000E+00 0.  1.
          6    2    1    2  501    0 -0.15719819844E+03 -0.32689033207E+03 -0.44360792134E+03  0.59848573874E+03  0.17270966624E+03 0.  0.
         24    2    3    3    0    0 -0.16970729514E+03 -0.33171719264E+03 -0.44273796419E+03  0.58425117136E+03  0.80595684678E+02 0.  0.
         -6    2    1    2    0  502  0.15719819844E+03  0.32689033207E+03  0.55292346978E+03  0.68323607500E+03  0.17180980170E+03 0.  0.
        -24    2    5    5    0    0  0.82460149623E+02  0.28983855785E+03  0.48454336184E+03  0.57527062185E+03  0.73129699577E+02 0.  0.
          5    1    3    3  501    0  0.12509096699E+02  0.48268605670E+01 -0.86995714996E+00  0.14234567384E+02  0.47000000000E+01 0. -1.
        -13    1    4    4    0    0 -0.32373174790E+00 -0.66201885407E+02 -0.72447652180E+02  0.98139985429E+02  0.00000000000E+00 0.  1.
         14    1    4    4    0    0 -0.16938356339E+03 -0.26551530723E+03 -0.37029031201E+03  0.48611118593E+03  0.00000000000E+00 0. -1.
         -5    1    5    5    0  502  0.74738048820E+02  0.37051774219E+02  0.68380107934E+02  0.10796545316E+03  0.47000000000E+01 0.  1.
         13    1    6    6    0    0  0.50058674170E+02  0.13450319071E+03  0.16632388347E+03  0.21968298383E+03  0.00000000000E+00 0. -1.
        -14    1    6    6    0    0  0.32401475453E+02  0.15533536714E+03  0.31821947837E+03  0.35558763802E+03  0.00000000000E+00 0.  1.
</event>
<event>
12    1  0.1615162E-001  0.1966106E+03  0.7818608E-02  0.1152890E+00
         21   -1    0    0  501  502  0.00000000000E+00  0.00000000000E+00  0.25440517130E+03  0.25440517130E+03  0.00000000000E+00 0.  1.
         21   -1    0    0  502  503 -0.00000000000E+00 -0.00000000000E+00 -0.16050872046E+03  0.16050872046E+03  0.00000000000E+00 0.  1.
         -6    2    1    2    0  503  0.64275149493E+02 -0.67808302005E+02 -0.36230829714E+01  0.19544686106E+03  0.17163067356E+03 0.  0.
        -24    2    3    3    0    0  0.11140895320E+03 -0.43378985826E+02 -0.51834898260E+00  0.14206038043E+03  0.76728037511E+02 0.  0.
          6    2    1    2  501    0 -0.64275149493E+02  0.67808302005E+02  0.97519533813E+02  0.21946703070E+03  0.17299265136E+03 0.  0.
         24    2    5    5    0    0 -0.92915788544E+02  0.23024993195E+02  0.20725333644E+02  0.12595088165E+03  0.79187063722E+02 0.  0.
          5    1    5    5  501    0  0.28640639051E+02  0.44783308810E+02  0.76794200169E+02  0.93516149049E+02  0.47000000000E+01 0. -1.
        -11    1    6    6    0    0 -0.66078363146E+02  0.37374518022E+02  0.43903429651E+02  0.87696726327E+02  0.00000000000E+00 0.  1.
         12    1    6    6    0    0 -0.26837425398E+02 -0.14349524827E+02 -0.23178096007E+02  0.38254155321E+02  0.00000000000E+00 0. -1.
         -5    1    3    3    0  503 -0.47133803703E+02 -0.24429316179E+02 -0.31047339888E+01  0.53386480626E+02  0.47000000000E+01 0.  1.
         13    1    4    4    0    0 -0.10654010648E+02 -0.11368365459E+02  0.27816222333E+01  0.15826721023E+02  0.00000000000E+00 0. -1.
        -14    1    4    4    0    0  0.12206296384E+03 -0.32010620367E+02 -0.32999712159E+01  0.12623365941E+03  0.00000000000E+00 0.  1.
</event>
<event>
12    1  0.1615162E-001  0.1871998E+03  0.7818608E-02  0.1162216E+00
         21   -1    0    0  501  502  0.00000000000E+00  0.00000000000E+00  0.11140217787E+03  0.11140217787E+03  0.00000000000E+00 0. -1.
         21   -1    0    0  502  503 -0.00000000000E+00 -0.00000000000E+00 -0.40849935727E+03  0.40849935727E+03  0.00000000000E+00 0. -1.
         -6    2    1    2    0  503 -0.14489301496E+02  0.66867682454E+02 -0.27722571611E+03  0.33164996832E+03  0.16869018052E+03 0.  0.
        -24    2    3    3    0    0 -0.46928613307E+02  0.85575718052E+02 -0.26330042078E+03  0.29142182648E+03  0.77936327180E+02 0.  0.
          6    2    1    2  501    0  0.14489301496E+02 -0.66867682454E+02 -0.19871463291E+02  0.18825156682E+03  0.17424853096E+03 0.  0.
         24    2    5    5    0    0  0.31995645482E+02  0.58229140585E+01 -0.57303190235E+02  0.10450421413E+03  0.81116259167E+02 0.  0.
          5    1    5    5  501    0 -0.17506343986E+02 -0.72690596513E+02  0.37431726944E+02  0.83747352694E+02  0.47000000000E+01 0. -1.
        -11    1    6    6    0    0  0.34917967433E+02  0.22233798758E+02  0.34180047322E+01  0.41536598479E+02  0.00000000000E+00 0.  1.
         12    1    6    6    0    0 -0.29223219511E+01 -0.16410884699E+02 -0.60721194967E+02  0.62967615648E+02  0.00000000000E+00 0. -1.
         -5    1    3    3    0  503  0.32439311811E+02 -0.18708035598E+02 -0.13925295323E+02  0.40228141848E+02  0.47000000000E+01 0.  1.
         13    1    4    4    0    0  0.14788211700E+02  0.19502300688E+02 -0.11625707198E+03  0.11880546167E+03  0.00000000000E+00 0. -1.
        -14    1    4    4    0    0 -0.61716825006E+02  0.66073417365E+02 -0.14704334880E+03  0.17261636481E+03  0.00000000000E+00 0.  1.
</event>
<event>
12    1  0.1615162E-001  0.2268859E+03  0.7818608E-02  0.1129593E+00
         21   -1    0    0  501  502  0.00000000000E+00  0.00000000000E+00  0.23170037033E+03  0.23170037033E+03  0.00000000000E+00 0. -1.
         21   -1    0    0  502  503 -0.00000000000E+00 -0.00000000000E+00 -0.11264956477E+04  0.11264956477E+04  0.00000000000E+00 0.  1.
         -6    2    1    2    0  503  0.13380870424E+03  0.49699501341E+02 -0.10579828967E+04  0.10820374485E+04  0.17635878318E+03 0.  0.
        -24    2    3    3    0    0  0.88288652233E+02  0.19098686054E+02 -0.31082959432E+03  0.33285881003E+03  0.77590623053E+02 0.  0.
          6    2    1    2  501    0 -0.13380870424E+03 -0.49699501341E+02  0.16318761936E+03  0.27615856954E+03  0.17105129832E+03 0.  0.
         24    2    5    5    0    0 -0.12037114979E+03 -0.35422754331E+02  0.43020395777E+02  0.15431175999E+03  0.78850362029E+02 0.  0.
          5    1    5    5  501    0 -0.13437554449E+02 -0.14276747010E+02  0.12016722358E+03  0.12184680955E+03  0.47000000000E+01 0. -1.
        -13    1    6    6    0    0 -0.14568365533E+02 -0.10061895452E+02 -0.21474737467E+02  0.27832415699E+02  0.00000000000E+00 0.  1.
         14    1    6    6    0    0 -0.10580278426E+03 -0.25360858880E+02  0.64495133244E+02  0.12647934429E+03  0.00000000000E+00 0. -1.
         -5    1    3    3    0  503  0.45520052010E+02  0.30600815287E+02 -0.74715330242E+03  0.74917863848E+03  0.47000000000E+01 0.  1.
         11    1    4    4    0    0  0.17442052532E+02 -0.11216500820E+02 -0.11383515035E+02  0.23656278273E+02  0.00000000000E+00 0. -1.
        -12    1    4    4    0    0  0.70846599701E+02  0.30315186874E+02 -0.29944607929E+03  0.30920253176E+03  0.00000000000E+00 0.  1.
</event>
<event>
12    1  0.1615162E-001  0.2148291E+03  0.7818608E-02  0.1137833E+00
         21   -1    0    0  503  502  0.00000000000E+00  0.00000000000E+00  0.36532943809E+03  0.36532943809E+03  0.00000000000E+00 0.  1.
         21   -1    0    0  501  503 -0.00000000000E+00 -0.00000000000E+00 -0.13589143673E+03  0.13589143673E+03  0.00000000000E+00 0.  1.
          6    2    1    2  501    0  0.79519565496E+02 -0.10157644155E+03  0.18161416303E+03  0.28130990123E+03  0.17178597597E+03 0.  0.
         24    2    3    3    0    0  0.15781786454E+02  0.12184720226E+02  0.45711478896E+02  0.92906780338E+02  0.78387488410E+02 0.  0.
         -6    2    1    2    0  502 -0.79519565496E+02  0.10157644155E+03  0.47823838332E+02  0.21991097360E+03  0.17155926679E+03 0.  0.
        -24    2    5    5    0    0 -0.50443143772E+00  0.59539582359E+02  0.77114638128E+02  0.12562136710E+03  0.79302232882E+02 0.  0.
          5    1    3    3  501    0  0.63737779042E+02 -0.11376116178E+03  0.13590268413E+03  0.18840312089E+03  0.47000000000E+01 0. -1.
        -11    1    4    4    0    0 -0.48921528679E+01  0.35293073614E+02  0.50218237629E+02  0.61574390743E+02  0.00000000000E+00 0.  1.
         12    1    4    4    0    0  0.20673939322E+02 -0.23108353389E+02 -0.45067587331E+01  0.31332389595E+02  0.00000000000E+00 0. -1.
         -5    1    5    5    0  502 -0.79015134058E+02  0.42036859193E+02 -0.29290799796E+02  0.94289606499E+02  0.47000000000E+01 0.  1.
         13    1    6    6    0    0 -0.33163123276E+02  0.40353780077E+02  0.69577626998E+02  0.87001531542E+02  0.00000000000E+00 0. -1.
        -14    1    6    6    0    0  0.32658691838E+02  0.19185802282E+02  0.75370111297E+01  0.38619835558E+02  0.00000000000E+00 0.  1.
</event>
<event>
12    1  0.1615162E-001  0.2679040E+03  0.7818608E-02  0.1102689E+00
         21   -1    0    0  501  502  0.00000000000E+00  0.00000000000E+00  0.92867865499E+03  0.92867865499E+03  0.00000000000E+00 0. -1.
         21   -1    0    0  502  503 -0.00000000000E+00 -0.00000000000E+00 -0.86470601577E+02  0.86470601577E+02  0.00000000000E+00 0.  1.
         -6    2    1    2    0  503  0.11405894270E+03  0.16955586181E+03  0.25106830966E+03  0.36613558582E+03  0.17105945868E+03 0.  0.
        -24    2    3    3    0    0  0.14386921273E+03  0.11255931069E+03  0.16412595270E+03  0.25788438503E+03  0.78734229537E+02 0.  0.
          6    2    1    2  501    0 -0.11405894270E+03 -0.16955586181E+03  0.59113974376E+03  0.64901367075E+03  0.17324524665E+03 0.  0.
         24    2    5    5    0    0 -0.93454759465E+02 -0.15760825172E+03  0.32761656883E+03  0.38437461188E+03  0.82686595113E+02 0.  0.
          5    1    5    5  501    0 -0.20604183240E+02 -0.11947610084E+02  0.26352317493E+03  0.26463905887E+03  0.47000000000E+01 0. -1.
        -13    1    6    6    0    0 -0.78669802355E+02 -0.80697690736E+02  0.13142741794E+03  0.17313064801E+03  0.00000000000E+00 0.  1.
         14    1    6    6    0    0 -0.14784957111E+02 -0.76910560987E+02  0.19618915089E+03  0.21124396388E+03  0.00000000000E+00 0. -1.
         -5    1    3    3    0  503 -0.29810270022E+02  0.56996551115E+02  0.86942356960E+02  0.10825120079E+03  0.47000000000E+01 0.  1.
         13    1    4    4    0    0  0.88419937256E+02  0.44412255584E+02  0.13059748827E+03  0.16384821541E+03  0.00000000000E+00 0. -1.
        -14    1    4    4    0    0  0.55449275470E+02  0.68147055109E+02  0.33528464422E+02  0.94036169619E+02  0.00000000000E+00 0.  1.
</event>
<event>
12    1  0.1615162E-001  0.2216742E+03  0.7818608E-02  0.1132810E+00
         21   -1    0    0  501  502  0.00000000000E+00  0.00000000000E+00  0.31347519690E+03  0.31347519690E+03  0.00000000000E+00 0.  1.
         21   -1    0    0  502  503 -0.00000000000E+00 -0.00000000000E+00 -0.31687817165E+03  0.31687817165E+03  0.00000000000E+00 0.  1.
         -6    2    1    2    0  503 -0.66299685402E+02 -0.11765074846E+03 -0.22619459608E+03  0.31606755730E+03  0.17463492945E+03 0.  0.
        -24    2    3    3    0    0 -0.88844972234E+02 -0.83020358720E+02 -0.23093726167E+03  0.27420902497E+03  0.84099711627E+02 0.  0.
          6    2    1    2  501    0  0.66299685402E+02  0.11765074846E+03  0.22279162133E+03  0.31428581125E+03  0.17578998186E+03 0.  0.
         24    2    5    5    0    0  0.54956954729E+02 -0.59184688603E+01  0.95197462740E+02  0.13623983878E+03  0.80271050892E+02 0.  0.
          5    1    5    5  501    0  0.11342730673E+02  0.12356921732E+03  0.12759415859E+03  0.17804597247E+03  0.47000000000E+01 0. -1.
        -11    1    6    6    0    0  0.96729821303E+01  0.22526156239E+02  0.75285732927E+02  0.79176611954E+02  0.00000000000E+00 0.  1.
         12    1    6    6    0    0  0.45283972599E+02 -0.28444625099E+02  0.19911729813E+02  0.57063226824E+02  0.00000000000E+00 0. -1.
         -5    1    3    3    0  503  0.22545286831E+02 -0.34630389736E+02  0.47426655922E+01  0.41858532326E+02  0.47000000000E+01 0.  1.
         11    1    4    4    0    0 -0.48769269143E+00 -0.61428920484E+00  0.71642021320E+01  0.72070096141E+01  0.00000000000E+00 0. -1.
        -12    1    4    4    0    0 -0.88357279542E+02 -0.82406069515E+02 -0.23810146380E+03  0.26700201536E+03  0.00000000000E+00 0.  1.
</event>
<event>
12    1  0.1615162E-001  0.1818272E+03  0.7818608E-02  0.1166226E+00
         21   -1    0    0  503  502  0.00000000000E+00  0.00000000000E+00  0.33219173593E+03  0.33219173593E+03  0.00000000000E+00 0.  1.
         21   -1    0    0  501  503 -0.00000000000E+00 -0.00000000000E+00 -0.12356905486E+03  0.12356905486E+03  0.00000000000E+00 0.  1.
          6    2    1    2  501    0  0.55719709944E+02  0.13530762680E+02  0.27637855519E+01  0.18109912501E+03  0.17175996901E+03 0.  0.
         24    2    3    3    0    0  0.33470423957E+02 -0.53701130718E+02 -0.25254062864E+02  0.10479546817E+03  0.79625634929E+02 0.  0.
         -6    2    1    2    0  502 -0.55719709944E+02 -0.13530762680E+02  0.20585889552E+03  0.27466166579E+03  0.17254963974E+03 0.  0.
        -24    2    5    5    0    0 -0.16603320069E+02 -0.68897164886E+02  0.88070674602E+02  0.13867752908E+03  0.80327602853E+02 0.  0.
          5    1    3    3  501    0  0.22249285987E+02  0.67231893398E+02  0.28017848415E+02  0.76303656837E+02  0.47000000000E+01 0. -1.
        -13    1    4    4    0    0  0.13378294955E+02  0.20118437641E+02 -0.12607698357E+02  0.27252235998E+02  0.00000000000E+00 0.  1.
         14    1    4    4    0    0  0.20092129002E+02 -0.73819568359E+02 -0.12646364507E+02  0.77543232173E+02  0.00000000000E+00 0. -1.
         -5    1    5    5    0  502 -0.39116389875E+02  0.55366402206E+02  0.11778822092E+03  0.13598413671E+03  0.47000000000E+01 0.  1.
         11    1    6    6    0    0  0.12002024531E+01  0.10367092541E+02 -0.77899360112E+01  0.13023064030E+02  0.00000000000E+00 0. -1.
        -12    1    6    6    0    0 -0.17803522522E+02 -0.79264257427E+02  0.95860610614E+02  0.12565446505E+03  0.00000000000E+00 0.  1.
</event>
<event>
12    1  0.1615162E-001  0.1877670E+03  0.7818608E-02  0.1160689E+00
         21   -1    0    0  501  502  0.00000000000E+00  0.00000000000E+00  0.34766612633E+02  0.34766612633E+02  0.00000000000E+00 0. -1.
         21   -1    0    0  502  503 -0.00000000000E+00 -0.00000000000E+00 -0.17215487625E+04  0.17215487625E+04  0.00000000000E+00 0. -1.
         -6    2    1    2    0  503 -0.42089405811E+02 -0.63881724532E+02 -0.14093211144E+04  0.14217744057E+04  0.17147613371E+03 0.  0.
        -24    2    3    3    0    0 -0.44589256788E+02 -0.72915707240E+02 -0.14061498861E+04  0.14108195535E+04  0.76481423583E+02 0.  0.
          6    2    1    2  501    0  0.42089405811E+02  0.63881724532E+02 -0.27746103546E+03  0.33454096941E+03  0.17053047003E+03 0.  0.
         24    2    5    5    0    0  0.17600674585E+02  0.36320292824E+02 -0.40736974751E+02  0.94916885914E+02  0.75635750166E+02 0.  0.
          5    1    5    5  501    0  0.24488731226E+02  0.27561431708E+02 -0.23672406071E+03  0.23962408350E+03  0.47000000000E+01 0. -1.
        -13    1    6    6    0    0 -0.22963498388E+02  0.14638785726E+02 -0.40641420488E+02  0.48921788245E+02  0.00000000000E+00 0.  1.
         14    1    6    6    0    0  0.40564172973E+02  0.21681507098E+02 -0.95554262488E-01  0.45995097669E+02  0.00000000000E+00 0. -1.
         -5    1    3    3    0  503  0.24998509769E+01  0.90339827079E+01 -0.31712283164E+01  0.10954852236E+02  0.47000000000E+01 0.  1.
         13    1    4    4    0    0 -0.29530758778E+02 -0.79466039093E+02 -0.80621088966E+03  0.81065585528E+03  0.00000000000E+00 0. -1.
        -14    1    4    4    0    0 -0.15058498010E+02  0.65503318532E+01 -0.59993899645E+03  0.60016369823E+03  0.00000000000E+00 0.  1.
</event>
<event>
12    1  0.1615162E-001  0.1933671E+03  0.7818608E-02  0.1155738E+00
         21   -1    0    0  501  502  0.00000000000E+00  0.00000000000E+00  0.29511016967E+02  0.29511016967E+02  0.00000000000E+00 0.  1.
         21   -1    0    0  502  503 -0.00000000000E+00 -0.00000000000E+00 -0.25287419243E+04  0.25287419243E+04  0.00000000000E+00 0.  1.
         -6    2    1    2    0  503 -0.65060216262E+02  0.59842330521E+02 -0.21581358529E+04  0.21667813007E+04  0.17197938594E+03 0.  0.
        -24    2    3    3    0    0 -0.10018504379E+03  0.64640423402E+02 -0.19753068633E+04  0.19804877027E+04  0.79239567895E+02 0.  0.
          6    2    1    2  501    0  0.65060216262E+02 -0.59842330521E+02 -0.34109505443E+03  0.39147164057E+03  0.17055870824E+03 0.  0.
         24    2    5    5    0    0  0.87613078202E+02 -0.87773148106E+02 -0.21754726128E+03  0.26272806076E+03  0.79492427419E+02 0.  0.
          5    1    5    5  501    0 -0.22552861940E+02  0.27930817586E+02 -0.12354779314E+03  0.12874357981E+03  0.47000000000E+01 0. -1.
        -13    1    6    6    0    0  0.82872985761E+01 -0.13580714296E+02  0.36322022510E+01  0.16318946402E+02  0.00000000000E+00 0.  1.
         14    1    6    6    0    0  0.79325779626E+02 -0.74192433810E+02 -0.22117946354E+03  0.24640911436E+03  0.00000000000E+00 0. -1.
         -5    1    3    3    0  503  0.35124827525E+02 -0.47980928812E+01 -0.18282898965E+03  0.18629359801E+03  0.47000000000E+01 0.  1.
         13    1    4    4    0    0  0.16149329468E+01  0.35960406404E+00 -0.57832720846E+03  0.57832957505E+03  0.00000000000E+00 0. -1.
        -14    1    4    4    0    0 -0.10179997673E+03  0.64280819338E+02 -0.13969796548E+04  0.14021581277E+04  0.00000000000E+00 0.  1.
</event>
<event>
12    1  0.1615162E-001  0.1866339E+03  0.7818608E-02  0.1161648E+00
         21   -1    0    0  501  502  0.00000000000E+00  0.00000000000E+00  0.22548106345E+03  0.22548106345E+03  0.00000000000E+00 0.  1.
         21   -1    0    0  502  503 -0.00000000000E+00 -0.00000000000E+00 -0.15413933927E+03  0.15413933927E+03  0.00000000000E+00 0.  1.
         -6    2    1    2    0  503  0.22211919437E+02 -0.67135296030E+02  0.31603280227E+02  0.18929076570E+03  0.17271858418E+03 0.  0.
        -24    2    3    3    0    0  0.68479271096E+02 -0.48516741801E+02 -0.18531367559E+02  0.11841840649E+03  0.81463013739E+02 0.  0.
          6    2    1    2  501    0 -0.22211919437E+02  0.67135296030E+02  0.39738443949E+02  0.19032963702E+03  0.17217929453E+03 0.  0.
         24    2    5    5    0    0 -0.68510580564E+02  0.38499449621E+02 -0.14914392822E+02  0.11304703686E+03  0.79882952863E+02 0.  0.
          5    1    5    5  501    0  0.46298661127E+02  0.28635846409E+02  0.54652836772E+02  0.77282600169E+02  0.47000000000E+01 0. -1.
        -11    1    6    6    0    0 -0.22735805043E+02  0.56684660367E+02 -0.18069726220E+02  0.63691306766E+02  0.00000000000E+00 0.  1.
         12    1    6    6    0    0 -0.45774775520E+02 -0.18185210746E+02  0.31553333978E+01  0.49355730089E+02  0.00000000000E+00 0. -1.
         -5    1    3    3    0  503 -0.46267351659E+02 -0.18618554229E+02  0.50134647786E+02  0.70872359208E+02  0.47000000000E+01 0.  1.
         13    1    4    4    0    0  0.46758482378E+02 -0.55292779842E+02 -0.43630147673E+02  0.84541332867E+02  0.00000000000E+00 0. -1.
        -14    1    4    4    0    0  0.21720788718E+02  0.67760380408E+01  0.25098780115E+02  0.33877073624E+02  0.00000000000E+00 0.  1.
</event>
<event>
12    1  0.1615162E-001  0.1766700E+03  0.7818608E-02  0.1171187E+00
         21   -1    0    0  503  502  0.00000000000E+00  0.00000000000E+00  0.16906567948E+04  0.16906567948E+04  0.00000000000E+00 0.  1.
         21   -1    0    0  501  503 -0.00000000000E+00 -0.00000000000E+00 -0.21411341882E+02  0.21411341882E+02  0.00000000000E+00 0.  1.
          6    2    1    2  501    0  0.23018542247E+02 -0.35068469376E+02  0.11561097825E+04  0.11695307268E+04  0.17161771748E+03 0.  0.
         24    2    3    3    0    0 -0.50016960179E+02 -0.40696270150E+02  0.64436884348E+03  0.65255225974E+03  0.80345270765E+02 0.  0.
         -6    2    1    2    0  502 -0.23018542247E+02  0.35068469376E+02  0.51313567045E+03  0.54253740990E+03  0.17111099910E+03 0.  0.
        -24    2    5    5    0    0 -0.79842846671E+02  0.30110382739E+02  0.29758172102E+03  0.31951458749E+03  0.79077023351E+02 0.  0.
          5    1    3    3  501    0  0.73035502426E+02  0.56278007741E+01  0.51174093902E+03  0.51697846708E+03  0.47000000000E+01 0. -1.
        -11    1    4    4    0    0 -0.72969387835E+01 -0.52711298551E+02  0.24422675006E+03  0.24995685979E+03  0.00000000000E+00 0.  1.
         12    1    4    4    0    0 -0.42720021396E+02  0.12015028401E+02  0.40014209342E+03  0.40259539995E+03  0.00000000000E+00 0. -1.
         -5    1    5    5    0  502  0.56824304424E+02  0.49580866370E+01  0.21555394944E+03  0.22302282241E+03  0.47000000000E+01 0.  1.
         11    1    6    6    0    0 -0.49697183773E+02 -0.20079423564E+02  0.10023582609E+03  0.11366711995E+03  0.00000000000E+00 0. -1.
        -12    1    6    6    0    0 -0.30145662898E+02  0.50189806303E+02  0.19734589493E+03  0.20584746754E+03  0.00000000000E+00 0.  1.
</event>
<event>
12    1  0.1615162E-001  0.2183469E+03  0.7818608E-02  0.1136693E+00
         21   -1    0    0  503  502  0.00000000000E+00  0.00000000000E+00  0.18762917145E+03  0.18762917145E+03  0.00000000000E+00 0.  1.
         21   -1    0    0  501  503 -0.00000000000E+00 -0.00000000000E+00 -0.24466202376E+03  0.24466202376E+03  0.00000000000E+00 0. -1.
          6    2    1    2  501    0  0.11745646068E+03 -0.12136963824E+02 -0.28209463149E+02  0.21205002437E+03  0.17385658739E+03 0.  0.
         24    2    3    3    0    0  0.96260327029E+02  0.33943500978E+02  0.30170525207E+02  0.13457100554E+03  0.82346117836E+02 0.  0.
         -6    2    1    2    0  502 -0.11745646068E+03  0.12136963824E+02 -0.28823389158E+02  0.22024117084E+03  0.18366289643E+03 0.  0.
        -24    2    5    5    0    0 -0.38943373758E+02 -0.61755724632E+02 -0.10478124034E+02  0.11077394753E+03  0.82648172905E+02 0.  0.
          5    1    3    3  501    0  0.21196133649E+02 -0.46080464803E+02 -0.58379988356E+02  0.77479018828E+02  0.47000000000E+01 0. -1.
        -11    1    4    4    0    0  0.98978581209E+02  0.31475539401E+02 -0.31698075129E+00  0.10386322542E+03  0.00000000000E+00 0.  1.
         12    1    4    4    0    0 -0.27182541803E+01  0.24679615770E+01  0.30487505958E+02  0.30707780117E+02  0.00000000000E+00 0. -1.
         -5    1    5    5    0  502 -0.78513086919E+02  0.73892688457E+02 -0.18345265124E+02  0.10946722330E+03  0.47000000000E+01 0.  1.
         13    1    6    6    0    0 -0.13909958855E+02  0.81579619526E+01 -0.29939305095E+02  0.34005900784E+02  0.00000000000E+00 0. -1.
        -14    1    6    6    0    0 -0.25033414903E+02 -0.69913686585E+02  0.19461181061E+02  0.76768046751E+02  0.00000000000E+00 0.  1.
</event>
<event>
12    1  0.1615162E-001  0.2365738E+03  0.7818608E-02  0.1125275E+00
         21   -1    0    0  501  502  0.00000000000E+00  0.00000000000E+00  0.28932569327E+03  0.28932569327E+03  0.00000000000E+00 0.  1.
         21   -1    0    0  502  503 -0.00000000000E+00 -0.00000000000E+00 -0.27807053999E+03  0.27807053999E+03  0.00000000000E+00 0. -1.
         -6    2    1    2    0  503 -0.12610858320E+03  0.47553817693E+02  0.17499527344E+03  0.29426267920E+03  0.19442849151E+03 0.  0.
        -24    2    3    3    0    0  0.93854806453E+01  0.67487893349E+01  0.14517337923E+02  0.80255788038E+02  0.78080759530E+02 0.  0.
          6    2    1    2  501    0  0.12610858320E+03 -0.47553817693E+02 -0.16374012015E+03  0.27313355407E+03  0.17212312766E+03 0.  0.
         24    2    5    5    0    0  0.22747501626E+02  0.30657587588E+02 -0.64981198351E+02  0.11011223112E+03  0.80279578946E+02 0.  0.
          5    1    5    5  501    0  0.10336108158E+03 -0.78211405281E+02 -0.98758921803E+02  0.16302132295E+03  0.47000000000E+01 0. -1.
        -13    1    6    6    0    0 -0.64901318066E+01 -0.23064630886E+02 -0.33878558260E+02  0.41495249349E+02  0.00000000000E+00 0.  1.
         14    1    6    6    0    0  0.29237633433E+02  0.53722218473E+02 -0.31102640091E+02  0.68616981769E+02  0.00000000000E+00 0. -1.
         -5    1    3    3    0  503 -0.13549406385E+03  0.40805028358E+02  0.16047793551E+03  0.21400689116E+03  0.47000000000E+01 0.  1.
         13    1    4    4    0    0 -0.29375597034E+02  0.14290664301E+02 -0.95211411803E+01  0.34026473762E+02  0.00000000000E+00 0. -1.
        -14    1    4    4    0    0  0.38761077679E+02 -0.75418749666E+01  0.24038479103E+02  0.46229314277E+02  0.00000000000E+00 0.  1.
</event>
<event>
12    1  0.1615162E-001  0.1974617E+03  0.7818608E-02  0.1151972E+00
         21   -1    0    0  501  502  0.00000000000E+00  0.00000000000E+00  0.21995072862E+04  0.21995072862E+04  0.00000000000E+00 0. -1.
         21   -1    0    0  502  503 -0.00000000000E+00 -0.00000000000E+00 -0.18442099110E+02  0.18442099110E+02  0.00000000000E+00 0. -1.
         -6    2    1    2    0  503 -0.92183357112E+02 -0.27460867551E+02  0.13143972199E+04  0.13291467824E+04  0.17245070854E+03 0.  0.
        -24    2    3    3    0    0 -0.48128872392E+02 -0.92253048506E+01  0.29683895549E+03  0.31046123481E+03  0.76624527516E+02 0.  0.
          6    2    1    2  501    0  0.92183357112E+02  0.27460867551E+02  0.86666796723E+03  0.88880260296E+03  0.17206054468E+03 0.  0.
         24    2    5    5    0    0  0.61473034405E+02  0.45182340633E+02  0.83101063253E+03  0.83829804825E+03  0.79652799407E+02 0.  0.
          5    1    5    5  501    0  0.30710322707E+02 -0.17721473083E+02  0.35657334699E+02  0.50504554714E+02  0.47000000000E+01 0. -1.
        -13    1    6    6    0    0  0.32075769317E+02 -0.20221316288E+02  0.24506235984E+03  0.24797846039E+03  0.00000000000E+00 0.  1.
         14    1    6    6    0    0  0.29397265088E+02  0.65403656921E+02  0.58594827269E+03  0.59031958785E+03  0.00000000000E+00 0. -1.
         -5    1    3    3    0  503 -0.44054484720E+02 -0.18235562700E+02  0.10175582644E+04  0.10186855475E+04  0.47000000000E+01 0.  1.
         11    1    4    4    0    0 -0.32139398196E+02 -0.95109549854E+01  0.29176457421E+03  0.29368344513E+03  0.00000000000E+00 0. -1.
        -12    1    4    4    0    0 -0.15989474196E+02  0.28565013477E+00  0.50743812768E+01  0.16777789676E+02  0.00000000000E+00 0.  1.
</event>
<event>
12    1  0.1615162E-001  0.1882976E+03  0.7818608E-02  0.1160294E+00
         21   -1    0    0  503  502  0.00000000000E+00  0.00000000000E+00  0.47327661511E+02  0.47327661511E+02  0.00000000000E+00 0. -1.
         21   -1    0    0  501  503 -0.00000000000E+00 -0.00000000000E+00 -0.10903587142E+04  0.10903587142E+04  0.00000000000E+00 0. -1.
          6    2    1    2  501    0  0.71691296811E+02  0.18319948078E+02 -0.84085179253E+03  0.86140308347E+03  0.17177972139E+03 0.  0.
         24    2    3    3    0    0  0.27854228815E+01 -0.47825578521E+02 -0.27617696665E+03  0.28868762259E+03  0.69078086163E+02 0.  0.
         -6    2    1    2    0  502 -0.71691296811E+02 -0.18319948078E+02 -0.20217926019E+03  0.27628329227E+03  0.17314947820E+03 0.  0.
        -24    2    5    5    0    0  0.15501187699E+02 -0.42439162143E+02 -0.14291899036E+03  0.16803295545E+03  0.75946474616E+02 0.  0.
          5    1    3    3  501    0  0.68905873930E+02  0.66145526599E+02 -0.56467482588E+03  0.57271546089E+03  0.47000000000E+01 0. -1.
        -11    1    4    4    0    0  0.32312279401E+02 -0.70006245929E+01 -0.92737600497E+02  0.98454835792E+02  0.00000000000E+00 0.  1.
         12    1    4    4    0    0 -0.29526856519E+02 -0.40824953928E+02 -0.18343936615E+03  0.19023278680E+03  0.00000000000E+00 0. -1.
         -5    1    5    5    0  502 -0.87192484510E+02  0.24119214065E+02 -0.59260269830E+02  0.10825033682E+03  0.47000000000E+01 0.  1.
         11    1    6    6    0    0 -0.26129930742E+02 -0.19350042791E+02 -0.25469763826E+02  0.41302618633E+02  0.00000000000E+00 0. -1.
        -12    1    6    6    0    0  0.41631118440E+02 -0.23089119352E+02 -0.11744922654E+03  0.12673033681E+03  0.00000000000E+00 0.  1.
</event>
<event>
12    1  0.1615162E-001  0.2185571E+03  0.7818608E-02  0.1135105E+00
         21   -1    0    0  501  502  0.00000000000E+00  0.00000000000E+00  0.13741201851E+04  0.13741201851E+04  0.00000000000E+00 0.  1.
         21   -1    0    0  502  503 -0.00000000000E+00 -0.00000000000E+00 -0.10903086172E+03  0.10903086172E+03  0.00000000000E+00 0.  1.
         -6    2    1    2    0  503  0.74440599852E+02  0.11233108079E+03  0.20352717283E+02  0.21950269470E+03  0.17206837380E+03 0.  0.
        -24    2    3    3    0    0  0.33056082987E+02  0.41238973724E+02 -0.52897149227E+02  0.10925570442E+03  0.79657661120E+02 0.  0.
          6    2    1    2  501    0 -0.74440599852E+02 -0.11233108079E+03  0.12447366061E+04  0.12636483521E+04  0.17110892626E+03 0.  0.
         24    2    5    5    0    0 -0.10010892206E+02 -0.83069875551E+02  0.10473322316E+04  0.10538913918E+04  0.82349499336E+02 0.  0.
          5    1    5    5  501    0 -0.64429707646E+02 -0.29261205238E+02  0.19740437447E+03  0.20975696036E+03  0.47000000000E+01 0. -1.
        -11    1    6    6    0    0 -0.35946916193E+02 -0.49839027002E+02  0.84407919034E+03  0.84631305612E+03  0.00000000000E+00 0.  1.
         12    1    6    6    0    0  0.25936023987E+02 -0.33230848549E+02  0.20325304130E+03  0.20757833565E+03  0.00000000000E+00 0. -1.
         -5    1    3    3    0  503  0.41384516865E+02  0.71092107064E+02  0.73249866510E+02  0.11024699028E+03  0.47000000000E+01 0.  1.
         11    1    4    4    0    0 -0.25042284762E+02  0.39122214987E+01 -0.22163358331E+02  0.33669510773E+02  0.00000000000E+00 0. -1.
        -12    1    4    4    0    0  0.58098367749E+02  0.37326752226E+02 -0.30733790895E+02  0.75586193644E+02  0.00000000000E+00 0.  1.
</event>
<event>
12    1  0.1615162E-001  0.1936675E+03  0.7818608E-02  0.1155277E+00
         21   -1    0    0  501  502  0.00000000000E+00  0.00000000000E+00  0.11327267546E+03  0.11327267546E+03  0.00000000000E+00 0. -1.
         21   -1    0    0  502  503 -0.00000000000E+00 -0.00000000000E+00 -0.58587244183E+03  0.58587244183E+03  0.00000000000E+00 0. -1.
         -6    2    1    2    0  503  0.80803003315E+02 -0.34216108402E+02 -0.46697180436E+03  0.50539583390E+03  0.17222780102E+03 0.  0.
        -24    2    3    3    0    0  0.94103814621E+02 -0.12006939364E+02 -0.19137145596E+03  0.22854244165E+03  0.81295257899E+02 0.  0.
          6    2    1    2  501    0 -0.80803003315E+02  0.34216108402E+02 -0.56279620145E+01  0.19374928338E+03  0.17264774378E+03 0.  0.
         24    2    5    5    0    0  0.23523733082E+01  0.64598058905E+02  0.20976076757E+02  0.10118717203E+03  0.74969361163E+02 0.  0.
          5    1    5    5  501    0 -0.83155376624E+02 -0.30381950503E+02 -0.26604038772E+02  0.92562111346E+02  0.47000000000E+01 0. -1.
        -13    1    6    6    0    0  0.24388854773E+02  0.63225619881E+01 -0.14921922694E+02  0.29282329213E+02  0.00000000000E+00 0.  1.
         14    1    6    6    0    0 -0.22036481465E+02  0.58275496917E+02  0.35897999451E+02  0.71904842819E+02  0.00000000000E+00 0. -1.
         -5    1    3    3    0  503 -0.13300811306E+02 -0.22209169038E+02 -0.27560034839E+03  0.27685339226E+03  0.47000000000E+01 0.  1.
         11    1    4    4    0    0  0.67351546168E+02 -0.46083858221E+02 -0.12569054938E+03  0.14986015802E+03  0.00000000000E+00 0. -1.
        -12    1    4    4    0    0  0.26752268453E+02  0.34076918858E+02 -0.65680906584E+02  0.78682283622E+02  0.00000000000E+00 0.  1.
</event>
<event>
12    1  0.1615162E-001  0.1918529E+03  0.7818608E-02  0.1156919E+00
         21   -1    0    0  503  502  0.00000000000E+00  0.00000000000E+00  0.35675343586E+03  0.35675343586E+03  0.00000000000E+00 0. -1.
         21   -1    0    0  501  503 -0.00000000000E+00 -0.00000000000E+00 -0.43648211683E+03  0.43648211683E+03  0.00000000000E+00 0.  1.
          6    2    1    2  501    0 -0.34540651039E+02 -0.76985233352E+02 -0.38661245325E+03  0.43159788874E+03  0.17230138081E+03 0.  0.
         24    2    3    3    0    0 -0.80639346418E+02 -0.74237699345E+02 -0.33889616783E+03  0.36502783126E+03  0.79879689708E+02 0.  0.
         -6    2    1    2    0  502  0.34540651039E+02  0.76985233352E+02  0.30688377228E+03  0.36163766394E+03  0.17171012657E+03 0.  0.
        -24    2    5    5    0    0 -0.31466930445E+02  0.72449370068E+02  0.25050241628E+03  0.27458295601E+03  0.80032869713E+02 0.  0.
          5    1    3    3  501    0  0.46098695379E+02 -0.27475340063E+01 -0.47716285417E+02  0.66570057479E+02  0.47000000000E+01 0. -1.
        -11    1    4    4    0    0 -0.33192357684E+02  0.80575079730E+01 -0.14687974808E+03  0.15079892718E+03  0.00000000000E+00 0.  1.
         12    1    4    4    0    0 -0.47446988734E+02 -0.82295207318E+02 -0.19201641975E+03  0.21422890407E+03  0.00000000000E+00 0. -1.
         -5    1    5    5    0  502  0.66007581484E+02  0.45358632837E+01  0.56381355996E+02  0.87054707932E+02  0.47000000000E+01 0.  1.
         13    1    6    6    0    0 -0.63532768169E+01  0.31300678318E+02  0.20762253076E+03  0.21006478017E+03  0.00000000000E+00 0. -1.
        -14    1    6    6    0    0 -0.25113653628E+02  0.41148691750E+02  0.42879885520E+02  0.64518175838E+02  0.00000000000E+00 0.  1.
</event>
<event>
12    1  0.1615162E-001  0.2171355E+03  0.7818608E-02  0.1136147E+00
         21   -1    0    0  501  502  0.00000000000E+00  0.00000000000E+00  0.58051597441E+03  0.58051597441E+03  0.00000000000E+00 0. -1.
         21   -1    0    0  502  503 -0.00000000000E+00 -0.00000000000E+00 -0.33973265067E+03  0.33973265067E+03  0.00000000000E+00 0. -1.
         -6    2    1    2    0  503  0.94089933485E+02 -0.93490366644E+02 -0.28111333670E+03  0.35520775884E+03  0.17191416356E+03 0.  0.
        -24    2    3    3    0    0  0.56220015498E+02 -0.99138120737E+02 -0.28296841088E+03  0.31658705047E+03  0.84659210024E+02 0.  0.
          6    2    1    2  501    0 -0.94089933485E+02  0.93490366644E+02  0.52189666044E+03  0.56504086624E+03  0.17117737028E+03 0.  0.
         24    2    5    5    0    0 -0.11931009805E+03  0.54148961550E+02  0.47347068081E+03  0.49758000085E+03  0.79021276414E+02 0.  0.
          5    1    5    5  501    0  0.25220164564E+02  0.39341405094E+02  0.48425979636E+02  0.67460865389E+02  0.47000000000E+01 0. -1.
        -11    1    6    6    0    0 -0.83987337662E+02  0.67073393672E+02  0.26900091045E+03  0.28967948296E+03  0.00000000000E+00 0.  1.
         12    1    6    6    0    0 -0.35322760386E+02 -0.12924432122E+02  0.20446977036E+03  0.20790051789E+03  0.00000000000E+00 0. -1.
         -5    1    3    3    0  503  0.37869917987E+02  0.56477540933E+01  0.18550741851E+01  0.38620708368E+02  0.47000000000E+01 0.  1.
         11    1    4    4    0    0 -0.13993820704E+02  0.32871911548E+01 -0.56570518690E+02  0.58368281013E+02  0.00000000000E+00 0. -1.
        -12    1    4    4    0    0  0.70213836202E+02 -0.10242531189E+03 -0.22639789220E+03  0.25821876946E+03  0.00000000000E+00 0.  1.
</event>
<event>
12    1  0.1615162E-001  0.2848143E+03  0.7818608E-02  0.1093327E+00
         21   -1    0    0  501  502  0.00000000000E+00  0.00000000000E+00  0.79986030986E+03  0.79986030986E+03  0.00000000000E+00 0.  1.
         21   -1    0    0  502  503 -0.00000000000E+00 -0.00000000000E+00 -0.16031586470E+03  0.16031586470E+03  0.00000000000E+00 0. -1.
         -6    2    1    2    0  503  0.21985746225E+03  0.63936926388E+02  0.26584102414E+02  0.28427710600E+03  0.16637765544E+03 0.  0.
        -24    2    3    3    0    0  0.94434772790E+02  0.14732241792E+02 -0.43259933595E+02  0.13244749300E+03  0.80845230447E+02 0.  0.
          6    2    1    2  501    0 -0.21985746225E+03 -0.63936926388E+02  0.61296034274E+03  0.67589906857E+03  0.16939284179E+03 0.  0.
         24    2    5    5    0    0 -0.94639544025E+02  0.16141203319E+02  0.36929308909E+03  0.39043829297E+03  0.82749581440E+02 0.  0.
          5    1    5    5  501    0 -0.12521791823E+03 -0.80078129707E+02  0.24366725365E+03  0.28546077559E+03  0.47000000000E+01 0. -1.
        -13    1    6    6    0    0  0.14347356724E+02 -0.39756268024E+01  0.29780813756E+02  0.33294881309E+02  0.00000000000E+00 0.  1.
         14    1    6    6    0    0 -0.10898690075E+03  0.20116830121E+02  0.33951227534E+03  0.35714341166E+03  0.00000000000E+00 0. -1.
         -5    1    3    3    0  503  0.12542268946E+03  0.49204684596E+02  0.69844036009E+02  0.15182961300E+03  0.47000000000E+01 0.  1.
         13    1    4    4    0    0  0.63052801216E+02  0.29250634573E+02  0.86836790319E+01  0.70047567022E+02  0.00000000000E+00 0. -1.
        -14    1    4    4    0    0  0.31381971574E+02 -0.14518392781E+02 -0.51943612627E+02  0.62399925974E+02  0.00000000000E+00 0.  1.
</event>
<event>
12    1  0.1615162E-001  0.1748400E+03  0.7818608E-02  0.1178286E+00
         21   -1    0    0  503  502  0.00000000000E+00  0.00000000000E+00  0.12536014424E+03  0.12536014424E+03  0.00000000000E+00 0.  1.
         21   -1    0    0  501  503 -0.00000000000E+00 -0.00000000000E+00 -0.44071069954E+03  0.44071069954E+03  0.00000000000E+00 0.  1.
          6    2    1    2  501    0 -0.28888580446E+02 -0.11858424239E+02 -0.35459120607E+03  0.38688143699E+03  0.15154916878E+03 0.  0.
         24    2    3    3    0    0 -0.50170986424E+02 -0.29332863534E+02 -0.34118358342E+03  0.35589513069E+03  0.82931065908E+02 0.  0.
         -6    2    1    2    0  502  0.28888580446E+02  0.11858424239E+02  0.39240650775E+02  0.17918940678E+03  0.17202860961E+03 0.  0.
        -24    2    5    5    0    0 -0.74662364725E+01 -0.54803554430E+02  0.11131678900E+02  0.98086407991E+02  0.80236244255E+02 0.  0.
          5    1    3    3  501    0  0.21282405978E+02  0.17474439296E+02 -0.13407622652E+02  0.30986306300E+02  0.47000000000E+01 0. -1.
        -11    1    4    4    0    0  0.14183122060E+02 -0.33895928313E+02 -0.12163634622E+03  0.12706492682E+03  0.00000000000E+00 0.  1.
         12    1    4    4    0    0 -0.64354108484E+02  0.45630647789E+01 -0.21954723721E+03  0.22883020387E+03  0.00000000000E+00 0. -1.
         -5    1    5    5    0  502  0.36354816918E+02  0.66661978669E+02  0.28108971875E+02  0.81102998792E+02  0.47000000000E+01 0.  1.
         11    1    6    6    0    0  0.29783890256E+02 -0.48285501855E+01 -0.10744240464E+02  0.32028639041E+02  0.00000000000E+00 0. -1.
        -12    1    6    6    0    0 -0.37250126729E+02 -0.49975004245E+02  0.21875919364E+02  0.66057768949E+02  0.00000000000E+00 0.  1.
</event>
<event>
12    1  0.1615162E-001  0.1875330E+03  0.7818608E-02  0.1160932E+00
         21   -1    0    0  501  502  0.00000000000E+00  0.00000000000E+00  0.11601166333E+03  0.11601166333E+03  0.00000000000E+00 0. -1.
         21   -1    0    0  502  503 -0.00000000000E+00 -0.00000000000E+00 -0.30265916682E+03  0.30265916682E+03  0.00000000000E+00 0.  1.
         -6    2    1    2    0  503  0.73207982669E+02  0.48634543598E+00 -0.10570463241E+03  0.21441516394E+03  0.17158306430E+03 0.  0.
        -24    2    3    3    0    0  0.44758895776E+02 -0.54692834009E+02 -0.20358700305E+02  0.10877373969E+03  0.80141031471E+02 0.  0.
          6    2    1    2  501    0 -0.73207982669E+02 -0.48634543598E+00 -0.80942871079E+02  0.20425566621E+03  0.17265278318E+03 0.  0.
         24    2    5    5    0    0 -0.61317210155E+02 -0.53124496036E+02 -0.79561637683E+02  0.15006929176E+03  0.98024108254E+02 0.  0.
          5    1    5    5  501    0 -0.11890772514E+02  0.52638150600E+02 -0.13812333963E+01  0.54186374443E+02  0.47000000000E+01 0. -1.
        -11    1    6    6    0    0 -0.11196065746E+02 -0.49086018076E+02 -0.85718162768E+02  0.99410223253E+02  0.00000000000E+00 0.  1.
         12    1    6    6    0    0 -0.50121144409E+02 -0.40384779598E+01  0.61565250858E+01  0.50659068509E+02  0.00000000000E+00 0. -1.
         -5    1    3    3    0  503  0.28449086893E+02  0.55179179445E+02 -0.85345932108E+02  0.10564142425E+03  0.47000000000E+01 0.  1.
         13    1    4    4    0    0 -0.16298807067E+02 -0.11057824023E+02 -0.27014468344E+02  0.33432141479E+02  0.00000000000E+00 0. -1.
        -14    1    4    4    0    0  0.61057702844E+02 -0.43635009986E+02  0.66557680392E+01  0.75341598212E+02  0.00000000000E+00 0.  1.
</event>
<event>
12    1  0.1615162E-001  0.2570152E+03  0.7818608E-02  0.1108967E+00
         21   -1    0    0  503  502  0.00000000000E+00  0.00000000000E+00  0.17408099400E+03  0.17408099400E+03  0.00000000000E+00 0. -1.
         21   -1    0    0  501  503 -0.00000000000E+00 -0.00000000000E+00 -0.78189711822E+03  0.78189711822E+03  0.00000000000E+00 0. -1.
          6    2    1    2  501    0  0.11573303885E+03 -0.15157199200E+03 -0.64692995953E+03  0.69611434672E+03  0.17230381929E+03 0.  0.
         24    2    3    3    0    0  0.26032616477E+02 -0.21317700079E+02 -0.33966515857E+03  0.35050460403E+03  0.79680085614E+02 0.  0.
         -6    2    1    2    0  502 -0.11573303885E+03  0.15157199200E+03  0.39113835311E+02  0.25986376550E+03  0.17213680450E+03 0.  0.
        -24    2    5    5    0    0 -0.32593634932E+02  0.62833407179E+01  0.37459281295E+02  0.92395021474E+02  0.77664772126E+02 0.  0.
          5    1    3    3  501    0  0.89700422374E+02 -0.13025429192E+03 -0.30726480096E+03  0.34560974270E+03  0.47000000000E+01 0. -1.
        -13    1    4    4    0    0  0.40166734215E+02 -0.91073828135E+01 -0.78287234630E+02  0.88460172198E+02  0.00000000000E+00 0.  1.
         14    1    4    4    0    0 -0.14134117738E+02 -0.12210317266E+02 -0.26137792394E+03  0.26204443183E+03  0.00000000000E+00 0. -1.
         -5    1    5    5    0  502 -0.83139403920E+02  0.14528865128E+03  0.16545540168E+01  0.16746874402E+03  0.47000000000E+01 0.  1.
         11    1    6    6    0    0 -0.32733340744E+02  0.31804489191E+02  0.46656037342E+02  0.65267012720E+02  0.00000000000E+00 0. -1.
        -12    1    6    6    0    0  0.13970581240E+00 -0.25521148474E+02 -0.91967560473E+01  0.27128008753E+02  0.00000000000E+00 0.  1.
</event>
<event>
12    1  0.1615162E-001  0.2113683E+03  0.7818608E-02  0.1140553E+00
         21   -1    0    0  501  502  0.00000000000E+00  0.00000000000E+00  0.44623394425E+03  0.44623394425E+03  0.00000000000E+00 0. -1.
         21   -1    0    0  502  503 -0.00000000000E+00 -0.00000000000E+00 -0.24221108666E+03  0.24221108666E+03  0.00000000000E+00 0. -1.
         -6    2    1    2    0  503 -0.71472170217E+02 -0.10042438056E+03 -0.16181960300E+03  0.26593197894E+03  0.17129187425E+03 0.  0.
        -24    2    3    3    0    0 -0.48750131233E+02 -0.11782517266E+03 -0.62650240459E+02  0.16260854942E+03  0.79102092945E+02 0.  0.
          6    2    1    2  501    0  0.71472170217E+02  0.10042438056E+03  0.36584246059E+03  0.42251305196E+03  0.17170686004E+03 0.  0.
         24    2    5    5    0    0  0.59932454224E+02  0.18326819021E+01  0.10079716074E+03  0.13945018075E+03  0.75438899153E+02 0.  0.
          5    1    5    5  501    0  0.11539715992E+02  0.98591698654E+02  0.26504529985E+03  0.28306287122E+03  0.47000000000E+01 0. -1.
        -13    1    6    6    0    0 -0.21184101502E+01  0.18678483767E+02 -0.12462006000E+01  0.18839491324E+02  0.00000000000E+00 0.  1.
         14    1    6    6    0    0  0.62050864375E+02 -0.16845801865E+02  0.10204336134E+03  0.12061068942E+03  0.00000000000E+00 0. -1.
         -5    1    3    3    0  503 -0.22722038984E+02  0.17400792101E+02 -0.99169362543E+02  0.10332342952E+03  0.47000000000E+01 0.  1.
         13    1    4    4    0    0  0.16680450375E+02 -0.28975283361E+02 -0.35925341526E+02  0.49075804979E+02  0.00000000000E+00 0. -1.
        -14    1    4    4    0    0 -0.65430581608E+02 -0.88849889296E+02 -0.26724898933E+02  0.11353274444E+03  0.00000000000E+00 0.  1.
</event>
<event>
12    1  0.1615162E-001  0.2429188E+03  0.7818608E-02  0.1118159E+00
         21   -1    0    0  501  502  0.00000000000E+00  0.00000000000E+00  0.15372097823E+04  0.15372097823E+04  0.00000000000E+00 0. -1.
         21   -1    0    0  502  503 -0.00000000000E+00 -0.00000000000E+00 -0.59781962891E+02  0.59781962891E+02  0.00000000000E+00 0.  1.
         -6    2    1    2    0  503 -0.15839660468E+03 -0.66632809578E+02  0.25963112883E+03  0.35555292356E+03  0.17169782382E+03 0.  0.
        -24    2    3    3    0    0 -0.17668548097E+03 -0.88689745541E+02  0.22081573853E+03  0.30707905489E+03  0.80338816401E+02 0.  0.
          6    2    1    2  501    0  0.15839660468E+03  0.66632809578E+02  0.12177966906E+04  0.12414388216E+04  0.16915127129E+03 0.  0.
         24    2    5    5    0    0  0.14759371269E+03  0.13303758881E+02  0.67182426013E+03  0.69274156910E+03  0.81130456889E+02 0.  0.
          5    1    5    5  501    0  0.10802891994E+02  0.53329050697E+02  0.54597243045E+03  0.54869725253E+03  0.47000000000E+01 0. -1.
        -13    1    6    6    0    0  0.55236178269E+02  0.36242820825E+02  0.17874971601E+03  0.19056767414E+03  0.00000000000E+00 0.  1.
         14    1    6    6    0    0  0.92357534420E+02 -0.22939061944E+02  0.49307454412E+03  0.50217389496E+03  0.00000000000E+00 0. -1.
         -5    1    3    3    0  503  0.18288876283E+02  0.22056935962E+02  0.38815390292E+02  0.48473868664E+02  0.47000000000E+01 0.  1.
         13    1    4    4    0    0 -0.61302905746E+02 -0.72064742765E+02  0.12108746428E+03  0.15366700169E+03  0.00000000000E+00 0. -1.
        -14    1    4    4    0    0 -0.11538257522E+03 -0.16625002775E+02  0.99728274252E+02  0.15341205320E+03  0.00000000000E+00 0.  1.
</event>
<event>
12    1  0.1615162E-001  0.2616961E+03  0.7818608E-02  0.1106804E+00
         21   -1    0    0  503  502  0.00000000000E+00  0.00000000000E+00  0.55566411223E+03  0.55566411223E+03  0.00000000000E+00 0.  1.
         21   -1    0    0  501  503 -0.00000000000E+00 -0.00000000000E+00 -0.15777211441E+03  0.15777211441E+03  0.00000000000E+00 0. -1.
          6    2    1    2  501    0  0.19168053481E+03 -0.38054300052E+02  0.25746021578E+02  0.25848842835E+03  0.16722395996E+03 0.  0.
         24    2    3    3    0    0  0.19739782884E+03 -0.66415485111E+02  0.80201066505E+01  0.22423434350E+03  0.82703078536E+02 0.  0.
         -6    2    1    2    0  502 -0.19168053481E+03  0.38054300052E+02  0.37214597624E+03  0.45494779829E+03  0.17405549219E+03 0.  0.
        -24    2    5    5    0    0 -0.73577409081E+02 -0.34015317899E+02  0.22919452906E+03  0.25595135513E+03  0.80064268343E+02 0.  0.
          5    1    3    3  501    0 -0.57172940279E+01  0.28361185059E+02  0.17725914927E+02  0.34254084851E+02  0.47000000000E+01 0. -1.
        -13    1    4    4    0    0  0.62653515878E+02 -0.12171316140E+02  0.40239488599E+02  0.75450781514E+02  0.00000000000E+00 0.  1.
         14    1    4    4    0    0  0.13474431296E+03 -0.54244168971E+02 -0.32219381948E+02  0.14878356198E+03  0.00000000000E+00 0. -1.
         -5    1    5    5    0  502 -0.11810312573E+03  0.72069617951E+02  0.14295144718E+03  0.19899644316E+03  0.47000000000E+01 0.  1.
         11    1    6    6    0    0 -0.10717920279E+02 -0.38968940085E+01 -0.43662261467E+01  0.12211614504E+02  0.00000000000E+00 0. -1.
        -12    1    6    6    0    0 -0.62859488802E+02 -0.30118423891E+02  0.23356075521E+03  0.24373974063E+03  0.00000000000E+00 0.  1.
</event>
<event>
12    1  0.1615162E-001  0.1838541E+03  0.7818608E-02  0.1164153E+00
         21   -1    0    0  503  502  0.00000000000E+00  0.00000000000E+00  0.12453640129E+04  0.12453640129E+04  0.00000000000E+00 0.  1.
         21   -1    0    0  501  503 -0.00000000000E+00 -0.00000000000E+00 -0.31396042611E+02  0.31396042611E+02  0.00000000000E+00 0.  1.
          6    2    1    2  501    0  0.38693153427E+02 -0.50033733248E+02  0.37134455707E+03  0.41431205417E+03  0.17250264805E+03 0.  0.
         24    2    3    3    0    0  0.17251834903E+01 -0.87957925516E+02  0.31830674387E+03  0.33921228860E+03  0.77499810487E+02 0.  0.
         -6    2    1    2    0  502 -0.38693153427E+02  0.50033733248E+02  0.84262341325E+03  0.86244800137E+03  0.17263198985E+03 0.  0.
        -24    2    5    5    0    0 -0.61603339604E+02 -0.26176234793E+02  0.44461440954E+03  0.45653410300E+03  0.79128043742E+02 0.  0.
          5    1    3    3  501    0  0.36967969936E+02  0.37924192267E+02  0.53037813202E+02  0.75099765576E+02  0.47000000000E+01 0. -1.
        -13    1    4    4    0    0 -0.43738966507E+01 -0.19986266173E+02  0.88009119509E+01  0.22271907387E+02  0.00000000000E+00 0.  1.
         14    1    4    4    0    0  0.60990801411E+01 -0.67971659342E+02  0.30950583191E+03  0.31694038121E+03  0.00000000000E+00 0. -1.
         -5    1    5    5    0  502  0.22910186177E+02  0.76209968042E+02  0.39800900371E+03  0.40591389837E+03  0.47000000000E+01 0.  1.
         11    1    6    6    0    0  0.58978981132E+01  0.19227393756E+02  0.56151431555E+02  0.59644456059E+02  0.00000000000E+00 0. -1.
        -12    1    6    6    0    0 -0.67501237717E+02 -0.45403628550E+02  0.38846297799E+03  0.39688964694E+03  0.00000000000E+00 0.  1.
</event>
<event>
12    1  0.1615162E-001  0.3894340E+03  0.7818608E-02  0.1047521E+00
         21   -1    0    0  503  502  0.00000000000E+00  0.00000000000E+00  0.32012196380E+03  0.32012196380E+03  0.00000000000E+00 0.  1.
         21   -1    0    0  501  503 -0.00000000000E+00 -0.00000000000E+00 -0.76896961670E+03  0.76896961670E+03  0.00000000000E+00 0.  1.
          6    2    1    2  501    0  0.24767830093E+02  0.34862162220E+03 -0.56194480009E+03  0.68356742536E+03  0.17126583372E+03 0.  0.
         24    2    3    3    0    0 -0.28222202527E+02  0.30210295888E+03 -0.41195135728E+03  0.51776015025E+03  0.79428974213E+02 0.  0.
         -6    2    1    2    0  502 -0.24767830093E+02 -0.34862162220E+03  0.11309714719E+03  0.40552415513E+03  0.17178007691E+03 0.  0.
        -24    2    5    5    0    0 -0.73243198050E+02 -0.30177403435E+03  0.10002380516E+03  0.33669421937E+03  0.83223205222E+02 0.  0.
          5    1    3    3  501    0  0.52990032620E+02  0.46518663318E+02 -0.14999344281E+03  0.16580727511E+03  0.47000000000E+01 0. -1.
        -11    1    4    4    0    0  0.17318765887E+02  0.20677218298E+03 -0.25898565731E+03  0.33185576083E+03  0.00000000000E+00 0.  1.
         12    1    4    4    0    0 -0.45540968414E+02  0.95330775901E+02 -0.15296569997E+03  0.18590438942E+03  0.00000000000E+00 0. -1.
         -5    1    5    5    0  502  0.48475367957E+02 -0.46847587844E+02  0.13073342039E+02  0.68829935766E+02  0.47000000000E+01 0.  1.
         13    1    6    6    0    0 -0.76820504426E+02 -0.19204346777E+03  0.37061004696E+02  0.21013234278E+03  0.00000000000E+00 0. -1.
        -14    1    6    6    0    0  0.35773063757E+01 -0.10973056658E+03  0.62962800459E+02  0.12656187658E+03  0.00000000000E+00 0.  1.
</event>
<event>
12    1  0.1615162E-001  0.1833976E+03  0.7818608E-02  0.1164772E+00
         21   -1    0    0  501  502  0.00000000000E+00  0.00000000000E+00  0.24383127239E+03  0.24383127239E+03  0.00000000000E+00 0. -1.
         21   -1    0    0  502  503 -0.00000000000E+00 -0.00000000000E+00 -0.32398777062E+03  0.32398777062E+03  0.00000000000E+00 0. -1.
         -6    2    1    2    0  503  0.61252457717E+02  0.22226565840E+02 -0.25557477800E+03  0.31403520316E+03  0.17045162912E+03 0.  0.
        -24    2    3    3    0    0 -0.49642541874E+01  0.21565067488E+02 -0.47749104118E+02  0.95863960236E+02  0.80126312611E+02 0.  0.
          6    2    1    2  501    0 -0.61252457717E+02 -0.22226565840E+02  0.17541827977E+03  0.25378383985E+03  0.17143156269E+03 0.  0.
         24    2    5    5    0    0 -0.85937709767E+02 -0.19575643722E+02  0.57367788670E+02  0.13305937048E+03  0.81518323752E+02 0.  0.
          5    1    5    5  501    0  0.24685252050E+02 -0.26509221184E+01  0.11805049110E+03  0.12072446937E+03  0.47000000000E+01 0. -1.
        -13    1    6    6    0    0  0.64128526297E+01 -0.24733836262E+01  0.36116027938E+02  0.36764245939E+02  0.00000000000E+00 0.  1.
         14    1    6    6    0    0 -0.92350562396E+02 -0.17102260096E+02  0.21251760732E+02  0.96295124536E+02  0.00000000000E+00 0. -1.
         -5    1    3    3    0  503  0.66216711904E+02  0.66149835172E+00 -0.20782567388E+03  0.21817124292E+03  0.47000000000E+01 0.  1.
         13    1    4    4    0    0  0.60645916319E+01 -0.27116020872E+02 -0.34351599045E+02  0.44182465035E+02  0.00000000000E+00 0. -1.
        -14    1    4    4    0    0 -0.11028845819E+02  0.48681088361E+02 -0.13397505073E+02  0.51681495202E+02  0.00000000000E+00 0.  1.
</event>
<event>
12    1  0.1615162E-001  0.2042379E+03  0.7818608E-02  0.1146653E+00
         21   -1    0    0  503  502  0.00000000000E+00  0.00000000000E+00  0.12382298840E+03  0.12382298840E+03  0.00000000000E+00 0. -1.
         21   -1    0    0  501  503 -0.00000000000E+00 -0.00000000000E+00 -0.37538097204E+03  0.37538097204E+03  0.00000000000E+00 0. -1.
          6    2    1    2  501    0 -0.10440390964E+03  0.27775825181E+02 -0.20987875843E+03  0.29285183972E+03  0.17332464907E+03 0.  0.
         24    2    3    3    0    0 -0.45084435235E+02  0.80458575162E+02 -0.15366330012E+03  0.19550431822E+03  0.78123876136E+02 0.  0.
         -6    2    1    2    0  502  0.10440390964E+03 -0.27775825181E+02 -0.41679225209E+02  0.20635212071E+03  0.17079920110E+03 0.  0.
        -24    2    5    5    0    0  0.58529393607E+02 -0.76186042158E+02 -0.55866086090E+02  0.13800464563E+03  0.81818455768E+02 0.  0.
          5    1    3    3  501    0 -0.59319474402E+02 -0.52682749981E+02 -0.56215458318E+02  0.97347521504E+02  0.47000000000E+01 0. -1.
        -11    1    4    4    0    0 -0.17741221716E+01 -0.43645001615E+00 -0.73901752421E+02  0.73924332997E+02  0.00000000000E+00 0.  1.
         12    1    4    4    0    0 -0.43310313063E+02  0.80895025178E+02 -0.79761547696E+02  0.12157998522E+03  0.00000000000E+00 0. -1.
         -5    1    5    5    0  502  0.45874516031E+02  0.48410216977E+02  0.14186860881E+02  0.68347475085E+02  0.47000000000E+01 0.  1.
         13    1    6    6    0    0  0.15059288007E+02  0.15640695522E+02 -0.22007105224E+02  0.30914821559E+02  0.00000000000E+00 0. -1.
        -14    1    6    6    0    0  0.43470105600E+02 -0.91826737680E+02 -0.33858980866E+02  0.10708982407E+03  0.00000000000E+00 0.  1.
</event>
<event>
12    1  0.1615162E-001  0.1858041E+03  0.7818608E-02  0.1162779E+00
         21   -1    0    0  503  502  0.00000000000E+00  0.00000000000E+00  0.10494141098E+03  0.10494141098E+03  0.00000000000E+00 0.  1.
         21   -1    0    0  501  503 -0.00000000000E+00 -0.00000000000E+00 -0.53682136738E+03  0.53682136738E+03  0.00000000000E+00 0.  1.
          6    2    1    2  501    0 -0.30563479578E+01 -0.70604306782E+02 -0.41805605494E+03  0.45748663645E+03  0.17183959980E+03 0.  0.
         24    2    3    3    0    0 -0.51861304084E+02 -0.90426184494E+02 -0.32782469366E+03  0.35289878277E+03  0.78752977115E+02 0.  0.
         -6    2    1    2    0  502  0.30563479578E+01  0.70604306782E+02 -0.13823901470E+02  0.18427614192E+03  0.16962395712E+03 0.  0.
        -24    2    5    5    0    0  0.54520922078E+02  0.17907277508E+01 -0.12846140339E+02  0.98212461626E+02  0.80653125463E+02 0.  0.
          5    1    3    3  501    0  0.48804956126E+02  0.19821877711E+02 -0.90231361279E+02  0.10458785368E+03  0.47000000000E+01 0. -1.
        -13    1    4    4    0    0 -0.31333297999E+02 -0.86321350995E+02 -0.16584971604E+03  0.18957657955E+03  0.00000000000E+00 0.  1.
         14    1    4    4    0    0 -0.20528006085E+02 -0.41048334981E+01 -0.16197497762E+03  0.16332220322E+03  0.00000000000E+00 0. -1.
         -5    1    5    5    0  502 -0.51464574120E+02  0.68813579032E+02 -0.97776113097E+00  0.86063680292E+02  0.47000000000E+01 0.  1.
         13    1    6    6    0    0 -0.10755638985E+02 -0.10205609030E+02 -0.26580841824E+02  0.30436481034E+02  0.00000000000E+00 0. -1.
        -14    1    6    6    0    0  0.65276561063E+02  0.11996336781E+02  0.13734701485E+02  0.67775980592E+02  0.00000000000E+00 0.  1.
</event>
<event>
12    1  0.1615162E-001  0.1805942E+03  0.7818608E-02  0.1167290E+00
         21   -1    0    0  501  502  0.00000000000E+00  0.00000000000E+00  0.19822341490E+03  0.19822341490E+03  0.00000000000E+00 0.  1.
         21   -1    0    0  502  503 -0.00000000000E+00 -0.00000000000E+00 -0.17790457468E+03  0.17790457468E+03  0.00000000000E+00 0.  1.
         -6    2    1    2    0  503 -0.44416960588E+02  0.33689480652E+02  0.62166387566E+02  0.19099452647E+03  0.17177427602E+03 0.  0.
        -24    2    3    3    0    0  0.17641757584E+02  0.70045072372E+02  0.28652320257E+02  0.11150681510E+03  0.79970435689E+02 0.  0.
          6    2    1    2  501    0  0.44416960588E+02 -0.33689480652E+02 -0.41847547349E+02  0.18513346311E+03  0.17150899233E+03 0.  0.
         24    2    5    5    0    0 -0.26589553504E+02 -0.28280876812E+02 -0.64786645841E+02  0.11017033698E+03  0.80208361927E+02 0.  0.
          5    1    5    5  501    0  0.71006514092E+02 -0.54086038402E+01  0.22939098492E+02  0.74963126127E+02  0.47000000000E+01 0. -1.
        -11    1    6    6    0    0  0.92707146401E+01 -0.46219371893E+02 -0.23706045325E+02  0.52765074368E+02  0.00000000000E+00 0.  1.
         12    1    6    6    0    0 -0.35860268144E+02  0.17938495082E+02 -0.41080600516E+02  0.57405262616E+02  0.00000000000E+00 0. -1.
         -5    1    3    3    0  503 -0.62058718172E+02 -0.36355591720E+02  0.33514067309E+02  0.79487711365E+02  0.47000000000E+01 0.  1.
         11    1    4    4    0    0 -0.25187319497E+02  0.39999674360E+02 -0.75736926027E+01  0.47872077790E+02  0.00000000000E+00 0. -1.
        -12    1    4    4    0    0  0.42829077080E+02  0.30045398012E+02  0.36226012860E+02  0.63634737314E+02  0.00000000000E+00 0.  1.
</event>
<event>
12    1  0.1615162E-001  0.5778158E+03  0.7818608E-02  0.9952678E-01
         21   -1    0    0  503  502  0.00000000000E+00  0.00000000000E+00  0.89182431331E+03  0.89182431331E+03  0.00000000000E+00 0.  1.
         21   -1    0    0  501  503 -0.00000000000E+00 -0.00000000000E+00 -0.42105868642E+03  0.42105868642E+03  0.00000000000E+00 0.  1.
          6    2    1    2  501    0 -0.51718532332E+03  0.19083578636E+03  0.45433777107E+03  0.73483366838E+03  0.17221717092E+03 0.  0.
         24    2    3    3    0    0 -0.30524464809E+03  0.14463472860E+03  0.20851054736E+03  0.40695182767E+03  0.89664049526E+02 0.  0.
         -6    2    1    2    0  502  0.51718532332E+03 -0.19083578636E+03  0.16427855827E+02  0.57804933135E+03  0.17312480760E+03 0.  0.
        -24    2    5    5    0    0  0.22518594902E+03 -0.20755616549E+02 -0.29133815161E+01  0.23954220850E+03  0.78946023375E+02 0.  0.
          5    1    3    3  501    0 -0.21194067523E+03  0.46201057760E+02  0.24582722371E+03  0.32788184072E+03  0.47000000000E+01 0. -1.
        -13    1    4    4    0    0 -0.22212409427E+03  0.13262529459E+03  0.18992501684E+03  0.32093627723E+03  0.00000000000E+00 0.  1.
         14    1    4    4    0    0 -0.83120553822E+02  0.12009434013E+02  0.18585530520E+02  0.86015550441E+02  0.00000000000E+00 0. -1.
         -5    1    5    5    0  502  0.29199937430E+03 -0.17008016981E+03  0.19341237344E+02  0.33850712285E+03  0.47000000000E+01 0.  1.
         11    1    6    6    0    0  0.21354889810E+02 -0.25883060890E+02  0.10625892439E+02  0.35197638414E+02  0.00000000000E+00 0. -1.
        -12    1    6    6    0    0  0.20383105921E+03  0.51274443415E+01 -0.13539273955E+02  0.20434457008E+03  0.00000000000E+00 0.  1.
</event>
<event>
12    1  0.1615162E-001  0.2383933E+03  0.7818608E-02  0.1121398E+00
         21   -1    0    0  501  502  0.00000000000E+00  0.00000000000E+00  0.14797703515E+04  0.14797703515E+04  0.00000000000E+00 0. -1.
         21   -1    0    0  502  503 -0.00000000000E+00 -0.00000000000E+00 -0.41515440851E+02  0.41515440851E+02  0.00000000000E+00 0.  1.
         -6    2    1    2    0  503  0.41366998317E+02  0.15546630404E+03  0.49038816925E+03  0.54390012235E+03  0.17165601160E+03 0.  0.
        -24    2    3    3    0    0  0.35236744126E+02  0.93298490081E+02  0.45495012525E+03  0.47192539018E+03  0.76077073088E+02 0.  0.
          6    2    1    2  501    0 -0.41366998317E+02 -0.15546630404E+03  0.94786674142E+03  0.97738567001E+03  0.17592722421E+03 0.  0.
         24    2    5    5    0    0 -0.19189138743E+02 -0.17783379944E+03  0.89014306923E+03  0.91145938817E+03  0.80065281665E+02 0.  0.
          5    1    5    5  501    0 -0.22177859574E+02  0.22367495400E+02  0.57723672187E+02  0.65926281835E+02  0.47000000000E+01 0. -1.
        -11    1    6    6    0    0  0.28962835633E+02 -0.66566946535E+02  0.27081964188E+03  0.28038060320E+03  0.00000000000E+00 0.  1.
         12    1    6    6    0    0 -0.48151974376E+02 -0.11126685290E+03  0.61932342735E+03  0.63107878498E+03  0.00000000000E+00 0. -1.
         -5    1    3    3    0  503  0.61302541905E+01  0.62167813957E+02  0.35438044001E+02  0.71974732173E+02  0.47000000000E+01 0.  1.
         13    1    4    4    0    0  0.23559859822E+02 -0.69053519786E+01  0.87948762147E+02  0.91311202182E+02  0.00000000000E+00 0. -1.
        -14    1    4    4    0    0  0.11676884304E+02  0.10020384206E+03  0.36700136310E+03  0.38061418800E+03  0.00000000000E+00 0.  1.
</event>
<event>
12    1  0.1615162E-001  0.1957161E+03  0.7818608E-02  0.1153768E+00
         21   -1    0    0  503  502  0.00000000000E+00  0.00000000000E+00  0.49739267275E+03  0.49739267275E+03  0.00000000000E+00 0.  1.
         21   -1    0    0  501  503 -0.00000000000E+00 -0.00000000000E+00 -0.86288369361E+02  0.86288369361E+02  0.00000000000E+00 0.  1.
          6    2    1    2  501    0  0.91820879575E+02  0.18451294049E+01  0.10731612423E+03  0.22320735512E+03  0.17283024744E+03 0.  0.
         24    2    3    3    0    0  0.35326509873E+02  0.57495973815E+01 -0.16192205047E+02  0.87254215842E+02  0.77910785569E+02 0.  0.
         -6    2    1    2    0  502 -0.91820879575E+02 -0.18451294049E+01  0.30378817916E+03  0.36047368699E+03  0.17093724810E+03 0.  0.
        -24    2    5    5    0    0  0.11807715394E+02  0.17168473245E+02  0.90060388568E+02  0.12214185687E+03  0.79834710452E+02 0.  0.
          5    1    3    3  501    0  0.56494369702E+02 -0.39044679766E+01  0.12350832928E+03  0.13595313927E+03  0.47000000000E+01 0. -1.
        -11    1    4    4    0    0  0.56332688831E+02  0.11723354759E+01  0.56239863008E+01  0.56624865769E+02  0.00000000000E+00 0.  1.
         12    1    4    4    0    0 -0.21006178958E+02  0.45772619056E+01 -0.21816191348E+02  0.30629350073E+02  0.00000000000E+00 0. -1.
         -5    1    5    5    0  502 -0.10362859497E+03 -0.19013602650E+02  0.21372779059E+03  0.23833183013E+03  0.47000000000E+01 0.  1.
         11    1    6    6    0    0 -0.10503893997E+02  0.28880332446E+02  0.91874510297E+02  0.96877918194E+02  0.00000000000E+00 0. -1.
        -12    1    6    6    0    0  0.22311609391E+02 -0.11711859201E+02 -0.18141217283E+01  0.25263938671E+02  0.00000000000E+00 0.  1.
</event>
<event>
12    1  0.1615162E-001  0.1773091E+03  0.7818608E-02  0.1171119E+00
         21   -1    0    0  501  502  0.00000000000E+00  0.00000000000E+00  0.21651346219E+03  0.21651346219E+03  0.00000000000E+00 0. -1.
         21   -1    0    0  502  503 -0.00000000000E+00 -0.00000000000E+00 -0.15732559216E+03  0.15732559216E+03  0.00000000000E+00 0. -1.
         -6    2    1    2    0  503 -0.32972402764E+02 -0.24917966941E+02 -0.26688753329E+02  0.17930643739E+03  0.17242512727E+03 0.  0.
        -24    2    3    3    0    0 -0.48070804288E+02 -0.23255727527E+02 -0.78701138720E+02  0.12491799191E+03  0.80987680409E+02 0.  0.
          6    2    1    2  501    0  0.32972402764E+02  0.24917966941E+02  0.85876623360E+02  0.19453261695E+03  0.16958791289E+03 0.  0.
         24    2    5    5    0    0  0.56152224224E+02 -0.21431673471E+02  0.86777191536E+01  0.10143399129E+03  0.81247540679E+02 0.  0.
          5    1    5    5  501    0 -0.23179821461E+02  0.46349640412E+02  0.77198904207E+02  0.93098625661E+02  0.47000000000E+01 0. -1.
        -13    1    6    6    0    0  0.27441627599E+02  0.17950542654E+02 -0.25809063799E+02  0.41729757740E+02  0.00000000000E+00 0.  1.
         14    1    6    6    0    0  0.28710596626E+02 -0.39382216125E+02  0.34486782953E+02  0.59704233551E+02  0.00000000000E+00 0. -1.
         -5    1    3    3    0  503  0.15098401525E+02 -0.16622394139E+01  0.52012385391E+02  0.54388445488E+02  0.47000000000E+01 0.  1.
         13    1    4    4    0    0 -0.70327697743E+02 -0.15905530462E+02 -0.49436930706E+02  0.87424144759E+02  0.00000000000E+00 0. -1.
        -14    1    4    4    0    0  0.22256893455E+02 -0.73501970644E+01 -0.29264208014E+02  0.37493847146E+02  0.00000000000E+00 0.  1.
</event>
<event>
12    1  0.1615162E-001  0.1804653E+03  0.7818608E-02  0.1167555E+00
         21   -1    0    0  503  502  0.00000000000E+00  0.00000000000E+00  0.44468881677E+03  0.44468881677E+03  0.00000000000E+00 0. -1.
         21   -1    0    0  501  503 -0.00000000000E+00 -0.00000000000E+00 -0.79329538257E+02  0.79329538257E+02  0.00000000000E+00 0. -1.
          6    2    1    2  501    0  0.50265123517E+02  0.11567660128E+02  0.10769271273E+03  0.20943961066E+03  0.17206637305E+03 0.  0.
         24    2    3    3    0    0 -0.40330232629E+02  0.57673250386E+01  0.48790330595E+02  0.10112182328E+03  0.78646913997E+02 0.  0.
         -6    2    1    2    0  502 -0.50265123517E+02 -0.11567660128E+02  0.25766656577E+03  0.31457874436E+03  0.17293736983E+03 0.  0.
        -24    2    5    5    0    0 -0.28108580511E+02  0.48773620835E+01  0.27090890702E+03  0.28361423637E+03  0.78939965849E+02 0.  0.
          5    1    3    3  501    0  0.90595356146E+02  0.58003350898E+01  0.58902382140E+02  0.10831778739E+03  0.47000000000E+01 0. -1.
        -13    1    4    4    0    0 -0.75467642326E+01  0.10086033979E+02  0.63639321814E+02  0.64874070419E+02  0.00000000000E+00 0.  1.
         14    1    4    4    0    0 -0.32783468396E+02 -0.43187089403E+01 -0.14848991219E+02  0.36247752858E+02  0.00000000000E+00 0. -1.
         -5    1    5    5    0  502 -0.22156543006E+02 -0.16445022212E+02 -0.13242341247E+02  0.30964507992E+02  0.47000000000E+01 0.  1.
         11    1    6    6    0    0 -0.51540073935E+02 -0.39350986090E+01  0.12024026927E+03  0.13088004651E+03  0.00000000000E+00 0. -1.
        -12    1    6    6    0    0  0.23431493424E+02  0.88124606925E+01  0.15066863775E+03  0.15273418985E+03  0.00000000000E+00 0.  1.
</event>
<event>
12    1  0.1615162E-001  0.1929367E+03  0.7818608E-02  0.1155861E+00
         21   -1    0    0  503  502  0.00000000000E+00  0.00000000000E+00  0.15956309448E+03  0.15956309448E+03  0.00000000000E+00 0.  1.
         21   -1    0    0  501  503 -0.00000000000E+00 -0.00000000000E+00 -0.12817988825E+04  0.12817988825E+04  0.00000000000E+00 0.  1.
          6    2    1    2  501    0  0.82184848089E+02  0.27719936947E+02 -0.12129360857E+04  0.12281693206E+04  0.17223004374E+03 0.  0.
         24    2    3    3    0    0  0.11152584134E+03 -0.81162589557E+01 -0.76345506702E+03  0.77628393363E+03  0.85142347343E+02 0.  0.
         -6    2    1    2    0  502 -0.82184848089E+02 -0.27719936947E+02  0.90700297603E+02  0.21319265643E+03  0.17234216144E+03 0.  0.
        -24    2    5    5    0    0 -0.40906154882E+02 -0.66517039705E+02  0.64813172983E+01  0.11158521409E+03  0.79444461427E+02 0.  0.
          5    1    3    3  501    0 -0.29340993253E+02  0.35836195902E+02 -0.44948101864E+03  0.45188538695E+03  0.47000000000E+01 0. -1.
        -13    1    4    4    0    0 -0.10903443726E+02 -0.14010756273E+02 -0.11198682558E+03  0.11338534067E+03  0.00000000000E+00 0.  1.
         14    1    4    4    0    0  0.12242928507E+03  0.58944973173E+01 -0.65146824144E+03  0.66289859296E+03  0.00000000000E+00 0. -1.
         -5    1    5    5    0  502 -0.41278693206E+02  0.38797102759E+02  0.84218980305E+02  0.10160744234E+03  0.47000000000E+01 0.  1.
         13    1    6    6    0    0 -0.32783929972E+02 -0.74860669799E+02  0.28603549823E+02  0.86585616644E+02  0.00000000000E+00 0. -1.
        -14    1    6    6    0    0 -0.81222249099E+01  0.83436300941E+01 -0.22122232525E+02  0.24999597447E+02  0.00000000000E+00 0.  1.
</event>
<event>
12    1  0.1615162E-001  0.1926249E+03  0.7818608E-02  0.1156476E+00
         21   -1    0    0  501  502  0.00000000000E+00  0.00000000000E+00  0.19104096907E+03  0.19104096907E+03  0.00000000000E+00 0. -1.
         21   -1    0    0  502  503 -0.00000000000E+00 -0.00000000000E+00 -0.44494229428E+03  0.44494229428E+03  0.00000000000E+00 0. -1.
         -6    2    1    2    0  503  0.13147246729E+02  0.87356645632E+02 -0.36666067395E+03  0.41417918501E+03  0.17117334445E+03 0.  0.
        -24    2    3    3    0    0  0.71272829153E+02  0.54445387359E+02 -0.28012415248E+03  0.30476075055E+03  0.79783819746E+02 0.  0.
          6    2    1    2  501    0 -0.13147246729E+02 -0.87356645632E+02  0.11275934874E+03  0.22180407833E+03  0.16934681811E+03 0.  0.
         24    2    5    5    0    0  0.28890830175E+02  0.89805515181E+01  0.42746994226E+02  0.95424193661E+02  0.79769297645E+02 0.  0.
          5    1    5    5  501    0 -0.42038076904E+02 -0.96337197150E+02  0.70012354511E+02  0.12637988467E+03  0.47000000000E+01 0. -1.
        -13    1    6    6    0    0 -0.55467513779E+01  0.18952745971E+02 -0.16793372024E+02  0.25922777139E+02  0.00000000000E+00 0.  1.
         14    1    6    6    0    0  0.34437581553E+02 -0.99721944526E+01  0.59540366249E+02  0.69501416522E+02  0.00000000000E+00 0. -1.
         -5    1    3    3    0  503 -0.58125582424E+02  0.32911258273E+02 -0.86536521467E+02  0.10941843447E+03  0.47000000000E+01 0.  1.
         11    1    4    4    0    0  0.70993871354E+02  0.49243879711E+02 -0.28488814779E+03  0.29770177395E+03  0.00000000000E+00 0. -1.
        -12    1    4    4    0    0  0.27895779972E+00  0.52015076482E+01  0.47639953160E+01  0.70589765999E+01  0.00000000000E+00 0.  1.
</event>
<event>
12    1  0.1615162E-001  0.1810829E+03  0.7818608E-02  0.1167414E+00
         21   -1    0    0  503  502  0.00000000000E+00  0.00000000000E+00  0.60185736139E+03  0.60185736139E+03  0.00000000000E+00 0. -1.
         21   -1    0    0  501  503 -0.00000000000E+00 -0.00000000000E+00 -0.54000172578E+02  0.54000172578E+02  0.00000000000E+00 0. -1.
          6    2    1    2  501    0  0.40739701020E+02 -0.23436530192E+02  0.24629147561E+03  0.30410066410E+03  0.17207187092E+03 0.  0.
         24    2    3    3    0    0  0.79853111084E+02  0.25610863889E+02  0.14721073149E+03  0.18673546667E+03  0.78528334676E+02 0.  0.
         -6    2    1    2    0  502 -0.40739701020E+02  0.23436530192E+02  0.30156571320E+03  0.35175686986E+03  0.17487716241E+03 0.  0.
        -24    2    5    5    0    0  0.53361780862E+01 -0.17469492848E+01  0.47246839770E+02  0.92031296122E+02  0.78777972614E+02 0.  0.
          5    1    3    3  501    0 -0.39113410065E+02 -0.49047394081E+02  0.99080744124E+02  0.11736519744E+03  0.47000000000E+01 0. -1.
        -13    1    4    4    0    0  0.46572903658E+01 -0.24192412305E+02  0.29193067828E+02  0.38199455177E+02  0.00000000000E+00 0.  1.
         14    1    4    4    0    0  0.75195820719E+02  0.49803276194E+02  0.11801766366E+03  0.14853601149E+03  0.00000000000E+00 0. -1.
         -5    1    5    5    0  502 -0.46075879106E+02  0.25183479477E+02  0.25431887343E+03  0.25972557374E+03  0.47000000000E+01 0.  1.
         13    1    6    6    0    0 -0.17460316328E+02 -0.18485793507E+02  0.56757322460E+02  0.62193093352E+02  0.00000000000E+00 0. -1.
        -14    1    6    6    0    0  0.22796494415E+02  0.16738844222E+02 -0.95104826904E+01  0.29838202769E+02  0.00000000000E+00 0.  1.
</event>
<event>
12    1  0.1615162E-001  0.2249564E+03  0.7818608E-02  0.1130270E+00
         21   -1    0    0  503  502  0.00000000000E+00  0.00000000000E+00  0.73295066774E+02  0.73295066774E+02  0.00000000000E+00 0. -1.
         21   -1    0    0  501  503 -0.00000000000E+00 -0.00000000000E+00 -0.94413286044E+03  0.94413286044E+03  0.00000000000E+00 0. -1.
          6    2    1    2  501    0 -0.10490490410E+03 -0.98262153500E+02 -0.69948870922E+03  0.73477197279E+03  0.17304597061E+03 0.  0.
         24    2    3    3    0    0 -0.88847210886E+02 -0.13861257521E+02 -0.25073718528E+03  0.27784596018E+03  0.79014430101E+02 0.  0.
         -6    2    1    2    0  502  0.10490490410E+03  0.98262153500E+02 -0.17134908444E+03  0.28265595443E+03  0.17283920308E+03 0.  0.
        -24    2    5    5    0    0  0.93676560610E+02  0.85853993351E+02 -0.48816107395E+02  0.15889627360E+03  0.81968330712E+02 0.  0.
          5    1    3    3  501    0 -0.16057693211E+02 -0.84400895978E+02 -0.44875152394E+03  0.45692601260E+03  0.47000000000E+01 0. -1.
        -11    1    4    4    0    0  0.34069579649E+00 -0.37305069848E+01  0.53228038554E+01  0.65088399022E+01  0.00000000000E+00 0.  1.
         12    1    4    4    0    0 -0.89187906682E+02 -0.10130750537E+02 -0.25605998914E+03  0.27133712028E+03  0.00000000000E+00 0. -1.
         -5    1    5    5    0  502  0.11228343488E+02  0.12408160149E+02 -0.12253297705E+03  0.12375968083E+03  0.47000000000E+01 0.  1.
         13    1    6    6    0    0  0.41547658423E+02  0.26536000738E+02 -0.61601434468E+02  0.78899328161E+02  0.00000000000E+00 0. -1.
        -14    1    6    6    0    0  0.52128902186E+02  0.59317992612E+02  0.12785327073E+02  0.79996945436E+02  0.00000000000E+00 0.  1.
</event>
<event>
12    1  0.1615162E-001  0.1723121E+03  0.7818608E-02  0.1175503E+00
         21   -1    0    0  503  502  0.00000000000E+00  0.00000000000E+00  0.60110258832E+03  0.60110258832E+03  0.00000000000E+00 0. -1.
         21   -1    0    0  501  503 -0.00000000000E+00 -0.00000000000E+00 -0.15595837783E+03  0.15595837783E+03  0.00000000000E+00 0. -1.
          6    2    1    2  501    0  0.71914541469E+01 -0.11715366998E+02 -0.90361893640E+02  0.19456809707E+03  0.17176293471E+03 0.  0.
         24    2    3    3    0    0  0.25756073256E+02 -0.69640091126E+02 -0.72035524104E+02  0.13086672685E+03  0.80149022839E+02 0.  0.
         -6    2    1    2    0  502 -0.71914541469E+01  0.11715366998E+02  0.53550610413E+03  0.56249286908E+03  0.17158809216E+03 0.  0.
        -24    2    5    5    0    0 -0.18709970197E+02  0.57933735913E+02  0.48000333734E+03  0.48920261762E+03  0.72177673093E+02 0.  0.
          5    1    3    3  501    0 -0.18564619109E+02  0.57924724128E+02 -0.18326369536E+02  0.63701370224E+02  0.47000000000E+01 0. -1.
        -13    1    4    4    0    0  0.35930446741E+02 -0.15692416138E+02  0.13356343056E+01  0.39230509126E+02  0.00000000000E+00 0.  1.
         14    1    4    4    0    0 -0.10174373486E+02 -0.53947674988E+02 -0.73371158410E+02  0.91636217724E+02  0.00000000000E+00 0. -1.
         -5    1    5    5    0  502  0.11518516051E+02 -0.46218368916E+02  0.55502766793E+02  0.73290251459E+02  0.47000000000E+01 0.  1.
         11    1    6    6    0    0  0.27982776618E+01  0.55697705382E+02  0.18047958045E+03  0.18889929513E+03  0.00000000000E+00 0. -1.
        -12    1    6    6    0    0 -0.21508247859E+02  0.22360305314E+01  0.29952375689E+03  0.30030332249E+03  0.00000000000E+00 0.  1.
</event>
<event>
12    1  0.1615162E-001  0.2061132E+03  0.7818608E-02  0.1144735E+00
         21   -1    0    0  503  502  0.00000000000E+00  0.00000000000E+00  0.35493034681E+03  0.35493034681E+03  0.00000000000E+00 0.  1.
         21   -1    0    0  501  503 -0.00000000000E+00 -0.00000000000E+00 -0.16520260091E+03  0.16520260091E+03  0.00000000000E+00 0.  1.
          6    2    1    2  501    0  0.92805507669E+01  0.10803861831E+03 -0.41906572989E+02  0.21007312431E+03  0.17497452680E+03 0.  0.
         24    2    3    3    0    0 -0.46235130497E+02  0.46398482682E+02  0.22007451374E+02  0.10524665009E+03  0.79385281713E+02 0.  0.
         -6    2    1    2    0  502 -0.92805507669E+01 -0.10803861831E+03  0.23163431889E+03  0.31005982341E+03  0.17528309882E+03 0.  0.
        -24    2    5    5    0    0 -0.36865377379E+02 -0.12293439092E+03  0.12036765791E+03  0.19436554288E+03  0.82569187149E+02 0.  0.
          5    1    3    3  501    0  0.55515681264E+02  0.61640135628E+02 -0.63914024363E+02  0.10482647422E+03  0.47000000000E+01 0. -1.
        -13    1    4    4    0    0 -0.13724092442E+02  0.57528275477E+02 -0.79295152238E+01  0.59671856050E+02  0.00000000000E+00 0.  1.
         14    1    4    4    0    0 -0.32511038055E+02 -0.11129792795E+02  0.29936966597E+02  0.45574794044E+02  0.00000000000E+00 0. -1.
         -5    1    5    5    0  502  0.27584826612E+02  0.14895772614E+02  0.11126666098E+03  0.11569428053E+03  0.47000000000E+01 0.  1.
         13    1    6    6    0    0 -0.13357776768E+02 -0.80005131316E+02  0.21293214919E+02  0.83860910075E+02  0.00000000000E+00 0. -1.
        -14    1    6    6    0    0 -0.23507600611E+02 -0.42929259609E+02  0.99074442991E+02  0.11050463280E+03  0.00000000000E+00 0.  1.
</event>
<event>
12    1  0.1615162E-001  0.2318503E+03  0.7818608E-02  0.1125381E+00
         21   -1    0    0  501  502  0.00000000000E+00  0.00000000000E+00  0.72194326552E+03  0.72194326552E+03  0.00000000000E+00 0.  1.
         21   -1    0    0  502  503 -0.00000000000E+00 -0.00000000000E+00 -0.13949183747E+03  0.13949183747E+03  0.00000000000E+00 0.  1.
         -6    2    1    2    0  503  0.51948635688E+02 -0.14660439877E+03 -0.29515198700E+01  0.23186906536E+03  0.17193906337E+03 0.  0.
        -24    2    3    3    0    0  0.47532075420E+02 -0.13887055083E+02  0.23686188088E+02  0.96351329230E+02  0.79185823514E+02 0.  0.
          6    2    1    2  501    0 -0.51948635688E+02  0.14660439877E+03  0.58540294792E+03  0.62956603763E+03  0.17165451876E+03 0.  0.
         24    2    5    5    0    0 -0.78467028988E+02  0.37206285172E+02  0.32683645949E+03  0.34752013465E+03  0.80042429036E+02 0.  0.
          5    1    5    5  501    0  0.26518393299E+02  0.10939811360E+03  0.25856648843E+03  0.28204590297E+03  0.47000000000E+01 0. -1.
        -13    1    6    6    0    0 -0.54776347500E+02  0.56266211224E+02  0.16352484516E+03  0.18140206657E+03  0.00000000000E+00 0.  1.
         14    1    6    6    0    0 -0.23690681487E+02 -0.19059926051E+02  0.16331161433E+03  0.16611806809E+03  0.00000000000E+00 0. -1.
         -5    1    3    3    0  503  0.44165602679E+01 -0.13271734369E+03 -0.26637707958E+02  0.13551773613E+03  0.47000000000E+01 0.  1.
         13    1    4    4    0    0 -0.69344180790E+01 -0.82926664320E+01  0.38205939069E+02  0.39705771001E+02  0.00000000000E+00 0. -1.
        -14    1    4    4    0    0  0.54466493499E+02 -0.55943886514E+01 -0.14519750981E+02  0.56645558229E+02  0.00000000000E+00 0.  1.
</event>
<event>
12    1  0.1615162E-001  0.2289359E+03  0.7818608E-02  0.1128027E+00
         21   -1    0    0  503  502  0.00000000000E+00  0.00000000000E+00  0.13564303224E+04  0.13564303224E+04  0.00000000000E+00 0. -1.
         21   -1    0    0  501  503 -0.00000000000E+00 -0.00000000000E+00 -0.39208347962E+02  0.39208347962E+02  0.00000000000E+00 0. -1.
          6    2    1    2  501    0  0.14105609453E+03 -0.17343128685E+02  0.54318449309E+03  0.58945827497E+03  0.17948275259E+03 0.  0.
         24    2    3    3    0    0  0.34043741247E+02 -0.44127427406E+02  0.38058889671E+03  0.39291703152E+03  0.80185280413E+02 0.  0.
         -6    2    1    2    0  502 -0.14105609453E+03  0.17343128685E+02  0.77403748138E+03  0.80618039543E+03  0.17491484063E+03 0.  0.
        -24    2    5    5    0    0 -0.15772371079E+03 -0.14424277584E+02  0.71982628341E+03  0.74100431455E+03  0.76502857261E+02 0.  0.
          5    1    3    3  501    0  0.10701235328E+03  0.26784298721E+02  0.16259559638E+03  0.19654124345E+03  0.47000000000E+01 0. -1.
        -13    1    4    4    0    0  0.33623733002E+02  0.12304726931E+02  0.21537106403E+03  0.21832694966E+03  0.00000000000E+00 0.  1.
         14    1    4    4    0    0  0.42000824409E+00 -0.56432154338E+02  0.16521783268E+03  0.17459008186E+03  0.00000000000E+00 0. -1.
         -5    1    5    5    0  502  0.16667616260E+02  0.31767406269E+02  0.54211197972E+02  0.65176080876E+02  0.47000000000E+01 0.  1.
         13    1    6    6    0    0 -0.10866732289E+03 -0.32442901122E+02  0.59446730670E+03  0.60518799363E+03  0.00000000000E+00 0. -1.
        -14    1    6    6    0    0 -0.49056387892E+02  0.18018623538E+02  0.12535897671E+03  0.13581632092E+03  0.00000000000E+00 0.  1.
</event>
<event>
12    1  0.1615162E-001  0.2307706E+03  0.7818608E-02  0.1126185E+00
         21   -1    0    0  501  502  0.00000000000E+00  0.00000000000E+00  0.45883216723E+02  0.45883216723E+02  0.00000000000E+00 0.  1.
         21   -1    0    0  502  503 -0.00000000000E+00 -0.00000000000E+00 -0.25277522825E+04  0.25277522825E+04  0.00000000000E+00 0.  1.
         -6    2    1    2    0  503 -0.15313881847E+03  0.70872011052E+01 -0.21887359822E+04  0.22008680761E+04  0.17249162947E+03 0.  0.
        -24    2    3    3    0    0 -0.43619613760E+02 -0.75459696578E+01 -0.48318245259E+03  0.49173276301E+03  0.79851207678E+02 0.  0.
          6    2    1    2  501    0  0.15313881847E+03 -0.70872011052E+01 -0.29313308352E+03  0.37276742312E+03  0.17183370142E+03 0.  0.
         24    2    5    5    0    0  0.14136986642E+03 -0.51800617245E+02 -0.27314941844E+03  0.32217854405E+03  0.80744451039E+02 0.  0.
          5    1    5    5  501    0  0.11768952047E+02  0.44713416140E+02 -0.19983665076E+02  0.50588879065E+02  0.47000000000E+01 0. -1.
        -13    1    6    6    0    0  0.90510724832E+02 -0.35192474381E+02 -0.93786123592E+02  0.13500569818E+03  0.00000000000E+00 0.  1.
         14    1    6    6    0    0  0.50859141590E+02 -0.16608142864E+02 -0.17936329485E+03  0.18717284587E+03  0.00000000000E+00 0. -1.
         -5    1    3    3    0  503 -0.10951920471E+03  0.14633170763E+02 -0.17055535296E+04  0.17091353131E+04  0.47000000000E+01 0.  1.
         11    1    4    4    0    0  0.23405200484E+02 -0.61105318023E+01 -0.13684450397E+03  0.13896604001E+03  0.00000000000E+00 0. -1.
        -12    1    4    4    0    0 -0.67024814244E+02 -0.14354378555E+01 -0.34633794862E+03  0.35276672300E+03  0.00000000000E+00 0.  1.
</event>
<event>
12    1  0.1615162E-001  0.1924665E+03  0.7818608E-02  0.1157026E+00
         21   -1    0    0  503  502  0.00000000000E+00  0.00000000000E+00  0.93488889762E+02  0.93488889762E+02  0.00000000000E+00 0.  1.
         21   -1    0    0  501  503 -0.00000000000E+00 -0.00000000000E+00 -0.62543906972E+03  0.62543906972E+03  0.00000000000E+00 0. -1.
          6    2    1    2  501    0 -0.80907512094E+01  0.73259314798E+02 -0.48839386093E+03  0.52494943064E+03  0.17779469585E+03 0.  0.
         24    2    3    3    0    0  0.40980885670E+02  0.90067182030E+02 -0.30075723936E+03  0.33021853504E+03  0.93796767455E+02 0.  0.
         -6    2    1    2    0  502  0.80907512094E+01 -0.73259314798E+02 -0.43556319030E+02  0.19397852885E+03  0.17406357823E+03 0.  0.
        -24    2    5    5    0    0  0.23171446224E+02 -0.46391339356E+02 -0.94453085024E+02  0.13429698853E+03  0.80157492286E+02 0.  0.
          5    1    3    3  501    0 -0.49071636880E+02 -0.16807867232E+02 -0.18763662157E+03  0.19473089560E+03  0.47000000000E+01 0. -1.
        -11    1    4    4    0    0 -0.22863282520E+02  0.45857059391E+02 -0.70039284454E+02  0.86781916033E+02  0.00000000000E+00 0.  1.
         12    1    4    4    0    0  0.63844168190E+02  0.44210122640E+02 -0.23071795491E+03  0.24343661900E+03  0.00000000000E+00 0. -1.
         -5    1    5    5    0  502 -0.15080695014E+02 -0.26867975443E+02  0.50896765993E+02  0.59681540321E+02  0.47000000000E+01 0.  1.
         13    1    6    6    0    0  0.12629027213E+02 -0.29835245623E+02 -0.10646503375E+03  0.11128538818E+03  0.00000000000E+00 0. -1.
        -14    1    6    6    0    0  0.10542419011E+02 -0.16556093733E+02  0.12011948731E+02  0.23011600348E+02  0.00000000000E+00 0.  1.
</event>
<event>
12    1  0.1615162E-001  0.3469034E+03  0.7818608E-02  0.1064134E+00
         21   -1    0    0  503  502  0.00000000000E+00  0.00000000000E+00  0.67824384971E+03  0.67824384971E+03  0.00000000000E+00 0.  1.
         21   -1    0    0  501  503 -0.00000000000E+00 -0.00000000000E+00 -0.20434810369E+03  0.20434810369E+03  0.00000000000E+00 0. -1.
          6    2    1    2  501    0 -0.16533744249E+03 -0.25169301584E+03  0.40125862188E+03  0.53042478458E+03  0.17220954199E+03 0.  0.
         24    2    3    3    0    0 -0.12738441690E+03 -0.26547897578E+03  0.36602859848E+03  0.47663138915E+03  0.80589515224E+02 0.  0.
         -6    2    1    2    0  502  0.16533744249E+03  0.25169301584E+03  0.72637124137E+02  0.35216716881E+03  0.16751035453E+03 0.  0.
        -24    2    5    5    0    0  0.14283664765E+03  0.26005693613E+03  0.92086433320E+02  0.32091646388E+03  0.80470787536E+02 0.  0.
          5    1    3    3  501    0 -0.37953025595E+02  0.13785959944E+02  0.35230023401E+02  0.53793395433E+02  0.47000000000E+01 0. -1.
        -13    1    4    4    0    0 -0.49683057504E+02 -0.56423959633E+02  0.51795959669E+02  0.91295623453E+02  0.00000000000E+00 0.  1.
         14    1    4    4    0    0 -0.77701359395E+02 -0.20905501615E+03  0.31423263881E+03  0.38533576570E+03  0.00000000000E+00 0. -1.
         -5    1    5    5    0  502  0.22500794844E+02 -0.83639202882E+01 -0.19449309183E+02  0.31250704935E+02  0.47000000000E+01 0.  1.
         13    1    6    6    0    0  0.15726241706E+02  0.10497795767E+03  0.21243999039E+02  0.10825430139E+03  0.00000000000E+00 0. -1.
        -14    1    6    6    0    0  0.12711040594E+03  0.15507897846E+03  0.70842434281E+02  0.21266216249E+03  0.00000000000E+00 0.  1.
</event>
<event>
12    1  0.1615162E-001  0.2078786E+03  0.7818608E-02  0.1144603E+00
         21   -1    0    0  503  502  0.00000000000E+00  0.00000000000E+00  0.11991213078E+04  0.11991213078E+04  0.00000000000E+00 0.  1.
         21   -1    0    0  501  503 -0.00000000000E+00 -0.00000000000E+00 -0.35585519117E+02  0.35585519117E+02  0.00000000000E+00 0.  1.
          6    2    1    2  501    0  0.70148877259E+02 -0.90986366849E+02  0.50550781439E+03  0.54658180358E+03  0.17324587630E+03 0.  0.
         24    2    3    3    0    0  0.43838810330E+02  0.18062386023E+02  0.27533447603E+03  0.29048474030E+03  0.79524961977E+02 0.  0.
         -6    2    1    2    0  502 -0.70148877259E+02  0.90986366849E+02  0.65802797427E+03  0.68812502332E+03  0.16527507031E+03 0.  0.
        -24    2    5    5    0    0 -0.87893398746E+02  0.23818602697E+02  0.52302221973E+03  0.53622038105E+03  0.75415378721E+02 0.  0.
          5    1    3    3  501    0  0.26310066928E+02 -0.10904875287E+03  0.23017333837E+03  0.25609706328E+03  0.47000000000E+01 0. -1.
        -11    1    4    4    0    0  0.45136526574E+02  0.34924470793E+02  0.10669490480E+03  0.12099928678E+03  0.00000000000E+00 0.  1.
         12    1    4    4    0    0 -0.12977162441E+01 -0.16862084770E+02  0.16863957123E+03  0.16948545352E+03  0.00000000000E+00 0. -1.
         -5    1    5    5    0  502  0.17744521487E+02  0.67167764152E+02  0.13500575455E+03  0.15190464228E+03  0.47000000000E+01 0.  1.
         13    1    6    6    0    0 -0.29081443889E+01 -0.11424829205E+02  0.11427171467E+02  0.16418412648E+02  0.00000000000E+00 0. -1.
        -14    1    6    6    0    0 -0.84985254357E+02  0.35243431902E+02  0.51159504826E+03  0.51980196840E+03  0.00000000000E+00 0.  1.
</event>
<event>
12    1  0.1615162E-001  0.2344616E+03  0.7818608E-02  0.1123760E+00
         21   -1    0    0  503  502  0.00000000000E+00  0.00000000000E+00  0.25436601769E+03  0.25436601769E+03  0.00000000000E+00 0.  1.
         21   -1    0    0  501  503 -0.00000000000E+00 -0.00000000000E+00 -0.24206646407E+03  0.24206646407E+03  0.00000000000E+00 0. -1.
          6    2    1    2  501    0 -0.38340377925E+02  0.15288373326E+03  0.89270301924E+02  0.25088134797E+03  0.17357662135E+03 0.  0.
         24    2    3    3    0    0  0.23252946441E+02  0.38300124576E+02 -0.77358313864E+01  0.88537820580E+02  0.75970412169E+02 0.  0.
         -6    2    1    2    0  502  0.38340377925E+02 -0.15288373326E+03 -0.76970748304E+02  0.24555113380E+03  0.17183551071E+03 0.  0.
        -24    2    5    5    0    0  0.84087339728E+02 -0.10451328083E+03 -0.19020855096E+02  0.15716128537E+03  0.79650298915E+02 0.  0.
          5    1    3    3  501    0 -0.61593324366E+02  0.11458360868E+03  0.97006133310E+02  0.16234352739E+03  0.47000000000E+01 0. -1.
        -11    1    4    4    0    0 -0.19680729295E+02 -0.60887058069E+01  0.11831742622E+02  0.23756969030E+02  0.00000000000E+00 0.  1.
         12    1    4    4    0    0  0.42933675737E+02  0.44388830383E+02 -0.19567574008E+02  0.64780851550E+02  0.00000000000E+00 0. -1.
         -5    1    5    5    0  502 -0.45746961804E+02 -0.48370452427E+02 -0.57949893208E+02  0.88389848428E+02  0.47000000000E+01 0.  1.
         13    1    6    6    0    0  0.69851427101E+02 -0.96172233870E+02 -0.44404829371E+02  0.12688620613E+03  0.00000000000E+00 0. -1.
        -14    1    6    6    0    0  0.14235912628E+02 -0.83410469633E+01  0.25383974274E+02  0.30275079236E+02  0.00000000000E+00 0.  1.
</event>
<event>
12    1  0.1615162E-001  0.2403517E+03  0.7818608E-02  0.1119783E+00
         21   -1    0    0  501  502  0.00000000000E+00  0.00000000000E+00  0.64246623768E+02  0.64246623768E+02  0.00000000000E+00 0.  1.
         21   -1    0    0  502  503 -0.00000000000E+00 -0.00000000000E+00 -0.13479890664E+04  0.13479890664E+04  0.00000000000E+00 0. -1.
         -6    2    1    2    0  503  0.14329435945E+03  0.86402593893E+02 -0.10527882974E+04  0.10798759922E+04  0.17254065500E+03 0.  0.
        -24    2    3    3    0    0  0.12947526980E+03  0.87276864127E+02 -0.49370654410E+03  0.52060304586E+03  0.53854277238E+02 0.  0.
          6    2    1    2  501    0 -0.14329435945E+03 -0.86402593893E+02 -0.23095414527E+03  0.33235969804E+03  0.17065892881E+03 0.  0.
         24    2    5    5    0    0 -0.86711789256E+02 -0.99981026856E+02 -0.22663689485E+03  0.27382176382E+03  0.78095685585E+02 0.  0.
          5    1    5    5  501    0 -0.56582570194E+02  0.13578432963E+02 -0.43172504175E+01  0.58537934219E+02  0.47000000000E+01 0. -1.
        -11    1    6    6    0    0 -0.97318691011E+02 -0.77242222155E+02 -0.20903409301E+03  0.24317183337E+03  0.00000000000E+00 0.  1.
         12    1    6    6    0    0  0.10606901755E+02 -0.22738804702E+02 -0.17602801843E+02  0.30649930454E+02  0.00000000000E+00 0. -1.
         -5    1    3    3    0  503  0.13819089651E+02 -0.87427023357E+00 -0.55908175330E+03  0.55927294629E+03  0.47000000000E+01 0.  1.
         11    1    4    4    0    0  0.63305797848E+02  0.22392349053E+02 -0.27485250162E+03  0.28293628079E+03  0.00000000000E+00 0. -1.
        -12    1    4    4    0    0  0.66169471951E+02  0.64884515074E+02 -0.21885404248E+03  0.23766676508E+03  0.00000000000E+00 0.  1.
</event>
<event>
12    1  0.1615162E-001  0.2018990E+03  0.7818608E-02  0.1148244E+00
         21   -1    0    0  503  502  0.00000000000E+00  0.00000000000E+00  0.65814329898E+03  0.65814329898E+03  0.00000000000E+00 0. -1.
         21   -1    0    0  501  503 -0.00000000000E+00 -0.00000000000E+00 -0.15065963077E+03  0.15065963077E+03  0.00000000000E+00 0. -1.
          6    2    1    2  501    0  0.78906655502E+02 -0.69840804596E+02 -0.56963762945E+02  0.20933308807E+03  0.17167257557E+03 0.  0.
         24    2    3    3    0    0  0.66668433046E+02 -0.50258016826E+02  0.30026778399E+02  0.11920704328E+03  0.79612583971E+02 0.  0.
         -6    2    1    2    0  502 -0.78906655502E+02  0.69840804596E+02  0.56444743116E+03  0.59946984168E+03  0.17221843767E+03 0.  0.
        -24    2    5    5    0    0 -0.12251877162E+03  0.61109801835E+02  0.44327255819E+03  0.47030449447E+03  0.77139480124E+02 0.  0.
          5    1    3    3  501    0  0.12238222456E+02 -0.19582787770E+02 -0.86990541345E+02  0.90126044788E+02  0.47000000000E+01 0. -1.
        -11    1    4    4    0    0  0.23593120222E+01  0.19668207882E+02  0.85638996637E+00  0.19827711877E+02  0.00000000000E+00 0.  1.
         12    1    4    4    0    0  0.64309121024E+02 -0.69926224708E+02  0.29170388433E+02  0.99379331403E+02  0.00000000000E+00 0. -1.
         -5    1    5    5    0  502  0.43612116115E+02  0.87310027613E+01  0.12117487297E+03  0.12916534721E+03  0.47000000000E+01 0.  1.
         13    1    6    6    0    0 -0.30900497138E+02  0.57683189647E+02  0.18024904427E+03  0.19176002986E+03  0.00000000000E+00 0. -1.
        -14    1    6    6    0    0 -0.91618274479E+02  0.34266121880E+01  0.26302351392E+03  0.27854446461E+03  0.00000000000E+00 0.  1.
</event>
<event>
12    1  0.1615162E-001  0.2554249E+03  0.7818608E-02  0.1110051E+00
         21   -1    0    0  501  502  0.00000000000E+00  0.00000000000E+00  0.99974006483E+03  0.99974006483E+03  0.00000000000E+00 0.  1.
         21   -1    0    0  502  503 -0.00000000000E+00 -0.00000000000E+00 -0.11737490617E+03  0.11737490617E+03  0.00000000000E+00 0.  1.
         -6    2    1    2    0  503 -0.58403073543E+02 -0.17892846837E+03  0.81452281775E+03  0.85363300612E+03  0.17267186424E+03 0.  0.
        -24    2    3    3    0    0 -0.15058516212E+02 -0.11747297518E+02  0.19786267441E+03  0.21322679368E+03  0.77144472968E+02 0.  0.
          6    2    1    2  501    0  0.58403073543E+02  0.17892846837E+03  0.67842340899E+02  0.26348196488E+03  0.17144633798E+03 0.  0.
         24    2    5    5    0    0  0.44575243379E+02  0.15665916722E+03 -0.92933091761E+01  0.18187847738E+03  0.80401293142E+02 0.  0.
          5    1    5    5  501    0  0.13827830164E+02  0.22269301145E+02  0.77135650075E+02  0.81603487505E+02  0.47000000000E+01 0. -1.
        -13    1    6    6    0    0  0.43668866657E+02  0.10865630040E+03 -0.41304251855E+02  0.12417408246E+03  0.00000000000E+00 0.  1.
         14    1    6    6    0    0  0.90637672230E+00  0.48002866820E+02  0.32010942678E+02  0.57704394918E+02  0.00000000000E+00 0. -1.
         -5    1    3    3    0  503 -0.43344557331E+02 -0.16718117085E+03  0.61666014335E+03  0.64040621244E+03  0.47000000000E+01 0.  1.
         11    1    4    4    0    0  0.22229426156E+02 -0.26667828388E+02  0.12818174370E+03  0.13280015013E+03  0.00000000000E+00 0. -1.
        -12    1    4    4    0    0 -0.37287942368E+02  0.14920530869E+02  0.69680930713E+02  0.80426643548E+02  0.00000000000E+00 0.  1.
</event>
<event>
12    1  0.1615162E-001  0.2130343E+03  0.7818608E-02  0.1139328E+00
         21   -1    0    0  503  502  0.00000000000E+00  0.00000000000E+00  0.22238058200E+03  0.22238058200E+03  0.00000000000E+00 0.  1.
         21   -1    0    0  501  503 -0.00000000000E+00 -0.00000000000E+00 -0.22083682678E+03  0.22083682678E+03  0.00000000000E+00 0.  1.
          6    2    1    2  501    0  0.12354281480E+03 -0.23029597034E+02 -0.61529699215E+02  0.22174199929E+03  0.17201866449E+03 0.  0.
         24    2    3    3    0    0  0.87426212165E+02 -0.57455315827E+02  0.11072651370E+02  0.13352221460E+03  0.82226043880E+02 0.  0.
         -6    2    1    2    0  502 -0.12354281480E+03  0.23029597034E+02  0.63073454437E+02  0.22147540950E+03  0.17111372514E+03 0.  0.
        -24    2    5    5    0    0 -0.53963118864E+01  0.29508573181E+01 -0.10890864727E+02  0.80569190870E+02  0.79592435834E+02 0.  0.
          5    1    3    3  501    0  0.36116602633E+02  0.34425718794E+02 -0.72602350585E+02  0.88219784689E+02  0.47000000000E+01 0. -1.
        -11    1    4    4    0    0  0.38550194201E+02  0.20570209382E+01 -0.27493764816E+02  0.47394682317E+02  0.00000000000E+00 0.  1.
         12    1    4    4    0    0  0.48876017963E+02 -0.59512336766E+02  0.38566416186E+02  0.86127532280E+02  0.00000000000E+00 0. -1.
         -5    1    5    5    0  502 -0.11814650291E+03  0.20078739716E+02  0.73964319164E+02  0.14090621863E+03  0.47000000000E+01 0.  1.
         11    1    6    6    0    0  0.11675151035E+02 -0.30596812761E+02 -0.24118083246E+02  0.40671317194E+02  0.00000000000E+00 0. -1.
        -12    1    6    6    0    0 -0.17071462922E+02  0.33547670080E+02  0.13227218520E+02  0.39897873675E+02  0.00000000000E+00 0.  1.
</event>
<event>
12    1  0.1615162E-001  0.2124792E+03  0.7818608E-02  0.1139632E+00
         21   -1    0    0  501  502  0.00000000000E+00  0.00000000000E+00  0.39894194888E+03  0.39894194888E+03  0.00000000000E+00 0. -1.
         21   -1    0    0  502  503 -0.00000000000E+00 -0.00000000000E+00 -0.13319502128E+03  0.13319502128E+03  0.00000000000E+00 0. -1.
         -6    2    1    2    0  503  0.66221169003E+02 -0.10738508712E+03  0.23616891890E+03  0.31768406765E+03  0.17096961259E+03 0.  0.
        -24    2    3    3    0    0  0.71580244698E+02 -0.12880114813E+03  0.13965319664E+03  0.21856423107E+03  0.80955793981E+02 0.  0.
          6    2    1    2  501    0 -0.66221169003E+02  0.10738508712E+03  0.29578008700E+02  0.21445290251E+03  0.17087535995E+03 0.  0.
         24    2    5    5    0    0 -0.59583138163E+02 -0.39963013745E+01 -0.13845797175E+01  0.98562225417E+02  0.78399454335E+02 0.  0.
          5    1    5    5  501    0 -0.66380308399E+01  0.11138138849E+03  0.30962588418E+02  0.11589067709E+03  0.47000000000E+01 0. -1.
        -13    1    6    6    0    0 -0.61276241631E+01  0.55407369401E+01  0.33181249086E+02  0.34194192996E+02  0.00000000000E+00 0.  1.
         14    1    6    6    0    0 -0.53455514000E+02 -0.95370383145E+01 -0.34565828803E+02  0.64368032421E+02  0.00000000000E+00 0. -1.
         -5    1    3    3    0  503 -0.53590756949E+01  0.21416061019E+02  0.96515722250E+02  0.99119836579E+02  0.47000000000E+01 0.  1.
         11    1    4    4    0    0  0.55768433247E+02 -0.21685913947E+02  0.48247035327E+02  0.76864643552E+02  0.00000000000E+00 0. -1.
        -12    1    4    4    0    0  0.15811811451E+02 -0.10711523419E+03  0.91406161318E+02  0.14169958752E+03  0.00000000000E+00 0.  1.
</event>
<event>
12    1  0.1615162E-001  0.1883166E+03  0.7818608E-02  0.1162169E+00
         21   -1    0    0  503  502  0.00000000000E+00  0.00000000000E+00  0.21275998572E+03  0.21275998572E+03  0.00000000000E+00 0. -1.
         21   -1    0    0  501  503 -0.00000000000E+00 -0.00000000000E+00 -0.16059362771E+03  0.16059362771E+03  0.00000000000E+00 0.  1.
          6    2    1    2  501    0  0.55864062551E+02 -0.42010987518E+02  0.43785076499E+01  0.17906823583E+03  0.16480456667E+03 0.  0.
         24    2    3    3    0    0 -0.73944252190E+01  0.75679457259E+01 -0.47765097809E+02  0.83147682832E+02  0.67231549623E+02 0.  0.
         -6    2    1    2    0  502 -0.55864062551E+02  0.42010987518E+02  0.47787850360E+02  0.19428537760E+03  0.17486398357E+03 0.  0.
        -24    2    5    5    0    0 -0.13709894901E+02  0.84417230585E+02  0.63016813743E+02  0.13240424455E+03  0.79028698100E+02 0.  0.
          5    1    3    3  501    0  0.63258487770E+02 -0.49578933244E+02  0.52143605459E+02  0.95920552995E+02  0.47000000000E+01 0. -1.
        -13    1    4    4    0    0  0.18349529283E+02 -0.21856363453E+02 -0.24781428405E+02  0.37795833660E+02  0.00000000000E+00 0.  1.
         14    1    4    4    0    0 -0.25743954502E+02  0.29424309178E+02 -0.22983669404E+02  0.45351849172E+02  0.00000000000E+00 0. -1.
         -5    1    5    5    0  502 -0.42154167650E+02 -0.42406243066E+02 -0.15228963384E+02  0.61881133046E+02  0.47000000000E+01 0.  1.
         11    1    6    6    0    0  0.24122558196E+02  0.14069681044E+02  0.40898349432E+02  0.49523012074E+02  0.00000000000E+00 0. -1.
        -12    1    6    6    0    0 -0.37832453097E+02  0.70347549541E+02  0.22118464312E+02  0.82881232479E+02  0.00000000000E+00 0.  1.
</event>
<event>
12    1  0.1615162E-001  0.2410496E+03  0.7818608E-02  0.1119527E+00
         21   -1    0    0  501  502  0.00000000000E+00  0.00000000000E+00  0.61155822959E+02  0.61155822959E+02  0.00000000000E+00 0. -1.
         21   -1    0    0  502  503 -0.00000000000E+00 -0.00000000000E+00 -0.99934896479E+03  0.99934896479E+03  0.00000000000E+00 0. -1.
         -6    2    1    2    0  503 -0.14348957344E+03 -0.84949652605E+02 -0.59600250584E+03  0.64193655748E+03  0.17046364919E+03 0.  0.
        -24    2    3    3    0    0 -0.11735623667E+03 -0.20090094688E+02 -0.51557302514E+03  0.53525617077E+03  0.80669237621E+02 0.  0.
          6    2    1    2  501    0  0.14348957344E+03  0.84949652605E+02 -0.34219063599E+03  0.41856823027E+03  0.17406674257E+03 0.  0.
         24    2    5    5    0    0  0.11398579802E+03  0.12627171683E+03 -0.28938170750E+03  0.34515938418E+03  0.80348735083E+02 0.  0.
          5    1    5    5  501    0  0.29503775418E+02 -0.41322064230E+02 -0.52808928494E+02  0.73408846094E+02  0.47000000000E+01 0. -1.
        -11    1    6    6    0    0 -0.12384922358E+02  0.16803042346E+02 -0.29337453625E+02  0.36005759526E+02  0.00000000000E+00 0.  1.
         12    1    6    6    0    0  0.12637072038E+03  0.10946867449E+03 -0.26004425388E+03  0.30915362465E+03  0.00000000000E+00 0. -1.
         -5    1    3    3    0  503 -0.26133336768E+02 -0.64859557917E+02 -0.80429480694E+02  0.10668038671E+03  0.47000000000E+01 0.  1.
         11    1    4    4    0    0 -0.44100762928E+02 -0.18754541735E+02 -0.36135034246E+03  0.36451430716E+03  0.00000000000E+00 0. -1.
        -12    1    4    4    0    0 -0.73255473740E+02 -0.13355529532E+01 -0.15422268269E+03  0.17074186361E+03  0.00000000000E+00 0.  1.
</event>
<event>
12    1  0.1615162E-001  0.2085101E+03  0.7818608E-02  0.1142761E+00
         21   -1    0    0  501  502  0.00000000000E+00  0.00000000000E+00  0.18209723971E+03  0.18209723971E+03  0.00000000000E+00 0. -1.
         21   -1    0    0  502  503 -0.00000000000E+00 -0.00000000000E+00 -0.24883487073E+03  0.24883487073E+03  0.00000000000E+00 0.  1.
         -6    2    1    2    0  503 -0.10097487296E+03 -0.61275978088E+02 -0.76854030174E+02  0.22217669763E+03  0.17177098869E+03 0.  0.
        -24    2    3    3    0    0 -0.56426669851E+02 -0.34826775066E+02  0.27617691561E+02  0.10546965679E+03  0.77228481037E+02 0.  0.
          6    2    1    2  501    0  0.10097487296E+03  0.61275978088E+02  0.10116399158E+02  0.20875541281E+03  0.17183076088E+03 0.  0.
         24    2    5    5    0    0 -0.23752864615E+01  0.62997679240E+02 -0.14138946591E+02  0.10247920896E+03  0.79547023094E+02 0.  0.
          5    1    5    5  501    0  0.10335015942E+03 -0.17217011520E+01  0.24255345749E+02  0.10627620385E+03  0.47000000000E+01 0. -1.
        -11    1    6    6    0    0  0.39122993642E+01  0.21844206319E+02 -0.45322737989E+02  0.50464106203E+02  0.00000000000E+00 0.  1.
         12    1    6    6    0    0 -0.62875858257E+01  0.41153472920E+02  0.31183791398E+02  0.52015102758E+02  0.00000000000E+00 0. -1.
         -5    1    3    3    0  503 -0.44548203108E+02 -0.26449203021E+02 -0.10447172174E+03  0.11670704085E+03  0.47000000000E+01 0.  1.
         13    1    4    4    0    0 -0.64482866461E+02 -0.13889102061E+02 -0.46995734778E+01  0.66128913601E+02  0.00000000000E+00 0. -1.
        -14    1    4    4    0    0  0.80561966107E+01 -0.20937673005E+02  0.32317265039E+02  0.39340743185E+02  0.00000000000E+00 0.  1.
</event>
<event>
12    1  0.1615162E-001  0.1870392E+03  0.7818608E-02  0.1161276E+00
         21   -1    0    0  503  502  0.00000000000E+00  0.00000000000E+00  0.40221413205E+03  0.40221413205E+03  0.00000000000E+00 0.  1.
         21   -1    0    0  501  503 -0.00000000000E+00 -0.00000000000E+00 -0.93296410521E+02  0.93296410521E+02  0.00000000000E+00 0.  1.
          6    2    1    2  501    0  0.46455130694E+02 -0.51403958783E+02  0.22031820979E+03  0.28900479285E+03  0.17373315913E+03 0.  0.
         24    2    3    3    0    0 -0.36187871873E+02 -0.53927821533E+02  0.13364742131E+03  0.16912922682E+03  0.80779267982E+02 0.  0.
         -6    2    1    2    0  502 -0.46455130694E+02  0.51403958783E+02  0.88599511736E+02  0.20650574971E+03  0.17318864004E+03 0.  0.
        -24    2    5    5    0    0  0.13750649391E+02  0.60987733562E+02  0.26635988848E+01  0.10103700642E+03  0.79327157415E+02 0.  0.
          5    1    3    3  501    0  0.82643002567E+02  0.25238627502E+01  0.86670788485E+02  0.11987556604E+03  0.47000000000E+01 0. -1.
        -11    1    4    4    0    0  0.27476026853E+01 -0.40505334834E+02  0.11847695335E+03  0.12523984967E+03  0.00000000000E+00 0.  1.
         12    1    4    4    0    0 -0.38935474558E+02 -0.13422486699E+02  0.15170467958E+02  0.43889377146E+02  0.00000000000E+00 0. -1.
         -5    1    5    5    0  502 -0.60205780085E+02 -0.95837747792E+01  0.85935912851E+02  0.10546874329E+03  0.47000000000E+01 0.  1.
         13    1    6    6    0    0 -0.26435780961E+02 -0.16206907854E+01  0.28724124777E+01  0.26640718967E+02  0.00000000000E+00 0. -1.
        -14    1    6    6    0    0  0.40186430351E+02  0.62608424348E+02 -0.20881359294E+00  0.74396287453E+02  0.00000000000E+00 0.  1.
</event>
<event>
12    1  0.1615162E-001  0.2535468E+03  0.7818608E-02  0.1111215E+00
         21   -1    0    0  501  502  0.00000000000E+00  0.00000000000E+00  0.39017905964E+03  0.39017905964E+03  0.00000000000E+00 0.  1.
         21   -1    0    0  502  503 -0.00000000000E+00 -0.00000000000E+00 -0.48852885668E+03  0.48852885668E+03  0.00000000000E+00 0. -1.
         -6    2    1    2    0  503  0.12740975347E+02 -0.18342997194E+03 -0.40717878216E+03  0.47966710305E+03  0.17457686573E+03 0.  0.
        -24    2    3    3    0    0 -0.43664053839E+02 -0.43733856091E+02 -0.18157195683E+03  0.20834246035E+03  0.81357270793E+02 0.  0.
          6    2    1    2  501    0 -0.12740975347E+02  0.18342997194E+03  0.30882898513E+03  0.39904081327E+03  0.17334745901E+03 0.  0.
         24    2    5    5    0    0 -0.64884314310E+02  0.77084255963E+02  0.20317958868E+03  0.24025723706E+03  0.79307237649E+02 0.  0.
          5    1    5    5  501    0  0.52143338963E+02  0.10634571598E+03  0.10564939644E+03  0.15878357621E+03  0.47000000000E+01 0. -1.
        -13    1    6    6    0    0 -0.60509921076E+02  0.10452432963E+02  0.94212462904E+02  0.11245751229E+03  0.00000000000E+00 0.  1.
         14    1    6    6    0    0 -0.43743932340E+01  0.66631823000E+02  0.10896712578E+03  0.12779972477E+03  0.00000000000E+00 0. -1.
         -5    1    3    3    0  503  0.56405029186E+02 -0.13969611585E+03 -0.22560682533E+03  0.27132464270E+03  0.47000000000E+01 0.  1.
         11    1    4    4    0    0  0.28573903517E+01  0.17175920646E+02 -0.75476930716E+02  0.77459305444E+02  0.00000000000E+00 0. -1.
        -12    1    4    4    0    0 -0.46521444190E+02 -0.60909776736E+02 -0.10609502612E+03  0.13088315491E+03  0.00000000000E+00 0.  1.
</event>
<event>
12    1  0.1615162E-001  0.1993088E+03  0.7818608E-02  0.1153627E+00
         21   -1    0    0  501  502  0.00000000000E+00  0.00000000000E+00  0.21912352621E+04  0.21912352621E+04  0.00000000000E+00 0. -1.
         21   -1    0    0  502  503 -0.00000000000E+00 -0.00000000000E+00 -0.48147791171E+02  0.48147791171E+02  0.00000000000E+00 0. -1.
         -6    2    1    2    0  503  0.59993147261E+02 -0.31444865245E+02  0.18279267624E+03  0.27043880374E+03  0.18744606375E+03 0.  0.
        -24    2    3    3    0    0  0.67177092633E+02  0.48253666982E+02  0.13323209205E+03  0.17619546650E+03  0.80329782216E+02 0.  0.
          6    2    1    2  501    0 -0.59993147261E+02  0.31444865245E+02  0.19602947947E+04  0.19689442495E+04  0.17145792013E+03 0.  0.
         24    2    5    5    0    0 -0.10678738983E+03  0.34717854747E+02  0.15298305667E+04  0.15359061967E+04  0.77571942372E+02 0.  0.
          5    1    5    5  501    0  0.46794242573E+02 -0.32729895014E+01  0.43046422796E+03  0.43303805277E+03  0.47000000000E+01 0. -1.
        -11    1    6    6    0    0 -0.16632401217E+02 -0.21732008729E+02  0.20612787109E+03  0.20793656776E+03  0.00000000000E+00 0.  1.
         12    1    6    6    0    0 -0.90154988617E+02  0.56449863476E+02  0.13237026956E+04  0.13279696290E+04  0.00000000000E+00 0. -1.
         -5    1    3    3    0  503 -0.71839453719E+01 -0.79698532227E+02  0.49560584184E+02  0.94243337244E+02  0.47000000000E+01 0.  1.
         11    1    4    4    0    0  0.64738641505E+02  0.47828291823E+01  0.48847583482E+02  0.81240713752E+02  0.00000000000E+00 0. -1.
        -12    1    4    4    0    0  0.24384511281E+01  0.43470837799E+02  0.84384508570E+02  0.94954752748E+02  0.00000000000E+00 0.  1.
</event>
<event>
12    1  0.1615162E-001  0.1728670E+03  0.7818608E-02  0.1175666E+00
         21   -1    0    0  501  502  0.00000000000E+00  0.00000000000E+00  0.80722375440E+03  0.80722375440E+03  0.00000000000E+00 0. -1.
         21   -1    0    0  502  503 -0.00000000000E+00 -0.00000000000E+00 -0.37909589775E+02  0.37909589775E+02  0.00000000000E+00 0. -1.
         -6    2    1    2    0  503  0.19638710972E+02 -0.52339844845E+01  0.46635944332E+03  0.49632886223E+03  0.16863610391E+03 0.  0.
        -24    2    3    3    0    0 -0.71878561308E+01 -0.64545986628E+02  0.33538010960E+03  0.34998934547E+03  0.76124072182E+02 0.  0.
          6    2    1    2  501    0 -0.19638710972E+02  0.52339844845E+01  0.30295472130E+03  0.34880448195E+03  0.17166808062E+03 0.  0.
         24    2    5    5    0    0 -0.36217605584E+02 -0.42609772462E+02  0.27107590873E+03  0.28878587220E+03  0.82388251732E+02 0.  0.
          5    1    5    5  501    0  0.16578894612E+02  0.47843756946E+02  0.31878812572E+02  0.60018609750E+02  0.47000000000E+01 0. -1.
        -11    1    6    6    0    0 -0.25228650860E+02 -0.38244188233E+02  0.51652389492E+02  0.69043986690E+02  0.00000000000E+00 0.  1.
         12    1    6    6    0    0 -0.10988954724E+02 -0.43655842289E+01  0.21942351924E+03  0.21974188551E+03  0.00000000000E+00 0. -1.
         -5    1    3    3    0  503  0.26826567103E+02  0.59312002143E+02  0.13097933372E+03  0.14633951675E+03  0.47000000000E+01 0.  1.
         11    1    4    4    0    0  0.12559831902E+02 -0.71652949348E+02  0.19651567959E+03  0.20954786292E+03  0.00000000000E+00 0. -1.
        -12    1    4    4    0    0 -0.19747688033E+02  0.71069627203E+01  0.13886443001E+03  0.14044148256E+03  0.00000000000E+00 0.  1.
</event>
<event>
12    1  0.1615162E-001  0.2289759E+03  0.7818608E-02  0.1127556E+00
         21   -1    0    0  501  502  0.00000000000E+00  0.00000000000E+00  0.12473057470E+03  0.12473057470E+03  0.00000000000E+00 0.  1.
         21   -1    0    0  502  503 -0.00000000000E+00 -0.00000000000E+00 -0.11053081232E+04  0.11053081232E+04  0.00000000000E+00 0. -1.
         -6    2    1    2    0  503 -0.14002458530E+03 -0.58130500603E+02 -0.97558507250E+03  0.10020959120E+04  0.17159237614E+03 0.  0.
        -24    2    3    3    0    0 -0.12491312322E+03  0.23487214141E+02 -0.52783512140E+03  0.54669288570E+03  0.64095696476E+02 0.  0.
          6    2    1    2  501    0  0.14002458530E+03  0.58130500603E+02 -0.49924759894E+01  0.22794278589E+03  0.17013802995E+03 0.  0.
         24    2    5    5    0    0  0.85261931638E+02 -0.19539914429E+01 -0.58519255615E+02  0.13049382203E+03  0.79565817037E+02 0.  0.
          5    1    5    5  501    0  0.54762653665E+02  0.60084492046E+02  0.53526779625E+02  0.97448963863E+02  0.47000000000E+01 0. -1.
        -13    1    6    6    0    0  0.30183331915E+02 -0.22435825959E+02  0.11268755331E+02  0.39260471962E+02  0.00000000000E+00 0.  1.
         14    1    6    6    0    0  0.55078599723E+02  0.20481834516E+02 -0.69788010946E+02  0.91233350067E+02  0.00000000000E+00 0. -1.
         -5    1    3    3    0  503 -0.15111462083E+02 -0.81617714745E+02 -0.44774995110E+03  0.45540302629E+03  0.47000000000E+01 0.  1.
         11    1    4    4    0    0 -0.44760656767E+02 -0.19972109337E+02 -0.14164307599E+03  0.14988383009E+03  0.00000000000E+00 0. -1.
        -12    1    4    4    0    0 -0.80152466453E+02  0.43459323478E+02 -0.38619204541E+03  0.39680905561E+03  0.00000000000E+00 0.  1.
</event>
<event>
12    1  0.1615162E-001  0.1969157E+03  0.7818608E-02  0.1152842E+00
         21   -1    0    0  501  502  0.00000000000E+00  0.00000000000E+00  0.16676015529E+03  0.16676015529E+03  0.00000000000E+00 0. -1.
         21   -1    0    0  502  503 -0.00000000000E+00 -0.00000000000E+00 -0.25705590089E+03  0.25705590089E+03  0.00000000000E+00 0. -1.
         -6    2    1    2    0  503 -0.88819155986E+02  0.37220008173E+02  0.23446362963E+02  0.19830665880E+03  0.17176037817E+03 0.  0.
        -24    2    3    3    0    0 -0.60999127688E+02  0.36943707263E+02 -0.52257002082E+02  0.11751606655E+03  0.77417701765E+02 0.  0.
          6    2    1    2  501    0  0.88819155986E+02 -0.37220008173E+02 -0.11374210856E+03  0.22550939738E+03  0.16924257611E+03 0.  0.
         24    2    5    5    0    0  0.11886629547E+03 -0.38874135754E+02 -0.53156674812E+02  0.15769898880E+03  0.80018400138E+02 0.  0.
          5    1    5    5  501    0 -0.30047139487E+02  0.16541275806E+01 -0.60585433748E+02  0.67810408581E+02  0.47000000000E+01 0. -1.
        -13    1    6    6    0    0  0.52508315479E+01  0.54872208522E+01 -0.33262229975E+02  0.34118276151E+02  0.00000000000E+00 0.  1.
         14    1    6    6    0    0  0.11361546393E+03 -0.44361356606E+02 -0.19894444837E+02  0.12358071265E+03  0.00000000000E+00 0. -1.
         -5    1    3    3    0  503 -0.27820028298E+02  0.27630091078E+00  0.75703365045E+02  0.80790592249E+02  0.47000000000E+01 0.  1.
         11    1    4    4    0    0  0.80897424326E+01  0.34838160035E+02 -0.13197130755E+02  0.38122245309E+02  0.00000000000E+00 0. -1.
        -12    1    4    4    0    0 -0.69088870120E+02  0.21055472275E+01 -0.39059871328E+02  0.79393821244E+02  0.00000000000E+00 0.  1.
</event>
<event>
12    1  0.1615162E-001  0.2538332E+03  0.7818608E-02  0.1110928E+00
         21   -1    0    0  501  502  0.00000000000E+00  0.00000000000E+00  0.20568739984E+03  0.20568739984E+03  0.00000000000E+00 0.  1.
         21   -1    0    0  502  503 -0.00000000000E+00 -0.00000000000E+00 -0.32356037945E+03  0.32356037945E+03  0.00000000000E+00 0. -1.
         -6    2    1    2    0  503  0.18627575036E+03 -0.15948731020E+02 -0.10658622477E+03  0.27530327718E+03  0.17169232342E+03 0.  0.
        -24    2    3    3    0    0  0.95865904590E+02 -0.71024778044E+02 -0.84762987201E+02  0.16711060245E+03  0.80662250727E+02 0.  0.
          6    2    1    2  501    0 -0.18627575036E+03  0.15948731020E+02 -0.11286754840E+02  0.25394450211E+03  0.17148586566E+03 0.  0.
         24    2    5    5    0    0 -0.18308429438E+03 -0.29511632134E+02  0.10719947760E+02  0.20311916425E+03  0.82168621295E+02 0.  0.
          5    1    5    5  501    0 -0.31914559822E+01  0.45460363154E+02 -0.22006702600E+02  0.50825337861E+02  0.47000000000E+01 0. -1.
        -13    1    6    6    0    0 -0.13351478623E+03  0.12146584566E+02  0.26063598216E+02  0.13657616487E+03  0.00000000000E+00 0.  1.
         14    1    6    6    0    0 -0.49569508142E+02 -0.41658216700E+02 -0.15343650456E+02  0.66542999372E+02  0.00000000000E+00 0. -1.
         -5    1    3    3    0  503  0.90409845769E+02  0.55076047024E+02 -0.21823237573E+02  0.10819267473E+03  0.47000000000E+01 0.  1.
         11    1    4    4    0    0  0.10492503630E+03 -0.62318337236E+02 -0.91800410317E+02  0.15270937670E+03  0.00000000000E+00 0. -1.
        -12    1    4    4    0    0 -0.90591317101E+01 -0.87064408081E+01  0.70374231157E+01  0.14401225746E+02  0.00000000000E+00 0.  1.
</event>
<event>
12    1  0.1615162E-001  0.2312678E+03  0.7818608E-02  0.1125903E+00
         21   -1    0    0  503  502  0.00000000000E+00  0.00000000000E+00  0.14441229045E+04  0.14441229045E+04  0.00000000000E+00 0. -1.
         21   -1    0    0  501  503 -0.00000000000E+00 -0.00000000000E+00 -0.38307228893E+02  0.38307228893E+02  0.00000000000E+00 0. -1.
          6    2    1    2  501    0 -0.17404441230E+01  0.15368138308E+03  0.55943494381E+03  0.60502193056E+03  0.17164813850E+03 0.  0.
         24    2    3    3    0    0 -0.35517193909E+02  0.32151269735E+02  0.16061865137E+03  0.18670750051E+03  0.82256698012E+02 0.  0.
         -6    2    1    2    0  502  0.17404441230E+01 -0.15368138308E+03  0.84638073184E+03  0.87740820288E+03  0.17281150019E+03 0.  0.
        -24    2    5    5    0    0 -0.14174118505E+02 -0.15440726633E+03  0.47818264093E+03  0.50883565322E+03  0.78819885644E+02 0.  0.
          5    1    3    3  501    0  0.33776749786E+02  0.12153011335E+03  0.39881629244E+03  0.41831443005E+03  0.47000000000E+01 0. -1.
        -13    1    4    4    0    0 -0.25565462557E+02 -0.16817634660E+02  0.11515166694E+03  0.11914836176E+03  0.00000000000E+00 0.  1.
         14    1    4    4    0    0 -0.99517313520E+01  0.48968904394E+02  0.45466984430E+02  0.67559138743E+02  0.00000000000E+00 0. -1.
         -5    1    5    5    0  502  0.15914562628E+02  0.72588324885E+00  0.36819809092E+03  0.36857254966E+03  0.47000000000E+01 0.  1.
         13    1    6    6    0    0  0.95317039100E+01 -0.47346382617E+02  0.26220741733E+03  0.26661819710E+03  0.00000000000E+00 0. -1.
        -14    1    6    6    0    0 -0.23705822415E+02 -0.10706088371E+03  0.21597522360E+03  0.24221745612E+03  0.00000000000E+00 0.  1.
</event>
<event>
12    1  0.1615162E-001  0.2134686E+03  0.7818608E-02  0.1139128E+00
         21   -1    0    0  501  502  0.00000000000E+00  0.00000000000E+00  0.31370209760E+03  0.31370209760E+03  0.00000000000E+00 0.  1.
         21   -1    0    0  502  503 -0.00000000000E+00 -0.00000000000E+00 -0.25662465327E+03  0.25662465327E+03  0.00000000000E+00 0. -1.
         -6    2    1    2    0  503 -0.43318106500E+02 -0.11872882920E+03 -0.16018990964E+03  0.26573861051E+03  0.17024455565E+03 0.  0.
        -24    2    3    3    0    0 -0.24303807793E+02 -0.14684656301E+03 -0.11231295571E+03  0.20686210223E+03  0.89571988784E+02 0.  0.
          6    2    1    2  501    0  0.43318106500E+02  0.11872882920E+03  0.21726735397E+03  0.30458814036E+03  0.17203441200E+03 0.  0.
         24    2    5    5    0    0  0.50845758063E+02  0.14916962173E+03  0.15494380957E+03  0.23466231126E+03  0.78879332170E+02 0.  0.
          5    1    5    5  501    0 -0.75276515628E+01 -0.30440792531E+02  0.62323544406E+02  0.69925829100E+02  0.47000000000E+01 0. -1.
        -11    1    6    6    0    0  0.30024263864E+02  0.70030281622E+02  0.12716163633E+03  0.14824229666E+03  0.00000000000E+00 0.  1.
         12    1    6    6    0    0  0.20821494199E+02  0.79139340113E+02  0.27782173231E+02  0.86420014601E+02  0.00000000000E+00 0. -1.
         -5    1    3    3    0  503 -0.19014298707E+02  0.28117733810E+02 -0.47876953924E+02  0.58876508278E+02  0.47000000000E+01 0.  1.
         11    1    4    4    0    0  0.30509615092E+02 -0.36746050673E+02 -0.15098473677E+02  0.50090645439E+02  0.00000000000E+00 0. -1.
        -12    1    4    4    0    0 -0.54813422885E+02 -0.11010051234E+03 -0.97214482037E+02  0.15677145679E+03  0.00000000000E+00 0.  1.
</event>
<event>
12    1  0.1615162E-001  0.1743658E+03  0.7818608E-02  0.1173405E+00
         21   -1    0    0  501  502  0.00000000000E+00  0.00000000000E+00  0.65210830981E+03  0.65210830981E+03  0.00000000000E+00 0.  1.
         21   -1    0    0  502  503 -0.00000000000E+00 -0.00000000000E+00 -0.69222076855E+02  0.69222076855E+02  0.00000000000E+00 0.  1.
         -6    2    1    2    0  503  0.17564446649E+02  0.17484200618E+02  0.85278342473E+02  0.19410261877E+03  0.17259554995E+03 0.  0.
        -24    2    3    3    0    0  0.57309127536E+02  0.37298427420E+02  0.10195491477E+03  0.14643248865E+03  0.79825812233E+02 0.  0.
          6    2    1    2  501    0 -0.17564446649E+02 -0.17484200618E+02  0.49760789048E+03  0.52722776789E+03  0.17245665980E+03 0.  0.
         24    2    5    5    0    0  0.52856924296E+02 -0.35013483842E+02  0.29264774215E+03  0.30974857886E+03  0.79257066725E+02 0.  0.
          5    1    5    5  501    0 -0.70421370945E+02  0.17529283224E+02  0.20496014833E+03  0.21747918903E+03  0.47000000000E+01 0. -1.
        -13    1    6    6    0    0 -0.20562187643E+02 -0.99545506582E+01  0.49333964854E+02  0.54366687665E+02  0.00000000000E+00 0.  1.
         14    1    6    6    0    0  0.73419111939E+02 -0.25058933184E+02  0.24331377730E+03  0.25538189120E+03  0.00000000000E+00 0. -1.
         -5    1    3    3    0  503 -0.39744680888E+02 -0.19814226802E+02 -0.16676572297E+02  0.47670130126E+02  0.47000000000E+01 0.  1.
         13    1    4    4    0    0 -0.18756493332E+02  0.97386998022E+01  0.37283664522E+02  0.42856970917E+02  0.00000000000E+00 0. -1.
        -14    1    4    4    0    0  0.76065620869E+02  0.27559727618E+02  0.64671250247E+02  0.10357551773E+03  0.00000000000E+00 0.  1.
</event>
<event>
12    1  0.1615162E-001  0.2321231E+03  0.7818608E-02  0.1125274E+00
         21   -1    0    0  503  502  0.00000000000E+00  0.00000000000E+00  0.23952452629E+03  0.23952452629E+03  0.00000000000E+00 0. -1.
         21   -1    0    0  501  503 -0.00000000000E+00 -0.00000000000E+00 -0.23544369756E+03  0.23544369756E+03  0.00000000000E+00 0. -1.
          6    2    1    2  501    0 -0.15432340039E+03  0.19500084074E+02  0.53738417633E+02  0.23826235005E+03  0.17229383256E+03 0.  0.
         24    2    3    3    0    0 -0.67999217564E+02 -0.40234078420E+02 -0.15952681169E+02  0.11217121650E+03  0.78007814471E+02 0.  0.
         -6    2    1    2    0  502  0.15432340039E+03 -0.19500084074E+02 -0.49657588906E+02  0.23670587379E+03  0.17137044484E+03 0.  0.
        -24    2    5    5    0    0  0.12360547081E+03 -0.75554891688E+02 -0.18453818657E+02  0.16542124759E+03  0.77696793120E+02 0.  0.
          5    1    3    3  501    0 -0.86324182823E+02  0.59734162494E+02  0.69691098803E+02  0.12609113356E+03  0.47000000000E+01 0. -1.
        -11    1    4    4    0    0 -0.31084411186E+02  0.16863475363E+02  0.13791728748E+02  0.37958256045E+02  0.00000000000E+00 0.  1.
         12    1    4    4    0    0 -0.36914806377E+02 -0.57097553783E+02 -0.29744409918E+02  0.74212960453E+02  0.00000000000E+00 0. -1.
         -5    1    5    5    0  502  0.30717929578E+02  0.56054807614E+02 -0.31203770248E+02  0.71284626196E+02  0.47000000000E+01 0.  1.
         13    1    6    6    0    0  0.16802070663E+02 -0.51933808621E+01 -0.32299355707E+02  0.36776747579E+02  0.00000000000E+00 0. -1.
        -14    1    6    6    0    0  0.10680340014E+03 -0.70361510826E+02  0.13845537050E+02  0.12864450002E+03  0.00000000000E+00 0.  1.
</event>
<event>
12    1  0.1615162E-001  0.2219583E+03  0.7818608E-02  0.1133138E+00
         21   -1    0    0  501  502  0.00000000000E+00  0.00000000000E+00  0.99191548685E+03  0.99191548685E+03  0.00000000000E+00 0.  1.
         21   -1    0    0  502  503 -0.00000000000E+00 -0.00000000000E+00 -0.11589204914E+03  0.11589204914E+03  0.00000000000E+00 0.  1.
         -6    2    1    2    0  503  0.13428663180E+03 -0.18904643288E+01  0.18229169924E+02  0.22270558817E+03  0.17671729692E+03 0.  0.
        -24    2    3    3    0    0 -0.73075158713E+01  0.23372854093E+02  0.29947195257E+02  0.78322278785E+02  0.68101796992E+02 0.  0.
          6    2    1    2  501    0 -0.13428663180E+03  0.18904643288E+01  0.85779426778E+03  0.88510194782E+03  0.17192434052E+03 0.  0.
         24    2    5    5    0    0 -0.11163281556E+01  0.88363447706E+01  0.42762102847E+03  0.43470914054E+03  0.77672168148E+02 0.  0.
          5    1    5    5  501    0 -0.13317030364E+03 -0.69458804419E+01  0.43017323931E+03  0.45039280728E+03  0.47000000000E+01 0. -1.
        -11    1    6    6    0    0 -0.15587724716E+02 -0.29289544687E+02  0.12401862579E+03  0.12838019369E+03  0.00000000000E+00 0.  1.
         12    1    6    6    0    0  0.14471396560E+02  0.38125889458E+02  0.30360240268E+03  0.30632894685E+03  0.00000000000E+00 0. -1.
         -5    1    3    3    0  503  0.14159414767E+03 -0.25263318422E+02 -0.11718025333E+02  0.14438330939E+03  0.47000000000E+01 0.  1.
         13    1    4    4    0    0  0.17363373494E+02  0.34552586586E+02  0.10053770101E+01  0.38683055228E+02  0.00000000000E+00 0. -1.
        -14    1    4    4    0    0 -0.24670889366E+02 -0.11179732493E+02  0.28941818247E+02  0.39639223556E+02  0.00000000000E+00 0.  1.
</event>
<event>
12    1  0.1615162E-001  0.1878800E+03  0.7818608E-02  0.1160605E+00
         21   -1    0    0  501  502  0.00000000000E+00  0.00000000000E+00  0.12700810572E+03  0.12700810572E+03  0.00000000000E+00 0.  1.
         21   -1    0    0  502  503 -0.00000000000E+00 -0.00000000000E+00 -0.37507961180E+03  0.37507961180E+03  0.00000000000E+00 0.  1.
         -6    2    1    2    0  503 -0.48634308214E+02 -0.56295034380E+02 -0.25295070253E+03  0.31509200043E+03  0.17252386500E+03 0.  0.
        -24    2    3    3    0    0  0.39795535344E+02 -0.22176610372E+02 -0.11103177034E+03  0.14436714166E+03  0.80239210398E+02 0.  0.
          6    2    1    2  501    0  0.48634308214E+02  0.56295034380E+02  0.48791964504E+01  0.18699571708E+03  0.17149100506E+03 0.  0.
         24    2    5    5    0    0 -0.59657250404E+01  0.90962395042E+02 -0.34912223549E+01  0.12161113604E+03  0.80419727612E+02 0.  0.
          5    1    5    5  501    0  0.54600033255E+02 -0.34667360662E+02  0.83704188053E+01  0.65384581039E+02  0.47000000000E+01 0. -1.
        -13    1    6    6    0    0  0.36170320200E+02  0.49512079187E+02 -0.10075770061E+02  0.62139031141E+02  0.00000000000E+00 0.  1.
         14    1    6    6    0    0 -0.42136045241E+02  0.41450315855E+02  0.65845477063E+01  0.59472104902E+02  0.00000000000E+00 0. -1.
         -5    1    3    3    0  503 -0.88429843558E+02 -0.34118424008E+02 -0.14191893219E+03  0.17072485877E+03  0.47000000000E+01 0.  1.
         13    1    4    4    0    0  0.13494373399E+02 -0.12114927187E+02  0.95813703007E+01  0.20510295732E+02  0.00000000000E+00 0. -1.
        -14    1    4    4    0    0  0.26301161945E+02 -0.10061683185E+02 -0.12061314064E+03  0.12385684592E+03  0.00000000000E+00 0.  1.
</event>
<event>
12    1  0.1615162E-001  0.1789779E+03  0.7818608E-02  0.1169257E+00
         21   -1    0    0  501  502  0.00000000000E+00  0.00000000000E+00  0.94513444198E+03  0.94513444198E+03  0.00000000000E+00 0. -1.
         21   -1    0    0  502  503 -0.00000000000E+00 -0.00000000000E+00 -0.67396304337E+02  0.67396304337E+02  0.00000000000E+00 0. -1.
         -6    2    1    2    0  503  0.79744423626E+01 -0.47893740527E+02  0.78879229475E+02  0.19386802546E+03  0.17030994200E+03 0.  0.
        -24    2    3    3    0    0  0.29317674902E+01 -0.97542000450E+02  0.46459989486E+02  0.13417317305E+03  0.79503915822E+02 0.  0.
          6    2    1    2  501    0 -0.79744423626E+01  0.47893740527E+02  0.79885890817E+03  0.81866272085E+03  0.17226634390E+03 0.  0.
         24    2    5    5    0    0  0.35610230542E+02  0.66263556846E+02  0.33895607216E+03  0.35631027690E+03  0.80042782823E+02 0.  0.
          5    1    5    5  501    0 -0.43584672905E+02 -0.18369816319E+02  0.45990283601E+03  0.46235244396E+03  0.47000000000E+01 0. -1.
        -13    1    6    6    0    0  0.56051292793E+01 -0.17374950636E+02  0.33016633799E+02  0.37728033228E+02  0.00000000000E+00 0.  1.
         14    1    6    6    0    0  0.30005101263E+02  0.83638507482E+02  0.30593943836E+03  0.31858224367E+03  0.00000000000E+00 0. -1.
         -5    1    3    3    0  503  0.50426748724E+01  0.49648259923E+02  0.32419239990E+02  0.59694852414E+02  0.47000000000E+01 0.  1.
         11    1    4    4    0    0  0.31991441870E+02 -0.66863117522E+02  0.39408686358E+01  0.74227079177E+02  0.00000000000E+00 0. -1.
        -12    1    4    4    0    0 -0.29059674380E+02 -0.30678882929E+02  0.42519120850E+02  0.59946093873E+02  0.00000000000E+00 0.  1.
</event>
<event>
12    1  0.1615162E-001  0.1975346E+03  0.7818608E-02  0.1152009E+00
         21   -1    0    0  503  502  0.00000000000E+00  0.00000000000E+00  0.10755376529E+04  0.10755376529E+04  0.00000000000E+00 0.  1.
         21   -1    0    0  501  503 -0.00000000000E+00 -0.00000000000E+00 -0.18068095783E+03  0.18068095783E+03  0.00000000000E+00 0.  1.
          6    2    1    2  501    0  0.41968959454E+02  0.85194985748E+02 -0.11456187219E+03  0.22765371200E+03  0.17228526017E+03 0.  0.
         24    2    3    3    0    0  0.79072962374E+02  0.10171084520E+03 -0.10860953457E+03  0.18633784375E+03  0.79549554388E+02 0.  0.
         -6    2    1    2    0  502 -0.41968959454E+02 -0.85194985748E+02  0.10094185672E+04  0.10285648987E+04  0.17320602708E+03 0.  0.
        -24    2    5    5    0    0 -0.84052149044E+02 -0.60881768699E+02  0.88583372165E+03  0.89568363055E+03  0.82319074927E+02 0.  0.
          5    1    3    3  501    0 -0.37104002919E+02 -0.16515859454E+02 -0.59523376237E+01  0.41315868251E+02  0.47000000000E+01 0.  1.
        -11    1    4    4    0    0  0.50029922112E+02  0.69394110040E+02 -0.11402821719E+03  0.14255163952E+03  0.00000000000E+00 0.  1.
         12    1    4    4    0    0  0.29043040261E+02  0.32316735162E+02  0.54186826225E+01  0.43786204226E+02  0.00000000000E+00 0. -1.
         -5    1    5    5    0  502  0.42083189590E+02 -0.24313217049E+02  0.12358484557E+03  0.13288126815E+03  0.47000000000E+01 0.  1.
         11    1    6    6    0    0 -0.37109435285E+02 -0.56649543920E+02  0.28218477014E+03  0.29019739060E+03  0.00000000000E+00 0. -1.
        -12    1    6    6    0    0 -0.46942713759E+02 -0.42322247792E+01  0.60364895151E+03  0.60548623995E+03  0.00000000000E+00 0.  1.
</event>
<event>
12    1  0.1615162E-001  0.1875785E+03  0.7818608E-02  0.1160931E+00
         21   -1    0    0  503  502  0.00000000000E+00  0.00000000000E+00  0.73889035062E+02  0.73889035062E+02  0.00000000000E+00 0.  1.
         21   -1    0    0  501  503 -0.00000000000E+00 -0.00000000000E+00 -0.59853356847E+03  0.59853356847E+03  0.00000000000E+00 0.  1.
          6    2    1    2  501    0 -0.33957588953E+02  0.64414853371E+02 -0.41678401505E+03  0.45704988803E+03  0.17286785058E+03 0.  0.
         24    2    3    3    0    0  0.49907782016E+02  0.44596882569E+02 -0.21693119346E+03  0.23935883926E+03  0.75854087543E+02 0.  0.
         -6    2    1    2    0  502  0.33957588953E+02 -0.64414853371E+02 -0.10786051836E+03  0.21537271550E+03  0.17160747064E+03 0.  0.
        -24    2    5    5    0    0  0.34112806939E+02 -0.10848845334E+03 -0.61646559989E+02  0.15133892556E+03  0.78547717509E+02 0.  0.
          5    1    3    3  501    0 -0.83865370969E+02  0.19817970802E+02 -0.19985282159E+03  0.21769104876E+03  0.47000000000E+01 0. -1.
        -13    1    4    4    0    0  0.40167589429E+02  0.62565696421E+02 -0.12725532964E+03  0.14738324373E+03  0.00000000000E+00 0.  1.
         14    1    4    4    0    0  0.97401925871E+01 -0.17968813851E+02 -0.89675863819E+02  0.91975595538E+02  0.00000000000E+00 0. -1.
         -5    1    5    5    0  502 -0.15521798668E+00  0.44073599967E+02 -0.46213958369E+02  0.64033789945E+02  0.47000000000E+01 0.  1.
         11    1    6    6    0    0  0.56868333166E+02 -0.73148004126E+02 -0.57631482969E+02  0.10911473619E+03  0.00000000000E+00 0. -1.
        -12    1    6    6    0    0 -0.22755526226E+02 -0.35340449211E+02 -0.40150770199E+01  0.42224189368E+02  0.00000000000E+00 0.  1.
</event>
<event>
12    1  0.1615162E-001  0.2197332E+03  0.7818608E-02  0.1134293E+00
         21   -1    0    0  503  502  0.00000000000E+00  0.00000000000E+00  0.26074937949E+03  0.26074937949E+03  0.00000000000E+00 0. -1.
         21   -1    0    0  501  503 -0.00000000000E+00 -0.00000000000E+00 -0.28315324791E+03  0.28315324791E+03  0.00000000000E+00 0.  1.
          6    2    1    2  501    0 -0.12911107880E+03 -0.37352781835E+02 -0.17196952625E+03  0.27902724283E+03  0.17383263015E+03 0.  0.
         24    2    3    3    0    0 -0.45059433869E+02 -0.38227101635E+02 -0.14898094358E+02  0.10081678251E+03  0.80314422991E+02 0.  0.
         -6    2    1    2    0  502  0.12911107880E+03  0.37352781835E+02  0.14956565783E+03  0.26487538458E+03  0.17240702530E+03 0.  0.
        -24    2    5    5    0    0  0.13561462400E+03  0.30813533302E+02  0.17493521509E+03  0.23747534248E+03  0.80320661912E+02 0.  0.
          5    1    3    3  501    0 -0.84051644932E+02  0.87431979956E+00 -0.15707143189E+03  0.17821046032E+03  0.47000000000E+01 0. -1.
        -13    1    4    4    0    0 -0.14807057106E+02 -0.37062821176E+01 -0.43929316557E+02  0.46505594507E+02  0.00000000000E+00 0.  1.
         14    1    4    4    0    0 -0.30252376764E+02 -0.34520819517E+02  0.29031222200E+02  0.54311188004E+02  0.00000000000E+00 0. -1.
         -5    1    5    5    0  502 -0.65035452030E+01  0.65392485331E+01 -0.25369557256E+02  0.27400042098E+02  0.47000000000E+01 0.  1.
         13    1    6    6    0    0  0.48623285983E+02  0.28886074844E+02  0.20392206361E+02  0.60120473551E+02  0.00000000000E+00 0. -1.
        -14    1    6    6    0    0  0.86991338021E+02  0.19274584582E+01  0.15454300872E+03  0.17735486893E+03  0.00000000000E+00 0.  1.
</event>
<event>
12    1  0.1615162E-001  0.1911440E+03  0.7818608E-02  0.1157649E+00
         21   -1    0    0  501  502  0.00000000000E+00  0.00000000000E+00  0.25974613628E+03  0.25974613628E+03  0.00000000000E+00 0.  1.
         21   -1    0    0  502  503 -0.00000000000E+00 -0.00000000000E+00 -0.38242182774E+03  0.38242182774E+03  0.00000000000E+00 0.  1.
         -6    2    1    2    0  503  0.36800992456E+02  0.73926547143E+02 -0.31705988448E+03  0.37022020942E+03  0.17238499266E+03 0.  0.
        -24    2    3    3    0    0  0.67552123155E+02  0.55725887886E+02 -0.31305455635E+03  0.33395688511E+03  0.76520467418E+02 0.  0.
          6    2    1    2  501    0 -0.36800992456E+02 -0.73926547143E+02  0.19438419302E+03  0.27194775461E+03  0.17132110005E+03 0.  0.
         24    2    5    5    0    0 -0.42234008265E+02 -0.10225896013E+03  0.20075733792E+03  0.24203203529E+03  0.77687778948E+02 0.  0.
          5    1    5    5  501    0  0.54330158092E+01  0.28332412985E+02 -0.63731449019E+01  0.29915719317E+02  0.47000000000E+01 0. -1.
        -11    1    6    6    0    0 -0.47469820187E+02 -0.35417661365E+02  0.51807193671E+02  0.78687863620E+02  0.00000000000E+00 0.  1.
         12    1    6    6    0    0  0.52358119217E+01 -0.66841298763E+02  0.14895014425E+03  0.16334417167E+03  0.00000000000E+00 0. -1.
         -5    1    3    3    0  503 -0.30751130699E+02  0.18200659258E+02 -0.40053281322E+01  0.36263324311E+02  0.47000000000E+01 0.  1.
         13    1    4    4    0    0  0.52602323689E+02 -0.57271740550E+01 -0.15062997859E+03  0.15965336022E+03  0.00000000000E+00 0. -1.
        -14    1    4    4    0    0  0.14949799466E+02  0.61453061941E+02 -0.16242457776E+03  0.17430352488E+03  0.00000000000E+00 0.  1.
</event>
<event>
12    1  0.1615162E-001  0.2022693E+03  0.7818608E-02  0.1147921E+00
         21   -1    0    0  503  502  0.00000000000E+00  0.00000000000E+00  0.50386096260E+02  0.50386096260E+02  0.00000000000E+00 0. -1.
         21   -1    0    0  501  503 -0.00000000000E+00 -0.00000000000E+00 -0.12090485830E+04  0.12090485830E+04  0.00000000000E+00 0.  1.
          6    2    1    2  501    0  0.27637258007E+02  0.10270244370E+03 -0.94130224413E+03  0.96278906258E+03  0.17205015038E+03 0.  0.
         24    2    3    3    0    0 -0.40084248547E+02  0.24875488808E+02 -0.57783579651E+03  0.58493567050E+03  0.77653035826E+02 0.  0.
         -6    2    1    2    0  502 -0.27637258007E+02 -0.10270244370E+03 -0.21736024265E+03  0.29664561672E+03  0.17158536319E+03 0.  0.
        -24    2    5    5    0    0 -0.14598286546E+02 -0.10101705244E+03 -0.23826690575E+03  0.27150533266E+03  0.80786585738E+02 0.  0.
          5    1    3    3  501    0  0.67721506554E+02  0.77826954896E+02 -0.36346644762E+03  0.37785339207E+03  0.47000000000E+01 0. -1.
        -11    1    4    4    0    0 -0.94336114278E+01 -0.26106475225E+02 -0.26857890432E+03  0.27000957190E+03  0.00000000000E+00 0.  1.
         12    1    4    4    0    0 -0.30650637119E+02  0.50981964033E+02 -0.30925689220E+03  0.31492609861E+03  0.00000000000E+00 0. -1.
         -5    1    5    5    0  502 -0.13038971461E+02 -0.16853912677E+01  0.20906663101E+02  0.25140284058E+02  0.47000000000E+01 0.  1.
         13    1    6    6    0    0 -0.26459380061E+02 -0.94897369139E+02 -0.13362565100E+03  0.16601633675E+03  0.00000000000E+00 0. -1.
        -14    1    6    6    0    0  0.11861093516E+02 -0.61196832980E+01 -0.10464125475E+03  0.10548899591E+03  0.00000000000E+00 0.  1.
</event>
<event>
12    1  0.1615162E-001  0.2106721E+03  0.7818608E-02  0.1141172E+00
         21   -1    0    0  501  502  0.00000000000E+00  0.00000000000E+00  0.20998748572E+03  0.20998748572E+03  0.00000000000E+00 0. -1.
         21   -1    0    0  502  503 -0.00000000000E+00 -0.00000000000E+00 -0.21079822887E+03  0.21079822887E+03  0.00000000000E+00 0.  1.
         -6    2    1    2    0  503 -0.67060468874E+02 -0.10050860491E+03 -0.57091343173E+01  0.21074949305E+03  0.17257945550E+03 0.  0.
        -24    2    3    3    0    0 -0.99484728271E+02 -0.10079046686E+03  0.26364704278E+02  0.16489937674E+03  0.80254454382E+02 0.  0.
          6    2    1    2  501    0  0.67060468874E+02  0.10050860491E+03  0.48983911675E+01  0.21003622153E+03  0.17173273995E+03 0.  0.
         24    2    5    5    0    0  0.10254076768E+02  0.61133447446E+02 -0.59607809639E+02  0.11537625559E+03  0.76916480009E+02 0.  0.
          5    1    5    5  501    0  0.56806392106E+02  0.39375157468E+02  0.64506200807E+02  0.94659965943E+02  0.47000000000E+01 0. -1.
        -11    1    6    6    0    0  0.38379197906E+02  0.58433294490E+02 -0.36436007851E+02  0.78835242151E+02  0.00000000000E+00 0.  1.
         12    1    6    6    0    0 -0.28125121138E+02  0.27001529564E+01 -0.23171801789E+02  0.36541013439E+02  0.00000000000E+00 0. -1.
         -5    1    3    3    0  503  0.32424259397E+02  0.28186194593E+00 -0.32073838595E+02  0.45850116312E+02  0.47000000000E+01 0.  1.
         11    1    4    4    0    0  0.39733034450E+01 -0.32069339585E+02  0.24721557973E+02  0.40686424152E+02  0.00000000000E+00 0. -1.
        -12    1    4    4    0    0 -0.10345803172E+03 -0.68721127275E+02  0.16431463050E+01  0.12421295259E+03  0.00000000000E+00 0.  1.
</event>
<event>
12    1  0.1615162E-001  0.1839059E+03  0.7818608E-02  0.1164101E+00
         21   -1    0    0  501  502  0.00000000000E+00  0.00000000000E+00  0.71415327786E+03  0.71415327786E+03  0.00000000000E+00 0. -1.
         21   -1    0    0  502  503 -0.00000000000E+00 -0.00000000000E+00 -0.47960138158E+02  0.47960138158E+02  0.00000000000E+00 0. -1.
         -6    2    1    2    0  503  0.26875008053E+02 -0.58957061539E+02  0.37665198948E+03  0.41910401173E+03  0.17199782063E+03 0.  0.
        -24    2    3    3    0    0  0.26780167626E+02  0.34796744575E+02  0.18044305468E+03  0.20159580211E+03  0.78442212067E+02 0.  0.
          6    2    1    2  501    0 -0.26875008053E+02  0.58957061539E+02  0.28954115022E+03  0.34300940429E+03  0.17211383616E+03 0.  0.
         24    2    5    5    0    0  0.46403399274E+02  0.50195463454E+02  0.20804173014E+03  0.23296061486E+03  0.79475949712E+02 0.  0.
          5    1    5    5  501    0 -0.73278407327E+02  0.87615980855E+01  0.81499420083E+02  0.11004878943E+03  0.47000000000E+01 0. -1.
        -11    1    6    6    0    0  0.26348882308E+02 -0.83153948718E+01  0.17679678774E+02  0.32802140667E+02  0.00000000000E+00 0.  1.
         12    1    6    6    0    0  0.20054516966E+02  0.58510858325E+02  0.19036205136E+03  0.20015847420E+03  0.00000000000E+00 0. -1.
         -5    1    3    3    0  503  0.94840427025E-01 -0.93753806114E+02  0.19620893480E+03  0.21750820962E+03  0.47000000000E+01 0.  1.
         11    1    4    4    0    0  0.10938774752E+02 -0.25396680744E+02  0.55471044035E+02  0.61981327125E+02  0.00000000000E+00 0. -1.
        -12    1    4    4    0    0  0.15841392874E+02  0.60193425320E+02  0.12497201065E+03  0.13961447498E+03  0.00000000000E+00 0.  1.
</event>
<event>
12    1  0.1615162E-001  0.1792302E+03  0.7818608E-02  0.1170032E+00
         21   -1    0    0  503  502  0.00000000000E+00  0.00000000000E+00  0.10756776654E+03  0.10756776654E+03  0.00000000000E+00 0.  1.
         21   -1    0    0  501  503 -0.00000000000E+00 -0.00000000000E+00 -0.71906460135E+03  0.71906460135E+03  0.00000000000E+00 0.  1.
          6    2    1    2  501    0  0.40915145475E+02  0.21960370809E+02 -0.62754774888E+03  0.65264052150E+03  0.17311027169E+03 0.  0.
         24    2    3    3    0    0  0.88064644402E+02  0.43577739498E+02 -0.40909252214E+03  0.42806278002E+03  0.78909131245E+02 0.  0.
         -6    2    1    2    0  502 -0.40915145475E+02 -0.21960370809E+02  0.16050914077E+02  0.17399184638E+03  0.16691082574E+03 0.  0.
        -24    2    5    5    0    0 -0.57685566951E+01  0.28472589692E+02 -0.39266709220E+02  0.91161322693E+02  0.76971083480E+02 0.  0.
          5    1    3    3  501    0 -0.47149498927E+02 -0.21617368689E+02 -0.21845522675E+03  0.22457774149E+03  0.47000000000E+01 0. -1.
        -13    1    4    4    0    0  0.81136914901E+02  0.56787519997E+02 -0.39606314438E+03  0.40825731558E+03  0.00000000000E+00 0.  1.
         14    1    4    4    0    0  0.69277295010E+01 -0.13209780499E+02 -0.13029377757E+02  0.19805464438E+02  0.00000000000E+00 0. -1.
         -5    1    5    5    0  502 -0.35146588780E+02 -0.50432960501E+02  0.55317623297E+02  0.82830523691E+02  0.47000000000E+01 0.  1.
         11    1    6    6    0    0  0.18900430236E+02  0.19069169730E+02  0.15042288439E+02  0.30775476256E+02  0.00000000000E+00 0. -1.
        -12    1    6    6    0    0 -0.24668986931E+02  0.94034199625E+01 -0.54308997659E+02  0.60385846437E+02  0.00000000000E+00 0.  1.
</event>
<event>
12    1  0.1615162E-001  0.1884139E+03  0.7818608E-02  0.1160325E+00
         21   -1    0    0  501  502  0.00000000000E+00  0.00000000000E+00  0.10436673773E+03  0.10436673773E+03  0.00000000000E+00 0.  1.
         21   -1    0    0  502  503 -0.00000000000E+00 -0.00000000000E+00 -0.10259009457E+04  0.10259009457E+04  0.00000000000E+00 0. -1.
         -6    2    1    2    0  503  0.49625220926E+02  0.56726384557E+02 -0.92468177349E+03  0.94368224260E+03  0.17268250498E+03 0.  0.
        -24    2    3    3    0    0  0.12923979710E+02  0.11225724293E+02 -0.81763598762E+03  0.82162413569E+03  0.79022566136E+02 0.  0.
          6    2    1    2  501    0 -0.49625220926E+02 -0.56726384557E+02  0.31475655419E+01  0.18658544081E+03  0.17065659758E+03 0.  0.
         24    2    5    5    0    0 -0.93167469758E+02 -0.13330339083E+02 -0.16709228543E+02  0.12181255707E+03  0.75506459200E+02 0.  0.
          5    1    5    5  501    0  0.43542248832E+02 -0.43396045474E+02  0.19856794085E+02  0.64772883736E+02  0.47000000000E+01 0. -1.
        -13    1    6    6    0    0 -0.55561790924E+02  0.12387846806E+02  0.22980942493E+02  0.61389698460E+02  0.00000000000E+00 0.  1.
         14    1    6    6    0    0 -0.37605678834E+02 -0.25718185889E+02 -0.39690171036E+02  0.60422858612E+02  0.00000000000E+00 0. -1.
         -5    1    3    3    0  503  0.36701241216E+02  0.45500660264E+02 -0.10704578586E+03  0.12205810691E+03  0.47000000000E+01 0.  1.
         13    1    4    4    0    0  0.39284502077E+02 -0.12105818537E+02 -0.57242908734E+03  0.57390320001E+03  0.00000000000E+00 0. -1.
        -14    1    4    4    0    0 -0.26360522367E+02  0.23331542829E+02 -0.24520690028E+03  0.24772093569E+03  0.00000000000E+00 0.  1.
</event>
<event>
12    1  0.1615162E-001  0.1754363E+03  0.7818608E-02  0.1174046E+00
         21   -1    0    0  501  502  0.00000000000E+00  0.00000000000E+00  0.68300728086E+02  0.68300728086E+02  0.00000000000E+00 0. -1.
         21   -1    0    0  502  503 -0.00000000000E+00 -0.00000000000E+00 -0.10628989772E+04  0.10628989772E+04  0.00000000000E+00 0. -1.
         -6    2    1    2    0  503 -0.25177839140E+02  0.11819039034E+02 -0.93664664794E+03  0.95293486171E+03  0.17321747688E+03 0.  0.
        -24    2    3    3    0    0  0.38680013779E+02  0.27056959999E+02 -0.73437097679E+03  0.74022013078E+03  0.79980547087E+02 0.  0.
          6    2    1    2  501    0  0.25177839140E+02 -0.11819039034E+02 -0.57951601209E+02  0.17826484361E+03  0.16627192522E+03 0.  0.
         24    2    5    5    0    0 -0.17465737353E+02  0.36341491917E+02 -0.66544987063E+02  0.11319682045E+03  0.82216353853E+02 0.  0.
          5    1    5    5  501    0  0.42643576493E+02 -0.48160530951E+02  0.85933858540E+01  0.65068023160E+02  0.47000000000E+01 0. -1.
        -13    1    6    6    0    0  0.19477203257E+02 -0.14264517223E+02 -0.36370282429E+02  0.43653583384E+02  0.00000000000E+00 0.  1.
         14    1    6    6    0    0 -0.36942940609E+02  0.50606009140E+02 -0.30174704634E+02  0.69543237066E+02  0.00000000000E+00 0. -1.
         -5    1    3    3    0  503 -0.63857852919E+02 -0.15237920965E+02 -0.20227567115E+03  0.21271473093E+03  0.47000000000E+01 0.  1.
         13    1    4    4    0    0 -0.10172092325E+02  0.11215981805E+02 -0.50257805790E+03  0.50280609980E+03  0.00000000000E+00 0. -1.
        -14    1    4    4    0    0  0.48852106104E+02  0.15840978195E+02 -0.23179291889E+03  0.23741403099E+03  0.00000000000E+00 0.  1.
</event>
<event>
12    1  0.1615162E-001  0.1751789E+03  0.7818608E-02  0.1172943E+00
         21   -1    0    0  503  502  0.00000000000E+00  0.00000000000E+00  0.49687118242E+03  0.49687118242E+03  0.00000000000E+00 0. -1.
         21   -1    0    0  501  503 -0.00000000000E+00 -0.00000000000E+00 -0.65732863664E+02  0.65732863664E+02  0.00000000000E+00 0. -1.
          6    2    1    2  501    0 -0.11609932818E+02 -0.31573391149E+02  0.14272298830E+03  0.22595909430E+03  0.17191856020E+03 0.  0.
         24    2    3    3    0    0  0.20262534016E+02  0.33249434451E+02  0.33354817028E+02  0.94805216179E+02  0.79745783712E+02 0.  0.
         -6    2    1    2    0  502  0.11609932818E+02  0.31573391149E+02  0.28841533046E+03  0.33664495178E+03  0.17033716901E+03 0.  0.
        -24    2    5    5    0    0 -0.30896380363E+02  0.23057474851E+02  0.27823966127E+03  0.29186837605E+03  0.79269201889E+02 0.  0.
          5    1    3    3  501    0 -0.31872466834E+02 -0.64822825600E+02  0.10936817127E+03  0.13115387812E+03  0.47000000000E+01 0. -1.
        -13    1    4    4    0    0  0.18047004341E+02 -0.20950406614E+02  0.29484611088E+02  0.40422224011E+02  0.00000000000E+00 0.  1.
         14    1    4    4    0    0  0.22155296745E+01  0.54199841065E+02  0.38702059399E+01  0.54382992169E+02  0.00000000000E+00 0. -1.
         -5    1    5    5    0  502  0.42506313182E+02  0.85159162980E+01  0.10175669193E+02  0.44776575731E+02  0.47000000000E+01 0.  1.
         13    1    6    6    0    0 -0.10781728668E+02  0.36387307775E+02  0.25680030101E+03  0.25958943823E+03  0.00000000000E+00 0. -1.
        -14    1    6    6    0    0 -0.20114651695E+02 -0.13329832923E+02  0.21439360259E+02  0.32278937821E+02  0.00000000000E+00 0.  1.
</event>
<event>
12    1  0.1615162E-001  0.1925375E+03  0.7818608E-02  0.1156411E+00
         21   -1    0    0  501  502  0.00000000000E+00  0.00000000000E+00  0.56037430908E+03  0.56037430908E+03  0.00000000000E+00 0. -1.
         21   -1    0    0  502  503 -0.00000000000E+00 -0.00000000000E+00 -0.90263813923E+02  0.90263813923E+02  0.00000000000E+00 0. -1.
         -6    2    1    2    0  503  0.59434881596E+02  0.60197628030E+02  0.66188463877E+02  0.20359671030E+03  0.17295793744E+03 0.  0.
        -24    2    3    3    0    0  0.22817391735E+02  0.10528413714E+03  0.44500996906E+02  0.14141898044E+03  0.80084994877E+02 0.  0.
          6    2    1    2  501    0 -0.59434881596E+02 -0.60197628030E+02  0.40392203127E+03  0.44704141270E+03  0.17186261300E+03 0.  0.
         24    2    5    5    0    0  0.14090433392E+02 -0.28769314656E+02  0.31926506231E+03  0.33049698675E+03  0.79195103749E+02 0.  0.
          5    1    5    5  501    0 -0.73525314989E+02 -0.31428313373E+02  0.84656968960E+02  0.11654442595E+03  0.47000000000E+01 0. -1.
        -13    1    6    6    0    0  0.28761857545E+02 -0.26876479489E+02  0.66342516015E+02  0.77142200062E+02  0.00000000000E+00 0.  1.
         14    1    6    6    0    0 -0.14671424153E+02 -0.18928351675E+01  0.25292254630E+03  0.25335478669E+03  0.00000000000E+00 0. -1.
         -5    1    3    3    0  503  0.36617489862E+02 -0.45086509107E+02  0.21687466972E+02  0.62177729863E+02  0.47000000000E+01 0.  1.
         11    1    4    4    0    0  0.38369633326E+02  0.13272847405E+02  0.90598217352E+01  0.41599009720E+02  0.00000000000E+00 0. -1.
        -12    1    4    4    0    0 -0.15552241591E+02  0.92011289732E+02  0.35441175170E+02  0.99819970718E+02  0.00000000000E+00 0.  1.
</event>
<event>
12    1  0.1615162E-001  0.2041055E+03  0.7818608E-02  0.1147488E+00
         21   -1    0    0  501  502  0.00000000000E+00  0.00000000000E+00  0.12983353637E+03  0.12983353637E+03  0.00000000000E+00 0. -1.
         21   -1    0    0  502  503 -0.00000000000E+00 -0.00000000000E+00 -0.32421663464E+03  0.32421663464E+03  0.00000000000E+00 0.  1.
         -6    2    1    2    0  503  0.60378283569E+02 -0.89734758050E+02 -0.14233768727E+03  0.24883544307E+03  0.17309302870E+03 0.  0.
        -24    2    3    3    0    0  0.11095531642E+02 -0.18196647951E+02 -0.13778375659E+03  0.16171874480E+03  0.81941198554E+02 0.  0.
          6    2    1    2  501    0 -0.60378283569E+02  0.89734758050E+02 -0.52045410999E+02  0.20521472794E+03  0.16645268345E+03 0.  0.
         24    2    5    5    0    0 -0.56521782715E+01  0.13665988860E+02  0.22685348551E+02  0.85263985259E+02  0.80849339964E+02 0.  0.
          5    1    5    5  501    0 -0.54726105298E+02  0.76068769190E+02 -0.74730759550E+02  0.11995074268E+03  0.47000000000E+01 0. -1.
        -13    1    6    6    0    0  0.32278606005E+02  0.24075325102E+02  0.85166497220E+00  0.40277227035E+02  0.00000000000E+00 0.  1.
         14    1    6    6    0    0 -0.37930784276E+02 -0.10409336243E+02  0.21833683579E+02  0.44986758224E+02  0.00000000000E+00 0. -1.
         -5    1    3    3    0  503  0.49282751928E+02 -0.71538110099E+02 -0.45539306841E+01  0.87116698277E+02  0.47000000000E+01 0.  1.
         11    1    4    4    0    0 -0.31820332840E+02  0.78565778650E+01 -0.39277553374E+02  0.51156481474E+02  0.00000000000E+00 0. -1.
        -12    1    4    4    0    0  0.42915864481E+02 -0.26053225816E+02 -0.98506203212E+02  0.11056226332E+03  0.00000000000E+00 0.  1.
</event>
<event>
12    1  0.1615162E-001  0.1975957E+03  0.7818608E-02  0.1151852E+00
         21   -1    0    0  503  502  0.00000000000E+00  0.00000000000E+00  0.21093692926E+03  0.21093692926E+03  0.00000000000E+00 0.  1.
         21   -1    0    0  501  503 -0.00000000000E+00 -0.00000000000E+00 -0.27752928168E+03  0.27752928168E+03  0.00000000000E+00 0.  1.
          6    2    1    2  501    0  0.95409519216E+02  0.17833663351E+02 -0.17445445161E+03  0.26334782391E+03  0.17174604731E+03 0.  0.
         24    2    3    3    0    0  0.49729907519E+02  0.38693146379E+02 -0.18556621595E+03  0.21170185346E+03  0.80078904691E+02 0.  0.
         -6    2    1    2    0  502 -0.95409519216E+02 -0.17833663351E+02  0.10786209919E+03  0.22511838703E+03  0.17211345047E+03 0.  0.
        -24    2    5    5    0    0  0.18690813643E+01  0.31294093357E+02  0.68732855716E+02  0.10923115605E+03  0.78895033128E+02 0.  0.
          5    1    3    3  501    0  0.45679611697E+02 -0.20859483028E+02  0.11111764344E+02  0.51645970451E+02  0.47000000000E+01 0. -1.
        -13    1    4    4    0    0  0.29597112470E+02  0.85572119118E+01 -0.16911851341E+03  0.17190196776E+03  0.00000000000E+00 0.  1.
         14    1    4    4    0    0  0.20132795049E+02  0.30135934467E+02 -0.16447702544E+02  0.39799885699E+02  0.00000000000E+00 0. -1.
         -5    1    5    5    0  502 -0.97278600580E+02 -0.49127756708E+02  0.39129243469E+02  0.11588723098E+03  0.47000000000E+01 0.  1.
         11    1    6    6    0    0  0.23988949705E+02  0.49835995884E+01 -0.74865243909E+01  0.25619407102E+02  0.00000000000E+00 0. -1.
        -12    1    6    6    0    0 -0.22119868340E+02  0.26310493769E+02  0.76219380107E+02  0.83611748945E+02  0.00000000000E+00 0.  1.
</event>
<event>
12    1  0.1615162E-001  0.2032658E+03  0.7818608E-02  0.1147082E+00
         21   -1    0    0  503  502  0.00000000000E+00  0.00000000000E+00  0.33373457064E+04  0.33373457064E+04  0.00000000000E+00 0. -1.
         21   -1    0    0  501  503 -0.00000000000E+00 -0.00000000000E+00 -0.24635821393E+02  0.24635821393E+02  0.00000000000E+00 0. -1.
          6    2    1    2  501    0 -0.30644190525E+02 -0.10387680660E+03  0.46903947316E+03  0.51105564101E+03  0.17161114027E+03 0.  0.
         24    2    3    3    0    0 -0.83284333556E+02 -0.58993822704E+02  0.35058297059E+03  0.37379858326E+03  0.80002564000E+02 0.  0.
         -6    2    1    2    0  502  0.30644190525E+02  0.10387680660E+03  0.28436704118E+04  0.28509258868E+04  0.17201030010E+03 0.  0.
        -24    2    5    5    0    0 -0.19747583095E+02  0.71998615664E+02  0.24708060977E+04  0.24732945366E+04  0.82032459693E+02 0.  0.
          5    1    3    3  501    0  0.52640143030E+02 -0.44882983897E+02  0.11845650257E+03  0.13725705775E+03  0.47000000000E+01 0. -1.
        -13    1    4    4    0    0 -0.19684762838E+02  0.19951552538E+02  0.66311743039E+02  0.71991677308E+02  0.00000000000E+00 0.  1.
         14    1    4    4    0    0 -0.63599570717E+02 -0.78945375241E+02  0.28427122755E+03  0.30180690595E+03  0.00000000000E+00 0. -1.
         -5    1    5    5    0  502  0.50391773620E+02  0.31878190936E+02  0.37286431412E+03  0.37763135020E+03  0.47000000000E+01 0.  1.
         13    1    6    6    0    0 -0.48745938342E+02  0.53731239511E+02  0.13333439397E+04  0.13353161701E+04  0.00000000000E+00 0. -1.
        -14    1    6    6    0    0  0.28998355247E+02  0.18267376153E+02  0.11374621580E+04  0.11379783664E+04  0.00000000000E+00 0.  1.
</event>
<event>
12    1  0.1615162E-001  0.1788120E+03  0.7818608E-02  0.1169498E+00
         21   -1    0    0  501  502  0.00000000000E+00  0.00000000000E+00  0.20055053045E+03  0.20055053045E+03  0.00000000000E+00 0.  1.
         21   -1    0    0  502  503 -0.00000000000E+00 -0.00000000000E+00 -0.19226378014E+03  0.19226378014E+03  0.00000000000E+00 0. -1.
         -6    2    1    2    0  503 -0.29047665488E+01  0.39565689599E+02 -0.79381762213E+02  0.19564047021E+03  0.17435552170E+03 0.  0.
        -24    2    3    3    0    0  0.44465032706E+02 -0.58465622041E+01 -0.25730891702E+01  0.94507722048E+02  0.83149066836E+02 0.  0.
          6    2    1    2  501    0  0.29047665488E+01 -0.39565689599E+02  0.87668512529E+02  0.19717384039E+03  0.17209844212E+03 0.  0.
         24    2    5    5    0    0 -0.55889031985E+02  0.55735842128E+01  0.71518904761E+02  0.12116617882E+03  0.80072719535E+02 0.  0.
          5    1    5    5  501    0  0.58793798534E+02 -0.45139273811E+02  0.16149607768E+02  0.76007661570E+02  0.47000000000E+01 0. -1.
        -13    1    6    6    0    0 -0.42270595322E+02 -0.34590713538E+02  0.47751174251E+02  0.72549950616E+02  0.00000000000E+00 0.  1.
         14    1    6    6    0    0 -0.13618436662E+02  0.40164297751E+02  0.23767730510E+02  0.48616228201E+02  0.00000000000E+00 0. -1.
         -5    1    3    3    0  503 -0.47369799255E+02  0.45412251803E+02 -0.76808673043E+02  0.10113274816E+03  0.47000000000E+01 0.  1.
         13    1    4    4    0    0  0.28151430101E+02 -0.28234249645E+02 -0.34154130266E+02  0.52499337938E+02  0.00000000000E+00 0. -1.
        -14    1    4    4    0    0  0.16313602606E+02  0.22387687441E+02  0.31581041095E+02  0.42008384111E+02  0.00000000000E+00 0.  1.
</event>
<event>
12    1  0.1615162E-001  0.2274515E+03  0.7818608E-02  0.1128624E+00
         21   -1    0    0  503  502  0.00000000000E+00  0.00000000000E+00  0.88129883912E+02  0.88129883912E+02  0.00000000000E+00 0.  1.
         21   -1    0    0  501  503 -0.00000000000E+00 -0.00000000000E+00 -0.58522927436E+03  0.58522927436E+03  0.00000000000E+00 0. -1.
          6    2    1    2  501    0  0.26846876977E+02  0.14784668364E+03 -0.26128404235E+03  0.34641528637E+03  0.17074777649E+03 0.  0.
         24    2    3    3    0    0  0.15033883115E+02  0.51416819879E+02 -0.22075561082E+03  0.24104494324E+03  0.80622068600E+02 0.  0.
         -6    2    1    2    0  502 -0.26846876977E+02 -0.14784668364E+03 -0.23581534810E+03  0.32694387190E+03  0.16942260861E+03 0.  0.
        -24    2    5    5    0    0  0.15543599301E+02 -0.14099365803E+03 -0.11751275680E+03  0.20100138683E+03  0.80445599079E+02 0.  0.
          5    1    3    3  501    0  0.11812993863E+02  0.96429863763E+02 -0.40528431535E+02  0.10537034313E+03  0.47000000000E+01 0. -1.
        -13    1    4    4    0    0 -0.20122185183E+02 -0.94747784208E+01 -0.27330579845E+02  0.35236832396E+02  0.00000000000E+00 0.  1.
         14    1    4    4    0    0  0.35156068297E+02  0.60891598300E+02 -0.19342503097E+03  0.20580811084E+03  0.00000000000E+00 0. -1.
         -5    1    5    5    0  502 -0.42390476278E+02 -0.68530256096E+01 -0.11830259130E+03  0.12594248508E+03  0.47000000000E+01 0.  1.
         13    1    6    6    0    0  0.34347680387E+02 -0.10101781957E+03 -0.11481996565E+03  0.15674178617E+03  0.00000000000E+00 0. -1.
        -14    1    6    6    0    0 -0.18804081086E+02 -0.39975838465E+02 -0.26927911454E+01  0.44259600660E+02  0.00000000000E+00 0.  1.
</event>
<event>
12    1  0.1615162E-001  0.1936294E+03  0.7818608E-02  0.1155276E+00
         21   -1    0    0  503  502  0.00000000000E+00  0.00000000000E+00  0.21848139062E+04  0.21848139062E+04  0.00000000000E+00 0. -1.
         21   -1    0    0  501  503 -0.00000000000E+00 -0.00000000000E+00 -0.29331786172E+02  0.29331786172E+02  0.00000000000E+00 0.  1.
          6    2    1    2  501    0 -0.65326174295E+02  0.59431560071E+02  0.36367248859E+03  0.41190428382E+03  0.17206929039E+03 0.  0.
         24    2    3    3    0    0 -0.17750941221E+02  0.33196196713E+02  0.67695436182E+02  0.11094547827E+03  0.79430118200E+02 0.  0.
         -6    2    1    2    0  502  0.65326174295E+02 -0.59431560071E+02  0.17918096314E+04  0.18022414085E+04  0.17231575663E+03 0.  0.
        -24    2    5    5    0    0  0.23573710657E+02 -0.83414087750E+02  0.75652659721E+03  0.76582861394E+03  0.81531244196E+02 0.  0.
          5    1    3    3  501    0 -0.47575233074E+02  0.26235363358E+02  0.29597705241E+03  0.30095880556E+03  0.47000000000E+01 0. -1.
        -13    1    4    4    0    0 -0.19823244278E+02  0.26265792831E+02  0.85561132278E+02  0.91670934562E+02  0.00000000000E+00 0.  1.
         14    1    4    4    0    0  0.20723030571E+01  0.69304038823E+01 -0.17865696097E+02  0.19274543703E+02  0.00000000000E+00 0. -1.
         -5    1    5    5    0  502  0.41752463638E+02  0.23982527679E+02  0.10352830342E+04  0.10364127946E+04  0.47000000000E+01 0.  1.
         11    1    6    6    0    0  0.14721821245E+02 -0.50190503966E+02  0.16042955691E+03  0.16874081142E+03  0.00000000000E+00 0. -1.
        -12    1    6    6    0    0  0.88518894117E+01 -0.33223583784E+02  0.59609704030E+03  0.59708780252E+03  0.00000000000E+00 0.  1.
</event>
<event>
12    1  0.1615162E-001  0.1932804E+03  0.7818608E-02  0.1155600E+00
         21   -1    0    0  503  502  0.00000000000E+00  0.00000000000E+00  0.90654528991E+02  0.90654528991E+02  0.00000000000E+00 0. -1.
         21   -1    0    0  501  503 -0.00000000000E+00 -0.00000000000E+00 -0.11882426813E+04  0.11882426813E+04  0.00000000000E+00 0. -1.
          6    2    1    2  501    0  0.86132623487E+02 -0.17773335521E+02 -0.10656644867E+04  0.10829981280E+04  0.17178308073E+03 0.  0.
         24    2    3    3    0    0 -0.10012111566E+02  0.27332866438E+02 -0.52429816621E+03  0.53129353090E+03  0.80851227089E+02 0.  0.
         -6    2    1    2    0  502 -0.86132623487E+02  0.17773335521E+02 -0.31923665595E+02  0.19589908225E+03  0.17211220095E+03 0.  0.
        -24    2    5    5    0    0 -0.11972086026E+03  0.24484764589E+02 -0.56045578439E+02  0.15374259272E+03  0.74586123891E+02 0.  0.
          5    1    3    3  501    0  0.96144735052E+02 -0.45106201959E+02 -0.54136632050E+03  0.55170459714E+03  0.47000000000E+01 0. -1.
        -13    1    4    4    0    0  0.25799318823E+02  0.38327332867E+02 -0.22778309590E+03  0.23242144495E+03  0.00000000000E+00 0.  1.
         14    1    4    4    0    0 -0.35811430388E+02 -0.10994466430E+02 -0.29651507032E+03  0.29887208595E+03  0.00000000000E+00 0. -1.
         -5    1    5    5    0  502  0.33588236771E+02 -0.67114290677E+01  0.24121912844E+02  0.42156489521E+02  0.47000000000E+01 0.  1.
         13    1    6    6    0    0 -0.11174718492E+03  0.32579813106E+02 -0.22803640839E+02  0.11861232480E+03  0.00000000000E+00 0. -1.
        -14    1    6    6    0    0 -0.79736753387E+01 -0.80950485173E+01 -0.33241937600E+02  0.35130267922E+02  0.00000000000E+00 0.  1.
</event>
<event>
12    1  0.1615162E-001  0.2074730E+03  0.7818608E-02  0.1143688E+00
         21   -1    0    0  501  502  0.00000000000E+00  0.00000000000E+00  0.33922748612E+02  0.33922748612E+02  0.00000000000E+00 0.  1.
         21   -1    0    0  502  503 -0.00000000000E+00 -0.00000000000E+00 -0.13255754649E+04  0.13255754649E+04  0.00000000000E+00 0.  1.
         -6    2    1    2    0  503 -0.11559527864E+03  0.16972648549E+02 -0.78949501366E+03  0.81616828765E+03  0.17081556701E+03 0.  0.
        -24    2    3    3    0    0 -0.14732234351E+03  0.16627198642E+02 -0.72336033751E+03  0.74266582939E+03  0.79511128974E+02 0.  0.
          6    2    1    2  501    0  0.11559527864E+03 -0.16972648549E+02 -0.50215770263E+03  0.54332992586E+03  0.17144885763E+03 0.  0.
         24    2    5    5    0    0  0.16410355258E+01 -0.57319281691E+01 -0.30457886829E+03  0.31491931074E+03  0.79814392634E+02 0.  0.
          5    1    5    5  501    0  0.11395424312E+03 -0.11240720380E+02 -0.19757883434E+03  0.22841061512E+03  0.47000000000E+01 0. -1.
        -13    1    6    6    0    0  0.39185652581E+02 -0.98334918441E+01 -0.12337852418E+03  0.12982477868E+03  0.00000000000E+00 0.  1.
         14    1    6    6    0    0 -0.37544617056E+02  0.41015636751E+01 -0.18120034411E+03  0.18509453206E+03  0.00000000000E+00 0. -1.
         -5    1    3    3    0  503  0.31727064870E+02  0.34544990766E+00 -0.66134676149E+02  0.73502458260E+02  0.47000000000E+01 0.  1.
         11    1    4    4    0    0 -0.29492640100E+01  0.13960407673E+02 -0.19595044247E+02  0.24239573008E+02  0.00000000000E+00 0. -1.
        -12    1    4    4    0    0 -0.14437307950E+03  0.26667909690E+01 -0.70376529326E+03  0.71842625639E+03  0.00000000000E+00 0.  1.
</event>
<event>
12    1  0.1615162E-001  0.2194718E+03  0.7818608E-02  0.1134569E+00
         21   -1    0    0  503  502  0.00000000000E+00  0.00000000000E+00  0.12678117717E+03  0.12678117717E+03  0.00000000000E+00 0. -1.
         21   -1    0    0  501  503 -0.00000000000E+00 -0.00000000000E+00 -0.37983305060E+03  0.37983305060E+03  0.00000000000E+00 0. -1.
          6    2    1    2  501    0 -0.11345013927E+03 -0.72284880466E+02 -0.10516511576E+03  0.24196663922E+03  0.17144128697E+03 0.  0.
         24    2    3    3    0    0 -0.95886515478E+02 -0.48839863952E+01 -0.11762084363E+03  0.17105404119E+03  0.78782897754E+02 0.  0.
         -6    2    1    2    0  502  0.11345013927E+03  0.72284880466E+02 -0.14788675767E+03  0.26464758856E+03  0.17341226886E+03 0.  0.
        -24    2    5    5    0    0  0.13766196580E+03  0.33097009194E+02 -0.86099681506E+02  0.18743596651E+03  0.87594848826E+02 0.  0.
          5    1    3    3  501    0 -0.17563623791E+02 -0.67400894071E+02  0.12455727864E+02  0.70912598027E+02  0.47000000000E+01 0. -1.
        -11    1    4    4    0    0  0.12884731644E+02 -0.80709603638E+01 -0.17526241833E+02  0.23201850433E+02  0.00000000000E+00 0.  1.
         12    1    4    4    0    0 -0.10877124712E+03  0.31869739686E+01 -0.10009460179E+03  0.14785219076E+03  0.00000000000E+00 0. -1.
         -5    1    5    5    0  502 -0.24211826531E+02  0.39187871273E+02 -0.61787076160E+02  0.77211622048E+02  0.47000000000E+01 0.  1.
         13    1    6    6    0    0  0.48949690753E+02  0.38367452435E+02 -0.75682129984E+02  0.97958758823E+02  0.00000000000E+00 0. -1.
        -14    1    6    6    0    0  0.88712275046E+02 -0.52704432416E+01 -0.10417551522E+02  0.89477207688E+02  0.00000000000E+00 0.  1.
</event>
<event>
12    1  0.1615162E-001  0.1935550E+03  0.7818608E-02  0.1155504E+00
         21   -1    0    0  503  502  0.00000000000E+00  0.00000000000E+00  0.14067180694E+03  0.14067180694E+03  0.00000000000E+00 0. -1.
         21   -1    0    0  501  503 -0.00000000000E+00 -0.00000000000E+00 -0.26607555211E+03  0.26607555211E+03  0.00000000000E+00 0.  1.
          6    2    1    2  501    0 -0.18761188854E+02 -0.84504217524E+02 -0.49682303978E+02  0.19890781452E+03  0.17205534680E+03 0.  0.
         24    2    3    3    0    0 -0.58814134230E+02 -0.10881252441E+02 -0.57224030564E+02  0.11462527149E+03  0.79289716544E+02 0.  0.
         -6    2    1    2    0  502  0.18761188854E+02  0.84504217524E+02 -0.75721441190E+02  0.20783954452E+03  0.17312017394E+03 0.  0.
        -24    2    5    5    0    0  0.21115398787E+02  0.68623935192E+02  0.20850108502E+02  0.10982995376E+03  0.80453633669E+02 0.  0.
          5    1    3    3  501    0  0.40052945376E+02 -0.73622965082E+02  0.75417265856E+01  0.84282543037E+02  0.47000000000E+01 0. -1.
        -13    1    4    4    0    0 -0.10555238969E+02 -0.29594387958E+01 -0.64285370267E+02  0.65213343558E+02  0.00000000000E+00 0.  1.
         14    1    4    4    0    0 -0.48258895261E+02 -0.79218136456E+01  0.70613397034E+01  0.49411927929E+02  0.00000000000E+00 0. -1.
         -5    1    5    5    0  502 -0.23542099328E+01  0.15880282331E+02 -0.96571549692E+02  0.98009590762E+02  0.47000000000E+01 0.  1.
         11    1    6    6    0    0  0.39291237229E+02  0.17524050013E+02 -0.14140349794E+02  0.45286235703E+02  0.00000000000E+00 0. -1.
        -12    1    6    6    0    0 -0.18175838443E+02  0.51099885179E+02  0.34990458296E+02  0.64543718054E+02  0.00000000000E+00 0.  1.
</event>
<event>
12    1  0.1615162E-001  0.2483420E+03  0.7818608E-02  0.1114440E+00
         21   -1    0    0  501  502  0.00000000000E+00  0.00000000000E+00  0.88584480031E+02  0.88584480031E+02  0.00000000000E+00 0. -1.
         21   -1    0    0  502  503 -0.00000000000E+00 -0.00000000000E+00 -0.72087715076E+03  0.72087715076E+03  0.00000000000E+00 0. -1.
         -6    2    1    2    0  503 -0.38727916839E+02  0.17456434820E+03 -0.39286678759E+03  0.46450006206E+03  0.17159088455E+03 0.  0.
        -24    2    3    3    0    0 -0.51640380690E+02  0.11729677458E+03 -0.14439847105E+03  0.20914755858E+03  0.80414678836E+02 0.  0.
          6    2    1    2  501    0  0.38727916839E+02 -0.17456434820E+03 -0.23942588313E+03  0.34496156872E+03  0.17234026569E+03 0.  0.
         24    2    5    5    0    0  0.69504196962E+02 -0.15393440213E+03 -0.10878301492E+03  0.20908506925E+03  0.57932618576E+02 0.  0.
          5    1    5    5  501    0 -0.30776280123E+02 -0.20629946064E+02 -0.13064286821E+03  0.13587649947E+03  0.47000000000E+01 0. -1.
        -11    1    6    6    0    0  0.64621152328E+01 -0.28922803490E+01 -0.23469588073E+02  0.24514195545E+02  0.00000000000E+00 0.  1.
         12    1    6    6    0    0  0.63042081729E+02 -0.15104212178E+03 -0.85313426846E+02  0.18457087371E+03  0.00000000000E+00 0. -1.
         -5    1    3    3    0  503  0.12912463851E+02  0.57267573613E+02 -0.24846831655E+03  0.25535250349E+03  0.47000000000E+01 0.  1.
         11    1    4    4    0    0 -0.78447147696E+01  0.10555194389E+03 -0.97325776841E+02  0.14378824446E+03  0.00000000000E+00 0. -1.
        -12    1    4    4    0    0 -0.43795665921E+02  0.11744830697E+02 -0.47072694206E+02  0.65359314114E+02  0.00000000000E+00 0.  1.
</event>
<event>
12    1  0.1615162E-001  0.2183494E+03  0.7818608E-02  0.1135251E+00
         21   -1    0    0  503  502  0.00000000000E+00  0.00000000000E+00  0.92415979675E+02  0.92415979675E+02  0.00000000000E+00 0. -1.
         21   -1    0    0  501  503 -0.00000000000E+00 -0.00000000000E+00 -0.53442122860E+03  0.53442122860E+03  0.00000000000E+00 0.  1.
          6    2    1    2  501    0 -0.60255258998E+02 -0.11902340903E+03 -0.28156268729E+03  0.35587911657E+03  0.17197421495E+03 0.  0.
         24    2    3    3    0    0  0.27507817229E+02 -0.57751698592E+02 -0.89958272283E+02  0.13635480836E+03  0.80051260522E+02 0.  0.
         -6    2    1    2    0  502  0.60255258998E+02  0.11902340903E+03 -0.16044256164E+03  0.27095809171E+03  0.17285602026E+03 0.  0.
        -24    2    5    5    0    0  0.75117207397E+02  0.47293590066E+02 -0.15699571086E+03  0.19747329587E+03  0.80428669299E+02 0.  0.
          5    1    3    3  501    0 -0.87763076227E+02 -0.61271710434E+02 -0.19160441500E+03  0.21952430821E+03  0.47000000000E+01 0. -1.
        -13    1    4    4    0    0  0.10602167201E+02 -0.39439533940E+02 -0.10111345978E+03  0.10904959667E+03  0.00000000000E+00 0.  1.
         14    1    4    4    0    0  0.16905650027E+02 -0.18312164652E+02  0.11155187493E+02  0.27305211684E+02  0.00000000000E+00 0. -1.
         -5    1    5    5    0  502 -0.14861948399E+02  0.71729818960E+02 -0.34468507782E+01  0.73484795832E+02  0.47000000000E+01 0.  1.
         11    1    6    6    0    0  0.70611484955E+02  0.35000953139E+02 -0.58596512417E+02  0.98206923359E+02  0.00000000000E+00 0. -1.
        -12    1    6    6    0    0  0.45057224419E+01  0.12292636927E+02 -0.98399198445E+02  0.99266372514E+02  0.00000000000E+00 0.  1.
</event>
<event>
12    1  0.1615162E-001  0.2040394E+03  0.7818608E-02  0.1147410E+00
         21   -1    0    0  501  502  0.00000000000E+00  0.00000000000E+00  0.12442609356E+03  0.12442609356E+03  0.00000000000E+00 0.  1.
         21   -1    0    0  502  503 -0.00000000000E+00 -0.00000000000E+00 -0.49932006784E+03  0.49932006784E+03  0.00000000000E+00 0.  1.
         -6    2    1    2    0  503 -0.66770765746E+02  0.73924302473E+02 -0.37242969590E+03  0.42465981273E+03  0.17807004383E+03 0.  0.
        -24    2    3    3    0    0 -0.71622131424E+02  0.11780292533E+03 -0.30470456429E+03  0.34368047744E+03  0.79146321162E+02 0.  0.
          6    2    1    2  501    0  0.66770765746E+02 -0.73924302473E+02 -0.24642783767E+01  0.19908634867E+03  0.17235476177E+03 0.  0.
         24    2    5    5    0    0  0.94589061452E+02 -0.91652187874E+02  0.25482153776E+02  0.15559809086E+03  0.78830271034E+02 0.  0.
          5    1    5    5  501    0 -0.27818295705E+02  0.17727885400E+02 -0.27946432153E+02  0.43488257804E+02  0.47000000000E+01 0. -1.
        -13    1    6    6    0    0  0.67220307821E+02 -0.10371005302E+03  0.20332164852E+02  0.12525071580E+03  0.00000000000E+00 0.  1.
         14    1    6    6    0    0  0.27368753631E+02  0.12057865149E+02  0.51499889241E+01  0.30347375062E+02  0.00000000000E+00 0. -1.
         -5    1    3    3    0  503  0.48513656775E+01 -0.43878622852E+02 -0.67725131610E+02  0.80979335289E+02  0.47000000000E+01 0.  1.
         11    1    4    4    0    0  0.91451165257E+01  0.21841934486E+02 -0.10667506806E+03  0.10927155807E+03  0.00000000000E+00 0. -1.
        -12    1    4    4    0    0 -0.80767247950E+02  0.95960990839E+02 -0.19802949623E+03  0.23440891937E+03  0.00000000000E+00 0.  1.
</event>
<event>
12    1  0.1615162E-001  0.3154409E+03  0.7818608E-02  0.1077877E+00
         21   -1    0    0  503  502  0.00000000000E+00  0.00000000000E+00  0.16993957237E+04  0.16993957237E+04  0.00000000000E+00 0.  1.
         21   -1    0    0  501  503 -0.00000000000E+00 -0.00000000000E+00 -0.68371611926E+02  0.68371611926E+02  0.00000000000E+00 0.  1.
          6    2    1    2  501    0  0.23942678186E+03 -0.11198332050E+03  0.47862845354E+03  0.57322607700E+03  0.17215542649E+03 0.  0.
         24    2    3    3    0    0  0.24186778904E+03 -0.11210568986E+03  0.48845562393E+03  0.56206199315E+03  0.79101672052E+02 0.  0.
         -6    2    1    2    0  502 -0.23942678186E+03  0.11198332050E+03  0.11523956582E+04  0.11945412586E+04  0.17043361611E+03 0.  0.
        -24    2    5    5    0    0 -0.26154815028E+02  0.38939481777E+02  0.27821181952E+03  0.29174570697E+03  0.74252161097E+02 0.  0.
          5    1    3    3  501    0 -0.24410071736E+01  0.12236935449E+00 -0.98271703923E+01  0.11164083850E+02  0.47000000000E+01 0. -1.
        -11    1    4    4    0    0  0.14702765807E+03 -0.10036349020E+03  0.26742612761E+03  0.32125798999E+03  0.00000000000E+00 0.  1.
         12    1    4    4    0    0  0.94840130962E+02 -0.11742199657E+02  0.22102949632E+03  0.24080400316E+03  0.00000000000E+00 0. -1.
         -5    1    5    5    0  502 -0.21327196683E+03  0.73043838724E+02  0.87418383873E+03  0.90279555167E+03  0.47000000000E+01 0.  1.
         13    1    6    6    0    0 -0.11369814201E+02  0.24392196638E+02  0.26663938384E+03  0.26799405394E+03  0.00000000000E+00 0. -1.
        -14    1    6    6    0    0 -0.14785000827E+02  0.14547285140E+02  0.11572435679E+02  0.23751653036E+02  0.00000000000E+00 0.  1.
</event>
<event>
12    1  0.1615162E-001  0.2488230E+03  0.7818608E-02  0.1114091E+00
         21   -1    0    0  501  502  0.00000000000E+00  0.00000000000E+00  0.19463587716E+03  0.19463587716E+03  0.00000000000E+00 0.  1.
         21   -1    0    0  502  503 -0.00000000000E+00 -0.00000000000E+00 -0.36591324396E+03  0.36591324396E+03  0.00000000000E+00 0.  1.
         -6    2    1    2    0  503  0.14998320772E+03  0.98236863785E+02  0.16059656206E+02  0.24908797530E+03  0.17216696221E+03 0.  0.
        -24    2    3    3    0    0  0.13135699431E+03  0.60717046127E+02 -0.49577445557E+02  0.17108161869E+03  0.76614473185E+02 0.  0.
          6    2    1    2  501    0 -0.14998320772E+03 -0.98236863785E+02 -0.18733702301E+03  0.31146114583E+03  0.17253243511E+03 0.  0.
         24    2    5    5    0    0 -0.16088243062E+03 -0.12316067940E+03 -0.17768606767E+03  0.28221699114E+03  0.83799653997E+02 0.  0.
          5    1    5    5  501    0  0.10899222900E+02  0.24923815615E+02 -0.96509553369E+01  0.29244154690E+02  0.47000000000E+01 0. -1.
        -11    1    6    6    0    0 -0.10772397390E+03 -0.40346903672E+02 -0.63199708592E+02  0.13124987755E+03  0.00000000000E+00 0.  1.
         12    1    6    6    0    0 -0.53158456711E+02 -0.82813775728E+02 -0.11448635908E+03  0.15096711359E+03  0.00000000000E+00 0. -1.
         -5    1    3    3    0  503  0.18626213404E+02  0.37519817658E+02  0.65637101763E+02  0.78006356604E+02  0.47000000000E+01 0.  1.
         13    1    4    4    0    0  0.12592872976E+03  0.44245130309E+02 -0.17502480058E+02  0.13461802756E+03  0.00000000000E+00 0. -1.
        -14    1    4    4    0    0  0.54282645523E+01  0.16471915818E+02 -0.32074965499E+02  0.36463591136E+02  0.00000000000E+00 0.  1.
</event>
<event>
12    1  0.1615162E-001  0.3804009E+03  0.7818608E-02  0.1050813E+00
         21   -1    0    0  503  502  0.00000000000E+00  0.00000000000E+00  0.12358136480E+04  0.12358136480E+04  0.00000000000E+00 0. -1.
         21   -1    0    0  501  503 -0.00000000000E+00 -0.00000000000E+00 -0.11741956554E+03  0.11741956554E+03  0.00000000000E+00 0.  1.
          6    2    1    2  501    0 -0.93789096504E+02 -0.32593615484E+03  0.51856232517E+03  0.64294946522E+03  0.17159941166E+03 0.  0.
         24    2    3    3    0    0 -0.87021456181E+02 -0.19376711390E+03  0.21905952071E+03  0.31547660189E+03  0.80124805516E+02 0.  0.
         -6    2    1    2    0  502  0.93789096504E+02  0.32593615484E+03  0.59983175732E+03  0.71028374836E+03  0.17226170332E+03 0.  0.
        -24    2    5    5    0    0  0.12669315197E+03  0.21950733577E+03  0.46227452013E+03  0.53321355352E+03  0.79902043050E+02 0.  0.
          5    1    3    3  501    0 -0.67676403222E+01 -0.13216904094E+03  0.29950280446E+03  0.32747286333E+03  0.47000000000E+01 0. -1.
        -11    1    4    4    0    0 -0.74491162957E+01 -0.19575342438E+02 -0.41719028068E+01  0.21356220129E+02  0.00000000000E+00 0.  1.
         12    1    4    4    0    0 -0.79572339886E+02 -0.17419177146E+03  0.22323142352E+03  0.29412038176E+03  0.00000000000E+00 0. -1.
         -5    1    5    5    0  502 -0.32904055469E+02  0.10642881908E+03  0.13755723720E+03  0.17707019484E+03  0.47000000000E+01 0.  1.
         13    1    6    6    0    0  0.86064294818E+02  0.19546028530E+03  0.33314436758E+03  0.39572333217E+03  0.00000000000E+00 0. -1.
        -14    1    6    6    0    0  0.40628857154E+02  0.24047050466E+02  0.12913015254E+03  0.13749022135E+03  0.00000000000E+00 0.  1.
</event>
<event>
12    1  0.1615162E-001  0.1829649E+03  0.7818608E-02  0.1165306E+00
         21   -1    0    0  503  502  0.00000000000E+00  0.00000000000E+00  0.25888576920E+03  0.25888576920E+03  0.00000000000E+00 0.  1.
         21   -1    0    0  501  503 -0.00000000000E+00 -0.00000000000E+00 -0.27036529558E+03  0.27036529558E+03  0.00000000000E+00 0. -1.
          6    2    1    2  501    0  0.42870939002E+02  0.42007998787E+02 -0.19757545841E+03  0.26928089340E+03  0.17283966099E+03 0.  0.
         24    2    3    3    0    0  0.87620479711E+02 -0.10555171734E+01 -0.11193967619E+03  0.16339149357E+03  0.80547045162E+02 0.  0.
         -6    2    1    2    0  502 -0.42870939002E+02 -0.42007998787E+02  0.18609593203E+03  0.25997017138E+03  0.17131901446E+03 0.  0.
        -24    2    5    5    0    0 -0.85560792013E+02 -0.77176378994E+01  0.91428207378E+02  0.15050638517E+03  0.83143513323E+02 0.  0.
          5    1    3    3  501    0 -0.44749540709E+02  0.43063515960E+02 -0.85635782217E+02  0.10588939983E+03  0.47000000000E+01 0. -1.
        -13    1    4    4    0    0 -0.28589099584E+01  0.23876182173E+02 -0.32526490638E+02  0.40450192021E+02  0.00000000000E+00 0.  1.
         14    1    4    4    0    0  0.90479389669E+02 -0.24931699346E+02 -0.79413185557E+02  0.12294130155E+03  0.00000000000E+00 0. -1.
         -5    1    5    5    0  502  0.42689853011E+02 -0.34290360888E+02  0.94667724654E+02  0.10946378621E+03  0.47000000000E+01 0.  1.
         11    1    6    6    0    0 -0.19915205504E+02  0.30750082048E+02  0.78217364793E+01  0.37461480453E+02  0.00000000000E+00 0. -1.
        -12    1    6    6    0    0 -0.65645586509E+02 -0.38467719947E+02  0.83606470899E+02  0.11304490472E+03  0.00000000000E+00 0.  1.
</event>
<event>
12    1  0.1615162E-001  0.2532562E+03  0.7818608E-02  0.1111417E+00
         21   -1    0    0  501  502  0.00000000000E+00  0.00000000000E+00  0.35250650395E+03  0.35250650395E+03  0.00000000000E+00 0.  1.
         21   -1    0    0  502  503 -0.00000000000E+00 -0.00000000000E+00 -0.20495853247E+03  0.20495853247E+03  0.00000000000E+00 0. -1.
         -6    2    1    2    0  503  0.13337196505E+02  0.18419239589E+03 -0.20910344573E+02  0.25411795495E+03  0.17330312463E+03 0.  0.
        -24    2    3    3    0    0  0.13109811760E+02  0.21476290284E+02 -0.27046972183E+02  0.91218197661E+02  0.83403373262E+02 0.  0.
          6    2    1    2  501    0 -0.13337196505E+02 -0.18419239589E+03  0.16845831606E+03  0.30334708147E+03  0.17186194481E+03 0.  0.
         24    2    5    5    0    0 -0.51776414712E+02 -0.17258624208E+03  0.92972097229E+02  0.21771685587E+03  0.79309585760E+02 0.  0.
          5    1    5    5  501    0  0.38439218206E+02 -0.11606153812E+02  0.75486218828E+02  0.85630225596E+02  0.47000000000E+01 0. -1.
        -11    1    6    6    0    0 -0.49248970625E+02 -0.67264099515E+02  0.72310861016E+02  0.11035751362E+03  0.00000000000E+00 0.  1.
         12    1    6    6    0    0 -0.25274440861E+01 -0.10532214256E+03  0.20661236213E+02  0.10735934225E+03  0.00000000000E+00 0. -1.
         -5    1    3    3    0  503  0.22738474491E+00  0.16271610560E+03  0.61366276099E+01  0.16289975729E+03  0.47000000000E+01 0.  1.
         11    1    4    4    0    0  0.30161361546E+02  0.15877369128E+02 -0.50966762538E+02  0.61314023391E+02  0.00000000000E+00 0. -1.
        -12    1    4    4    0    0 -0.17051549786E+02  0.55989211551E+01  0.23919790355E+02  0.29904174271E+02  0.00000000000E+00 0.  1.
</event>
<event>
12    1  0.1615162E-001  0.1735735E+03  0.7818608E-02  0.1175034E+00
         21   -1    0    0  503  502  0.00000000000E+00  0.00000000000E+00  0.24409823806E+03  0.24409823806E+03  0.00000000000E+00 0. -1.
         21   -1    0    0  501  503 -0.00000000000E+00 -0.00000000000E+00 -0.25331160183E+03  0.25331160183E+03  0.00000000000E+00 0. -1.
          6    2    1    2  501    0  0.28995909385E+01  0.12729466460E+02 -0.18433742662E+03  0.25319566937E+03  0.17308181069E+03 0.  0.
         24    2    3    3    0    0  0.10539922704E+02  0.67939148159E+02 -0.71027926782E+02  0.12683263531E+03  0.79465295407E+02 0.  0.
         -6    2    1    2    0  502 -0.28995909385E+01 -0.12729466460E+02  0.17512406285E+03  0.24421417052E+03  0.16971056759E+03 0.  0.
        -24    2    5    5    0    0  0.41535658359E+02 -0.20612070194E+02  0.88577926512E+02  0.14649543876E+03  0.10707378839E+03 0.  0.
          5    1    3    3  501    0 -0.76403317651E+01 -0.55209681699E+02 -0.11330949983E+03  0.12636303405E+03  0.47000000000E+01 0. -1.
        -13    1    4    4    0    0 -0.12276617970E+02  0.27368227734E+02  0.11466371128E+02  0.32112503871E+02  0.00000000000E+00 0.  1.
         14    1    4    4    0    0  0.22816540673E+02  0.40570920426E+02 -0.82494297910E+02  0.94720131441E+02  0.00000000000E+00 0. -1.
         -5    1    5    5    0  502 -0.44435249297E+02  0.78826037332E+01  0.86546136334E+02  0.97718731756E+02  0.47000000000E+01 0.  1.
         13    1    6    6    0    0 -0.19695934506E+02 -0.34468282083E+02  0.22617667419E+01  0.39763147444E+02  0.00000000000E+00 0. -1.
        -14    1    6    6    0    0  0.61231592865E+02  0.13856211890E+02  0.86316159770E+02  0.10673229132E+03  0.00000000000E+00 0.  1.
</event>
<event>
12    1  0.1615162E-001  0.2695492E+03  0.7818608E-02  0.1101733E+00
         21   -1    0    0  503  502  0.00000000000E+00  0.00000000000E+00  0.11042113391E+04  0.11042113391E+04  0.00000000000E+00 0.  1.
         21   -1    0    0  501  503 -0.00000000000E+00 -0.00000000000E+00 -0.70231754189E+02  0.70231754189E+02  0.00000000000E+00 0.  1.
          6    2    1    2  501    0 -0.12766715139E+02 -0.20479488255E+03  0.36284397768E+03  0.45120054372E+03  0.17269118561E+03 0.  0.
         24    2    3    3    0    0  0.18536958300E+02 -0.80018658450E+02  0.65705864871E+02  0.12737624854E+03  0.71839010921E+02 0.  0.
         -6    2    1    2    0  502  0.12766715139E+02  0.20479488255E+03  0.67113560720E+03  0.72324254953E+03  0.17479373348E+03 0.  0.
        -24    2    5    5    0    0 -0.19802547544E+02  0.89173591145E+02  0.17819926570E+03  0.21585968948E+03  0.80599981393E+02 0.  0.
          5    1    3    3  501    0 -0.31303673439E+02 -0.12477622410E+03  0.29713811280E+03  0.32382429519E+03  0.47000000000E+01 0. -1.
        -13    1    4    4    0    0  0.68681251619E+01 -0.86316878073E+02  0.72079215052E+02  0.11266404851E+03  0.00000000000E+00 0.  1.
         14    1    4    4    0    0  0.11668833138E+02  0.62982196229E+01 -0.63733501814E+01  0.14712200031E+02  0.00000000000E+00 0. -1.
         -5    1    5    5    0  502  0.32569262682E+02  0.11562129140E+03  0.49293634151E+03  0.50738286005E+03  0.47000000000E+01 0.  1.
         13    1    6    6    0    0  0.31092391885E+02  0.41001854344E+02  0.68202901146E+02  0.85437255442E+02  0.00000000000E+00 0. -1.
        -14    1    6    6    0    0 -0.50894939429E+02  0.48171736801E+02  0.10999636455E+03  0.13042243404E+03  0.00000000000E+00 0.  1.
</event>
<event>
12    1  0.1615162E-001  0.2174048E+03  0.7818608E-02  0.1135888E+00
         21   -1    0    0  501  502  0.00000000000E+00  0.00000000000E+00  0.13802525473E+03  0.13802525473E+03  0.00000000000E+00 0.  1.
         21   -1    0    0  502  503 -0.00000000000E+00 -0.00000000000E+00 -0.35020055755E+03  0.35020055755E+03  0.00000000000E+00 0.  1.
         -6    2    1    2    0  503  0.86420586125E+02  0.10036440020E+03 -0.68746363315E+02  0.22801513778E+03  0.17240449545E+03 0.  0.
        -24    2    3    3    0    0 -0.12708565096E+02  0.10270069054E+02 -0.39320551283E+02  0.90787059235E+02  0.80182307438E+02 0.  0.
          6    2    1    2  501    0 -0.86420586125E+02 -0.10036440020E+03 -0.14342893950E+03  0.26021067451E+03  0.17203547281E+03 0.  0.
         24    2    5    5    0    0  0.15890346864E+02 -0.59252199807E+02 -0.37013654980E+02  0.10690039171E+03  0.79336982472E+02 0.  0.
          5    1    5    5  501    0 -0.10231093299E+03 -0.41112200394E+02 -0.10641528452E+03  0.15331028279E+03  0.47000000000E+01 0. -1.
        -11    1    6    6    0    0 -0.30756465930E+01  0.86385798658E+01 -0.35212836566E+02  0.36387202738E+02  0.00000000000E+00 0.  1.
         12    1    6    6    0    0  0.18965993457E+02 -0.67890779672E+02 -0.18008184142E+01  0.70513188974E+02  0.00000000000E+00 0. -1.
         -5    1    3    3    0  503  0.99129151221E+02  0.90094331146E+02 -0.29425812032E+02  0.13722807854E+03  0.47000000000E+01 0.  1.
         13    1    4    4    0    0  0.46105760256E+01 -0.29956276772E+02 -0.35715568371E+02  0.46842691569E+02  0.00000000000E+00 0. -1.
        -14    1    4    4    0    0 -0.17319141122E+02  0.40226345826E+02 -0.36049829116E+01  0.43944367666E+02  0.00000000000E+00 0.  1.
</event>
<event>
12    1  0.1615162E-001  0.2000909E+03  0.7818608E-02  0.1149860E+00
         21   -1    0    0  501  502  0.00000000000E+00  0.00000000000E+00  0.10124729015E+03  0.10124729015E+03  0.00000000000E+00 0.  1.
         21   -1    0    0  502  503 -0.00000000000E+00 -0.00000000000E+00 -0.11330884635E+04  0.11330884635E+04  0.00000000000E+00 0.  1.
         -6    2    1    2    0  503 -0.83732881691E+02  0.55964548641E+02 -0.10149293227E+04  0.10344650210E+04  0.17289627928E+03 0.  0.
        -24    2    3    3    0    0 -0.14791971386E+02  0.35316006474E+02 -0.23901640560E+03  0.25520758193E+03  0.80845810015E+02 0.  0.
          6    2    1    2  501    0  0.83732881691E+02 -0.55964548641E+02 -0.16911850708E+02  0.19987073272E+03  0.17181115483E+03 0.  0.
         24    2    5    5    0    0  0.11164339323E+03 -0.83700613973E+01  0.89362464696E+01  0.13876061901E+03  0.81488328652E+02 0.  0.
          5    1    5    5  501    0 -0.27910511542E+02 -0.47594487244E+02 -0.25848097177E+02  0.61110113715E+02  0.47000000000E+01 0. -1.
        -13    1    6    6    0    0  0.59128428299E+02  0.34923858876E+02  0.15452888018E+02  0.70389194484E+02  0.00000000000E+00 0.  1.
         14    1    6    6    0    0  0.52514964933E+02 -0.43293920273E+02 -0.65166415483E+01  0.68371424525E+02  0.00000000000E+00 0. -1.
         -5    1    3    3    0  503 -0.68940910304E+02  0.20648542168E+02 -0.77591291706E+03  0.77925743902E+03  0.47000000000E+01 0.  1.
         13    1    4    4    0    0 -0.37497244651E+02  0.44318414150E+02 -0.20671021614E+03  0.21470742569E+03  0.00000000000E+00 0. -1.
        -14    1    4    4    0    0  0.22705273265E+02 -0.90024076765E+01 -0.32306189460E+02  0.40500156239E+02  0.00000000000E+00 0.  1.
</event>
<event>
12    1  0.1615162E-001  0.1929795E+03  0.7818608E-02  0.1156079E+00
         21   -1    0    0  501  502  0.00000000000E+00  0.00000000000E+00  0.12217734451E+03  0.12217734451E+03  0.00000000000E+00 0. -1.
         21   -1    0    0  502  503 -0.00000000000E+00 -0.00000000000E+00 -0.82397333713E+03  0.82397333713E+03  0.00000000000E+00 0. -1.
         -6    2    1    2    0  503 -0.11686265972E+02 -0.85942586404E+02 -0.72670385340E+03  0.75157034928E+03  0.17098772588E+03 0.  0.
        -24    2    3    3    0    0 -0.23377166015E+02 -0.60206205254E+02 -0.71340348394E+03  0.71997876359E+03  0.72481791403E+02 0.  0.
          6    2    1    2  501    0  0.11686265972E+02  0.85942586404E+02  0.24907860778E+02  0.19458033236E+03  0.17239027595E+03 0.  0.
         24    2    5    5    0    0  0.14322389991E+02 -0.86200223676E+01 -0.27105610680E+02  0.86522350977E+02  0.80448539127E+02 0.  0.
          5    1    5    5  501    0 -0.26361240198E+01  0.94562608772E+02  0.52013471457E+02  0.10805798138E+03  0.47000000000E+01 0. -1.
        -11    1    6    6    0    0 -0.88072721775E+01 -0.27653336537E+02  0.16677986873E+02  0.33472829444E+02  0.00000000000E+00 0.  1.
         12    1    6    6    0    0  0.23129662169E+02  0.19033314170E+02 -0.43783597552E+02  0.53049521534E+02  0.00000000000E+00 0. -1.
         -5    1    3    3    0  503  0.11690900043E+02 -0.25736381150E+02 -0.13300369458E+02  0.31591585687E+02  0.47000000000E+01 0.  1.
         13    1    4    4    0    0 -0.37854651040E+02 -0.43000197307E+01 -0.34143030114E+03  0.34354929095E+03  0.00000000000E+00 0. -1.
        -14    1    4    4    0    0  0.14477485026E+02 -0.55906185524E+02 -0.37197318280E+03  0.37642947264E+03  0.00000000000E+00 0.  1.
</event>
<event>
12    1  0.1615162E-001  0.1783264E+03  0.7818608E-02  0.1171031E+00
         21   -1    0    0  503  502  0.00000000000E+00  0.00000000000E+00  0.50179132057E+03  0.50179132057E+03  0.00000000000E+00 0. -1.
         21   -1    0    0  501  503 -0.00000000000E+00 -0.00000000000E+00 -0.75567304609E+02  0.75567304609E+02  0.00000000000E+00 0. -1.
          6    2    1    2  501    0 -0.89181875092E+01  0.47785372406E+02  0.90053438623E+02  0.19977466419E+03  0.17157307120E+03 0.  0.
         24    2    3    3    0    0  0.86667147336E+01  0.96545848929E+02  0.63352283027E+02  0.14127804405E+03  0.80930594190E+02 0.  0.
         -6    2    1    2    0  502  0.89181875092E+01 -0.47785372406E+02  0.33617057733E+03  0.37758396099E+03  0.16491214220E+03 0.  0.
        -24    2    5    5    0    0 -0.44077332704E+02 -0.45351700396E+02  0.12927963076E+03  0.16394781775E+03  0.78524365828E+02 0.  0.
          5    1    3    3  501    0 -0.17584902243E+02 -0.48760476523E+02  0.26701155596E+02  0.58496620140E+02  0.47000000000E+01 0. -1.
        -13    1    4    4    0    0 -0.17245405623E+00  0.47221012002E+02  0.76110061436E+02  0.89568940860E+02  0.00000000000E+00 0.  1.
         14    1    4    4    0    0  0.88391687898E+01  0.49324836927E+02 -0.12757778409E+02  0.51709103190E+02  0.00000000000E+00 0. -1.
         -5    1    5    5    0  502  0.52995520213E+02 -0.24336720104E+01  0.20689094658E+03  0.21363614324E+03  0.47000000000E+01 0.  1.
         13    1    6    6    0    0 -0.45693606507E+02 -0.65650815363E+02  0.96279796363E+02  0.12517082097E+03  0.00000000000E+00 0. -1.
        -14    1    6    6    0    0  0.16162738024E+01  0.20299114967E+02  0.32999834394E+02  0.38776996783E+02  0.00000000000E+00 0.  1.
</event>
<event>
12    1  0.1615162E-001  0.2856974E+03  0.7818608E-02  0.1092661E+00
         21   -1    0    0  501  502  0.00000000000E+00  0.00000000000E+00  0.29156595615E+03  0.29156595615E+03  0.00000000000E+00 0.  1.
         21   -1    0    0  502  503 -0.00000000000E+00 -0.00000000000E+00 -0.29846334781E+03  0.29846334781E+03  0.00000000000E+00 0. -1.
         -6    2    1    2    0  503 -0.22305672232E+03 -0.50070866116E+02 -0.77567723357E+02  0.29604014629E+03  0.17135233731E+03 0.  0.
        -24    2    3    3    0    0 -0.11892747715E+03 -0.64909189464E+02  0.12021253769E+02  0.15779633861E+03  0.79988913222E+02 0.  0.
          6    2    1    2  501    0  0.22305672232E+03  0.50070866116E+02  0.70670331698E+02  0.29398915768E+03  0.17080379400E+03 0.  0.
         24    2    5    5    0    0  0.16641409058E+03  0.33521076439E+01  0.72436703268E+01  0.19684976559E+03  0.10484499645E+03 0.  0.
          5    1    5    5  501    0  0.56642631736E+02  0.46718758472E+02  0.63426661371E+02  0.97139392091E+02  0.47000000000E+01 0. -1.
        -11    1    6    6    0    0  0.11901685693E+03  0.46611629511E+02  0.25058657425E+02  0.13025203473E+03  0.00000000000E+00 0.  1.
         12    1    6    6    0    0  0.47397233655E+02 -0.43259521867E+02 -0.17814987098E+02  0.66597730859E+02  0.00000000000E+00 0. -1.
         -5    1    3    3    0  503 -0.10412924517E+03  0.14838323348E+02 -0.89588977126E+02  0.13824380768E+03  0.47000000000E+01 0.  1.
         13    1    4    4    0    0 -0.15670758670E+02 -0.49671596703E+02 -0.38256108516E+01  0.52225238101E+02  0.00000000000E+00 0. -1.
        -14    1    4    4    0    0 -0.10325671848E+03 -0.15237592761E+02  0.15846864620E+02  0.10557110051E+03  0.00000000000E+00 0.  1.
</event>
<event>
12    1  0.1615162E-001  0.1844269E+03  0.7818608E-02  0.1163623E+00
         21   -1    0    0  503  502  0.00000000000E+00  0.00000000000E+00  0.10507979010E+04  0.10507979010E+04  0.00000000000E+00 0.  1.
         21   -1    0    0  501  503 -0.00000000000E+00 -0.00000000000E+00 -0.17248154386E+03  0.17248154386E+03  0.00000000000E+00 0.  1.
          6    2    1    2  501    0 -0.60788005449E+02 -0.25958684696E+02 -0.11219929088E+03  0.21574059295E+03  0.17200665003E+03 0.  0.
         24    2    3    3    0    0 -0.10165991848E+03 -0.76349222925E+01 -0.11172605750E+03  0.17070074955E+03  0.79139136391E+02 0.  0.
         -6    2    1    2    0  502  0.60788005449E+02  0.25958684696E+02  0.99051564798E+03  0.10075388519E+04  0.17217506853E+03 0.  0.
        -24    2    5    5    0    0  0.62204373035E+02  0.77919663491E+02  0.60726048620E+03  0.62074619624E+03  0.81361440952E+02 0.  0.
          5    1    3    3  501    0  0.40871913035E+02 -0.18323762403E+02 -0.47323338657E+00  0.45039843401E+02  0.47000000000E+01 0. -1.
        -13    1    4    4    0    0 -0.55399060291E+02  0.19738404206E+02 -0.99491078727E+02  0.11557307311E+03  0.00000000000E+00 0.  1.
         14    1    4    4    0    0 -0.46260858192E+02 -0.27373326498E+02 -0.12234978771E+02  0.55127676441E+02  0.00000000000E+00 0. -1.
         -5    1    5    5    0  502 -0.14163675860E+01 -0.51960978795E+02  0.38325516178E+03  0.38679265563E+03  0.47000000000E+01 0.  1.
         13    1    6    6    0    0  0.14729236262E+02  0.79357656074E+02  0.40752744304E+03  0.41544338340E+03  0.00000000000E+00 0. -1.
        -14    1    6    6    0    0  0.47475136773E+02 -0.14379925834E+01  0.19973304315E+03  0.20530281284E+03  0.00000000000E+00 0.  1.
</event>
<event>
12    1  0.1615162E-001  0.1842104E+03  0.7818608E-02  0.1163962E+00
         21   -1    0    0  503  502  0.00000000000E+00  0.00000000000E+00  0.76058084741E+02  0.76058084741E+02  0.00000000000E+00 0. -1.
         21   -1    0    0  501  503 -0.00000000000E+00 -0.00000000000E+00 -0.49640286524E+03  0.49640286524E+03  0.00000000000E+00 0.  1.
          6    2    1    2  501    0  0.53475761143E+02 -0.37587054531E+02 -0.30320867160E+03  0.35478016227E+03  0.17222375362E+03 0.  0.
         24    2    3    3    0    0  0.24315505060E+02 -0.30100834838E+02 -0.31074673568E+03  0.32339104902E+03  0.80752292904E+02 0.  0.
         -6    2    1    2    0  502 -0.53475761143E+02  0.37587054531E+02 -0.11713610890E+03  0.21768078771E+03  0.17143982511E+03 0.  0.
        -24    2    5    5    0    0 -0.15454011730E+02  0.14897758281E+02  0.95300135414E+01  0.83416666787E+02  0.80042173005E+02 0.  0.
          5    1    3    3  501    0  0.29160256083E+02 -0.74862196930E+01  0.75380640832E+01  0.31389113244E+02  0.47000000000E+01 0. -1.
        -13    1    4    4    0    0  0.35316497839E+02 -0.33013504674E+02 -0.88419766403E+02  0.10077302020E+03  0.00000000000E+00 0.  1.
         14    1    4    4    0    0 -0.11000992779E+02  0.29126698363E+01 -0.22232696928E+03  0.22261802882E+03  0.00000000000E+00 0. -1.
         -5    1    5    5    0  502 -0.38021749413E+02  0.22689296250E+02 -0.12666612245E+03  0.13426412093E+03  0.47000000000E+01 0.  1.
         11    1    6    6    0    0 -0.33954336416E+02  0.34534721485E+02  0.22593004241E+02  0.53441442628E+02  0.00000000000E+00 0. -1.
        -12    1    6    6    0    0  0.18500324686E+02 -0.19636963204E+02 -0.13062990700E+02  0.29975224159E+02  0.00000000000E+00 0.  1.
</event>
<event>
12    1  0.1615162E-001  0.2563862E+03  0.7818608E-02  0.1109406E+00
         21   -1    0    0  503  502  0.00000000000E+00  0.00000000000E+00  0.52934686799E+03  0.52934686799E+03  0.00000000000E+00 0.  1.
         21   -1    0    0  501  503 -0.00000000000E+00 -0.00000000000E+00 -0.13231427395E+03  0.13231427395E+03  0.00000000000E+00 0. -1.
          6    2    1    2  501    0  0.99657498876E+02 -0.16166550233E+03  0.11551607442E+03  0.28120784523E+03  0.17223976615E+03 0.  0.
         24    2    3    3    0    0  0.16180267503E+02 -0.73422071356E+02  0.11652311605E+03  0.15964117463E+03  0.79088978013E+02 0.  0.
         -6    2    1    2    0  502 -0.99657498876E+02  0.16166550233E+03  0.28151651962E+03  0.38045329671E+03  0.17153952440E+03 0.  0.
        -24    2    5    5    0    0 -0.30693899405E+02 -0.10257929492E+02  0.11002439805E+03  0.12797501601E+03  0.56788167598E+02 0.  0.
          5    1    3    3  501    0  0.83477231373E+02 -0.88243430977E+02 -0.10070416346E+01  0.12156667060E+03  0.47000000000E+01 0. -1.
        -13    1    4    4    0    0 -0.12362640374E+02 -0.77006710003E+02  0.98717480082E+02  0.12580941593E+03  0.00000000000E+00 0.  1.
         14    1    4    4    0    0  0.28542907877E+02  0.35846386475E+01  0.17805635969E+02  0.33831758697E+02  0.00000000000E+00 0. -1.
         -5    1    5    5    0  502 -0.68963599470E+02  0.17192343183E+03  0.17149212157E+03  0.25247828070E+03  0.47000000000E+01 0.  1.
         13    1    6    6    0    0 -0.16064270623E+02  0.88235806426E+01  0.33591305202E+01  0.18633306842E+02  0.00000000000E+00 0. -1.
        -14    1    6    6    0    0 -0.14629628782E+02 -0.19081510135E+02  0.10666526753E+03  0.10934170917E+03  0.00000000000E+00 0.  1.
</event>
<event>
12    1  0.1615162E-001  0.2508020E+03  0.7818608E-02  0.1112831E+00
         21   -1    0    0  501  502  0.00000000000E+00  0.00000000000E+00  0.38673216342E+03  0.38673216342E+03  0.00000000000E+00 0. -1.
         21   -1    0    0  502  503 -0.00000000000E+00 -0.00000000000E+00 -0.18911937306E+03  0.18911937306E+03  0.00000000000E+00 0.  1.
         -6    2    1    2    0  503  0.14646086743E+03 -0.10856067836E+03  0.20682841785E+03  0.32508401919E+03  0.17223651915E+03 0.  0.
        -24    2    3    3    0    0  0.11785032768E+03 -0.11108597690E+03  0.22704600690E+03  0.28964701841E+03  0.78209411381E+02 0.  0.
          6    2    1    2  501    0 -0.14646086743E+03  0.10856067836E+03 -0.92156274933E+01  0.25076751728E+03  0.17193956310E+03 0.  0.
         24    2    5    5    0    0 -0.67043935441E+02  0.18179353364E+02 -0.57631218638E+02  0.12099081498E+03  0.80573207584E+02 0.  0.
          5    1    5    5  501    0 -0.79416931987E+02  0.90381324996E+02  0.48415591144E+02  0.12977670230E+03  0.47000000000E+01 0. -1.
        -11    1    6    6    0    0 -0.52356241671E+02  0.42162251702E+02 -0.63262895105E+02  0.92309400429E+02  0.00000000000E+00 0.  1.
         12    1    6    6    0    0 -0.14687693771E+02 -0.23982898338E+02  0.56316764675E+01  0.28681414554E+02  0.00000000000E+00 0. -1.
         -5    1    3    3    0  503  0.28610539747E+02  0.25252985431E+01 -0.20217589047E+02  0.35437000779E+02  0.47000000000E+01 0.  1.
         11    1    4    4    0    0  0.64638511932E+02 -0.75940463433E+02  0.75034155697E+02  0.12480070405E+03  0.00000000000E+00 0. -1.
        -12    1    4    4    0    0  0.53211815750E+02 -0.35145513470E+02  0.15201185120E+03  0.16484631436E+03  0.00000000000E+00 0.  1.
</event>
<event>
12    1  0.1615162E-001  0.2413525E+03  0.7818608E-02  0.1119757E+00
         21   -1    0    0  501  502  0.00000000000E+00  0.00000000000E+00  0.16377110734E+03  0.16377110734E+03  0.00000000000E+00 0. -1.
         21   -1    0    0  502  503 -0.00000000000E+00 -0.00000000000E+00 -0.52492276279E+03  0.52492276279E+03  0.00000000000E+00 0. -1.
         -6    2    1    2    0  503 -0.10118315950E+03  0.12881178497E+03  0.20547577315E+02  0.23709077388E+03  0.17017439411E+03 0.  0.
        -24    2    3    3    0    0 -0.54843356395E+02  0.70115043441E+02 -0.51946226743E+02  0.13283087534E+03  0.83795691488E+02 0.  0.
          6    2    1    2  501    0  0.10118315950E+03 -0.12881178497E+03 -0.38169923276E+03  0.45160309625E+03  0.17725841176E+03 0.  0.
         24    2    5    5    0    0  0.11891209531E+03 -0.88105855169E+02 -0.18660194709E+03  0.25146232389E+03  0.80686340553E+02 0.  0.
          5    1    5    5  501    0 -0.17728935807E+02 -0.40705929800E+02 -0.19509728567E+03  0.20014077236E+03  0.47000000000E+01 0. -1.
        -11    1    6    6    0    0  0.92193120432E+00 -0.41794916410E+02 -0.45603881111E+02  0.61865814206E+02  0.00000000000E+00 0.  1.
         12    1    6    6    0    0  0.11799016411E+03 -0.46310938759E+02 -0.14099806598E+03  0.18959650968E+03  0.00000000000E+00 0. -1.
         -5    1    3    3    0  503 -0.46339803109E+02  0.58696741528E+02  0.72493804058E+02  0.10425989855E+03  0.47000000000E+01 0.  1.
         11    1    4    4    0    0 -0.53941618481E+02  0.33883139039E+02  0.65293886829E+01  0.64034351968E+02  0.00000000000E+00 0. -1.
        -12    1    4    4    0    0 -0.90173791441E+00  0.36231904402E+02 -0.58475615426E+02  0.68796523367E+02  0.00000000000E+00 0.  1.
</event>
<event>
12    1  0.1615162E-001  0.2317913E+03  0.7818608E-02  0.1125700E+00
         21   -1    0    0  501  502  0.00000000000E+00  0.00000000000E+00  0.92680982476E+03  0.92680982476E+03  0.00000000000E+00 0. -1.
         21   -1    0    0  502  503 -0.00000000000E+00 -0.00000000000E+00 -0.43671868536E+03  0.43671868536E+03  0.00000000000E+00 0. -1.
         -6    2    1    2    0  503  0.12640731302E+03  0.86485371776E+02 -0.39010991499E+03  0.45377634361E+03  0.17397901002E+03 0.  0.
        -24    2    3    3    0    0  0.15905658734E+02 -0.88946978582E+01 -0.18403563152E+03  0.20119630958E+03  0.79238473534E+02 0.  0.
          6    2    1    2  501    0 -0.12640731302E+03 -0.86485371776E+02  0.88020105439E+03  0.90975216651E+03  0.17157091830E+03 0.  0.
         24    2    5    5    0    0  0.14143846404E+01 -0.32079210182E+02  0.24464962333E+03  0.25917847481E+03  0.79303010027E+02 0.  0.
          5    1    5    5  501    0 -0.12782169766E+03 -0.54406161594E+02  0.63555143106E+03  0.65057369170E+03  0.47000000000E+01 0. -1.
        -11    1    6    6    0    0  0.98426111360E+01 -0.27089956151E+02  0.24734614087E+03  0.24901979062E+03  0.00000000000E+00 0.  1.
         12    1    6    6    0    0 -0.84282264957E+01 -0.49892540314E+01 -0.26965175372E+01  0.10158684190E+02  0.00000000000E+00 0. -1.
         -5    1    3    3    0  503  0.11050165429E+03  0.95380069634E+02 -0.20607428346E+03  0.25258003403E+03  0.47000000000E+01 0.  1.
         13    1    4    4    0    0  0.36777658890E+02 -0.65958976932E+00 -0.17169037538E+03  0.17558649222E+03  0.00000000000E+00 0. -1.
        -14    1    4    4    0    0 -0.20872000157E+02 -0.82351080889E+01 -0.12345256140E+02  0.25609817355E+02  0.00000000000E+00 0.  1.
</event>
<event>
12    1  0.1615162E-001  0.1797405E+03  0.7818608E-02  0.1168206E+00
         21   -1    0    0  501  502  0.00000000000E+00  0.00000000000E+00  0.37100560078E+03  0.37100560078E+03  0.00000000000E+00 0. -1.
         21   -1    0    0  502  503 -0.00000000000E+00 -0.00000000000E+00 -0.17747444188E+03  0.17747444188E+03  0.00000000000E+00 0. -1.
         -6    2    1    2    0  503  0.35755082427E+01  0.49115460840E+02 -0.99364206511E+02  0.20483146359E+03  0.17221373403E+03 0.  0.
        -24    2    3    3    0    0  0.37486313337E+02  0.87268586692E+02 -0.87972414658E+02  0.15231987786E+03  0.80256897151E+02 0.  0.
          6    2    1    2  501    0 -0.35755082427E+01 -0.49115460840E+02  0.29289536541E+03  0.34364857906E+03  0.17286277234E+03 0.  0.
         24    2    5    5    0    0  0.10029909528E+02  0.20749780187E+02  0.24497636475E+03  0.25771500052E+03  0.76631910749E+02 0.  0.
          5    1    5    5  501    0 -0.13605417770E+02 -0.69865241027E+02  0.47919000659E+02  0.85933578540E+02  0.47000000000E+01 0. -1.
        -13    1    6    6    0    0 -0.22334623506E+02  0.18533714243E+02  0.20091040828E+03  0.20299587712E+03  0.00000000000E+00 0.  1.
         14    1    6    6    0    0  0.32364533033E+02  0.22160659441E+01  0.44065956469E+02  0.54719123406E+02  0.00000000000E+00 0. -1.
         -5    1    3    3    0  503 -0.33910805095E+02 -0.38153125852E+02 -0.11391791853E+02  0.52511585732E+02  0.47000000000E+01 0.  1.
         13    1    4    4    0    0  0.27062015588E+02  0.53923960334E+01 -0.58495048200E+02  0.64676899172E+02  0.00000000000E+00 0. -1.
        -14    1    4    4    0    0  0.10424297750E+02  0.81876190659E+02 -0.29477366458E+02  0.87642978690E+02  0.00000000000E+00 0.  1.
</event>
<event>
12    1  0.1615162E-001  0.2277822E+03  0.7818608E-02  0.1128223E+00
         21   -1    0    0  501  502  0.00000000000E+00  0.00000000000E+00  0.34790314227E+03  0.34790314227E+03  0.00000000000E+00 0.  1.
         21   -1    0    0  502  503 -0.00000000000E+00 -0.00000000000E+00 -0.10189741126E+04  0.10189741126E+04  0.00000000000E+00 0. -1.
         -6    2    1    2    0  503  0.37092195726E+02 -0.14434876678E+03 -0.96700709972E+03  0.99347243529E+03  0.17225664372E+03 0.  0.
        -24    2    3    3    0    0  0.81287208204E+02 -0.12669725495E+03 -0.85298669538E+03  0.86982973391E+03  0.79734928758E+02 0.  0.
          6    2    1    2  501    0 -0.37092195726E+02  0.14434876678E+03  0.29593612943E+03  0.37340481955E+03  0.17216436654E+03 0.  0.
         24    2    5    5    0    0  0.57679583580E+01  0.10650009788E+03  0.94535590351E+02  0.16399187418E+03  0.81122233467E+02 0.  0.
          5    1    5    5  501    0 -0.42860154084E+02  0.37848668893E+02  0.20140053908E+03  0.20941294536E+03  0.47000000000E+01 0. -1.
        -11    1    6    6    0    0  0.25149148706E+02  0.80140463381E+02  0.10024197726E+03  0.13078007324E+03  0.00000000000E+00 0.  1.
         12    1    6    6    0    0 -0.19381190348E+02  0.26359634502E+02 -0.57063869093E+01  0.33211800944E+02  0.00000000000E+00 0. -1.
         -5    1    3    3    0  503 -0.44195012478E+02 -0.17651511827E+02 -0.11402040434E+03  0.12364270138E+03  0.47000000000E+01 0.  1.
         11    1    4    4    0    0  0.15450105634E+02  0.49496321840E+01 -0.19044210384E+03  0.19113189042E+03  0.00000000000E+00 0. -1.
        -12    1    4    4    0    0  0.65837102570E+02 -0.13164688713E+03 -0.66254459154E+03  0.67869784348E+03  0.00000000000E+00 0.  1.
</event>
<event>
12    1  0.1615162E-001  0.2101942E+03  0.7818608E-02  0.1142793E+00
         21   -1    0    0  503  502  0.00000000000E+00  0.00000000000E+00  0.63802605091E+03  0.63802605091E+03  0.00000000000E+00 0.  1.
         21   -1    0    0  501  503 -0.00000000000E+00 -0.00000000000E+00 -0.68494346811E+02  0.68494346811E+02  0.00000000000E+00 0.  1.
          6    2    1    2  501    0 -0.21272277845E+02  0.10581717514E+03  0.34146329109E+03  0.40097227090E+03  0.18036573539E+03 0.  0.
         24    2    3    3    0    0 -0.79497399034E+02  0.95471099885E+02  0.27439072587E+03  0.31142884558E+03  0.79139674325E+02 0.  0.
         -6    2    1    2    0  502  0.21272277845E+02 -0.10581717514E+03  0.22806841301E+03  0.30554812683E+03  0.17232142188E+03 0.  0.
        -24    2    5    5    0    0 -0.24366958799E+02 -0.11585308957E+02  0.14998004833E+03  0.17484821396E+03  0.85731645056E+02 0.  0.
          5    1    3    3  501    0  0.58225121189E+02  0.10346075255E+02  0.67072565228E+02  0.89543425314E+02  0.47000000000E+01 0. -1.
        -11    1    4    4    0    0 -0.32270278066E+02  0.59214890532E+02  0.22235104812E+03  0.23235266882E+03  0.00000000000E+00 0.  1.
         12    1    4    4    0    0 -0.47227120967E+02  0.36256209353E+02  0.52039677749E+02  0.79076176764E+02  0.00000000000E+00 0. -1.
         -5    1    5    5    0  502  0.45639236644E+02 -0.94231866183E+02  0.78088364680E+02  0.13069991287E+03  0.47000000000E+01 0.  1.
         11    1    6    6    0    0 -0.26469499133E+02  0.10535217628E+02  0.59366178010E+01  0.29101007297E+02  0.00000000000E+00 0. -1.
        -12    1    6    6    0    0  0.21025403337E+01 -0.22120526585E+02  0.14404343053E+03  0.14574720666E+03  0.00000000000E+00 0.  1.
</event>
<event>
12    1  0.1615162E-001  0.2291832E+03  0.7818608E-02  0.1127324E+00
         21   -1    0    0  503  502  0.00000000000E+00  0.00000000000E+00  0.24847691734E+03  0.24847691734E+03  0.00000000000E+00 0.  1.
         21   -1    0    0  501  503 -0.00000000000E+00 -0.00000000000E+00 -0.23198907704E+03  0.23198907704E+03  0.00000000000E+00 0. -1.
          6    2    1    2  501    0 -0.13656028381E+03 -0.78534882383E+02 -0.64321671334E+02  0.23745338654E+03  0.16562123811E+03 0.  0.
         24    2    3    3    0    0 -0.14240020464E+03 -0.16082503770E+02 -0.34897884526E+02  0.16801093915E+03  0.80457119757E+02 0.  0.
         -6    2    1    2    0  502  0.13656028381E+03  0.78534882383E+02  0.80809511636E+02  0.24301260783E+03  0.16645873821E+03 0.  0.
        -24    2    5    5    0    0  0.44326585076E+02 -0.18626974097E+02  0.24629537599E+02  0.97665571328E+02  0.81364239025E+02 0.  0.
          5    1    3    3  501    0  0.58399208352E+01 -0.62452378613E+02 -0.29423786808E+02  0.69442447393E+02  0.47000000000E+01 0. -1.
        -13    1    4    4    0    0 -0.31025229735E+02 -0.38692658486E+01  0.25842467872E+02  0.40563151307E+02  0.00000000000E+00 0.  1.
         14    1    4    4    0    0 -0.11137497491E+03 -0.12213237921E+02 -0.60740352398E+02  0.12744778784E+03  0.00000000000E+00 0. -1.
         -5    1    5    5    0  502  0.92233698734E+02  0.97161856480E+02  0.56179974037E+02  0.14534703650E+03  0.47000000000E+01 0.  1.
         13    1    6    6    0    0  0.70108265884E+01 -0.27909103848E+02 -0.22723271548E+02  0.36666290198E+02  0.00000000000E+00 0. -1.
        -14    1    6    6    0    0  0.37315758487E+02  0.92821297508E+01  0.47352809148E+02  0.60999281130E+02  0.00000000000E+00 0.  1.
</event>
<event>
12    1  0.1615162E-001  0.2034736E+03  0.7818608E-02  0.1146889E+00
         21   -1    0    0  503  502  0.00000000000E+00  0.00000000000E+00  0.15669295481E+03  0.15669295481E+03  0.00000000000E+00 0.  1.
         21   -1    0    0  501  503 -0.00000000000E+00 -0.00000000000E+00 -0.36769150796E+03  0.36769150796E+03  0.00000000000E+00 0.  1.
          6    2    1    2  501    0 -0.98130834810E+02 -0.44253567508E+02  0.33746669317E+02  0.20625308306E+03  0.17266573952E+03 0.  0.
         24    2    3    3    0    0 -0.41420498674E+02 -0.35106486939E+02 -0.46565062779E+02  0.10740068997E+03  0.80115416732E+02 0.  0.
         -6    2    1    2    0  502  0.98130834810E+02  0.44253567508E+02 -0.24474522247E+03  0.31813137971E+03  0.17239289967E+03 0.  0.
        -24    2    5    5    0    0  0.30018442572E+02 -0.43841256594E+02 -0.10871942616E+03  0.14227603213E+03  0.74829092073E+02 0.  0.
          5    1    3    3  501    0 -0.56710336135E+02 -0.91470805688E+01  0.80311732096E+02  0.98852393091E+02  0.47000000000E+01 0. -1.
        -13    1    4    4    0    0 -0.52260936925E+02 -0.25559672052E+01 -0.50683607774E+02  0.72846184483E+02  0.00000000000E+00 0.  1.
         14    1    4    4    0    0  0.10840438251E+02 -0.32550519734E+02  0.41185449951E+01  0.34554505484E+02  0.00000000000E+00 0. -1.
         -5    1    5    5    0  502  0.68112392238E+02  0.88094824102E+02 -0.13602579631E+03  0.17585534758E+03  0.47000000000E+01 0.  1.
         13    1    6    6    0    0 -0.24981675421E+01  0.19100369160E+02 -0.13199252936E+02  0.23351343027E+02  0.00000000000E+00 0. -1.
        -14    1    6    6    0    0  0.32516610114E+02 -0.62941625754E+02 -0.95520173221E+02  0.11892468910E+03  0.00000000000E+00 0.  1.
</event>
<event>
12    1  0.1615162E-001  0.1861286E+03  0.7818608E-02  0.1162398E+00
         21   -1    0    0  501  502  0.00000000000E+00  0.00000000000E+00  0.29735029438E+03  0.29735029438E+03  0.00000000000E+00 0. -1.
         21   -1    0    0  502  503 -0.00000000000E+00 -0.00000000000E+00 -0.12054856985E+03  0.12054856985E+03  0.00000000000E+00 0. -1.
         -6    2    1    2    0  503 -0.48671415000E+02  0.49406978936E+02  0.44998711480E+02  0.18982890756E+03  0.17088058376E+03 0.  0.
        -24    2    3    3    0    0 -0.47847388240E+02  0.80138128832E+02  0.76432816387E+02  0.14561040979E+03  0.81540933056E+02 0.  0.
          6    2    1    2  501    0  0.48671415000E+02 -0.49406978936E+02  0.13180301305E+03  0.22806995667E+03  0.17272496832E+03 0.  0.
         24    2    5    5    0    0  0.34877046546E+02 -0.43047038478E+02  0.40939492060E+01  0.99374857960E+02  0.82396274655E+02 0.  0.
          5    1    5    5  501    0  0.13794368454E+02 -0.63599404578E+01  0.12770906385E+03  0.12869509871E+03  0.47000000000E+01 0. -1.
        -11    1    6    6    0    0 -0.24911000834E+02 -0.28145389093E+02  0.35719375841E+01  0.37755524468E+02  0.00000000000E+00 0.  1.
         12    1    6    6    0    0  0.59788047380E+02 -0.14901649385E+02  0.52201162189E+00  0.61619333493E+02  0.00000000000E+00 0. -1.
         -5    1    3    3    0  503 -0.82402675972E+00 -0.30731149897E+02 -0.31434104907E+02  0.44218497774E+02  0.47000000000E+01 0.  1.
         11    1    4    4    0    0 -0.58040314346E+02  0.90994609179E+02  0.60204793022E+02  0.12358525030E+03  0.00000000000E+00 0. -1.
        -12    1    4    4    0    0  0.10192926106E+02 -0.10856480347E+02  0.16228023365E+02  0.22025159488E+02  0.00000000000E+00 0.  1.
</event>
<event>
12    1  0.1615162E-001  0.1832539E+03  0.7818608E-02  0.1164728E+00
         21   -1    0    0  501  502  0.00000000000E+00  0.00000000000E+00  0.14938211530E+03  0.14938211530E+03  0.00000000000E+00 0.  1.
         21   -1    0    0  502  503 -0.00000000000E+00 -0.00000000000E+00 -0.23669393374E+03  0.23669393374E+03  0.00000000000E+00 0.  1.
         -6    2    1    2    0  503 -0.79851024887E+01 -0.62964147568E+02 -0.87251449008E+02  0.20282218031E+03  0.17174334261E+03 0.  0.
        -24    2    3    3    0    0 -0.47877044863E+02 -0.52083377329E+02 -0.11216816579E+03  0.15431763410E+03  0.78913529626E+02 0.  0.
          6    2    1    2  501    0  0.79851024887E+01  0.62964147568E+02 -0.60369440412E-01  0.18325386873E+03  0.17191198626E+03 0.  0.
         24    2    5    5    0    0  0.32291794011E+02 -0.33667573731E+02  0.29535390875E+02  0.79203381746E+02  0.56785305181E+02 0.  0.
          5    1    5    5  501    0 -0.24306691522E+02  0.96631721299E+02 -0.29595760316E+02  0.10405048699E+03  0.47000000000E+01 0. -1.
        -11    1    6    6    0    0 -0.35745428730E+00 -0.38463433652E+01  0.34492243681E+02  0.34707881022E+02  0.00000000000E+00 0.  1.
         12    1    6    6    0    0  0.32649248298E+02 -0.29821230365E+02 -0.49568528059E+01  0.44495500724E+02  0.00000000000E+00 0. -1.
         -5    1    3    3    0  503  0.39891942375E+02 -0.10880770240E+02  0.24916716784E+02  0.48504546207E+02  0.47000000000E+01 0.  1.
         13    1    4    4    0    0 -0.40880158717E+00  0.59660462668E+01  0.96013730882E+01  0.11311374451E+02  0.00000000000E+00 0. -1.
        -14    1    4    4    0    0 -0.47468243276E+02 -0.58049423595E+02 -0.12176953888E+03  0.14300625965E+03  0.00000000000E+00 0.  1.
</event>
<event>
12    1  0.1615162E-001  0.1812951E+03  0.7818608E-02  0.1166653E+00
         21   -1    0    0  501  502  0.00000000000E+00  0.00000000000E+00  0.77656515267E+03  0.77656515267E+03  0.00000000000E+00 0. -1.
         21   -1    0    0  502  503 -0.00000000000E+00 -0.00000000000E+00 -0.13726032051E+03  0.13726032051E+03  0.00000000000E+00 0. -1.
         -6    2    1    2    0  503 -0.31469875191E+02  0.46222096417E+02 -0.60419860097E+02  0.19109804502E+03  0.17245598880E+03 0.  0.
        -24    2    3    3    0    0  0.45116368784E+02  0.33526360223E+02 -0.56825639478E+02  0.11324149163E+03  0.80218318121E+02 0.  0.
          6    2    1    2  501    0  0.31469875191E+02 -0.46222096417E+02  0.69972469226E+03  0.72272742817E+03  0.17202748391E+03 0.  0.
         24    2    5    5    0    0  0.50373100559E+02 -0.51814259229E+00  0.18130671305E+03  0.20193430754E+03  0.73264060980E+02 0.  0.
          5    1    5    5  501    0 -0.18903225368E+02 -0.45703953825E+02  0.51841797921E+03  0.52079312063E+03  0.47000000000E+01 0. -1.
        -13    1    6    6    0    0 -0.16843334276E+02  0.96151854365E+01  0.26301459566E+02  0.32678991353E+02  0.00000000000E+00 0.  1.
         14    1    6    6    0    0  0.67216434834E+02 -0.10133328029E+02  0.15500525349E+03  0.16925531619E+03  0.00000000000E+00 0. -1.
         -5    1    3    3    0  503 -0.76586243975E+02  0.12695736194E+02 -0.35942206188E+01  0.77856553389E+02  0.47000000000E+01 0.  1.
         13    1    4    4    0    0  0.48479768054E+02  0.72208936677E+01 -0.68529633654E+02  0.84254020110E+02  0.00000000000E+00 0. -1.
        -14    1    4    4    0    0 -0.33633992702E+01  0.26305466555E+02  0.11703994176E+02  0.28987471518E+02  0.00000000000E+00 0.  1.
</event>
<event>
12    1  0.1615162E-001  0.1731667E+03  0.7818608E-02  0.1174746E+00
         21   -1    0    0  501  502  0.00000000000E+00  0.00000000000E+00  0.54068075202E+03  0.54068075202E+03  0.00000000000E+00 0. -1.
         21   -1    0    0  502  503 -0.00000000000E+00 -0.00000000000E+00 -0.55855397919E+02  0.55855397919E+02  0.00000000000E+00 0. -1.
         -6    2    1    2    0  503  0.10994973777E+02 -0.13510526411E+02  0.21115463618E+03  0.27268067843E+03  0.17165386170E+03 0.  0.
        -24    2    3    3    0    0 -0.65968218712E+01 -0.31938957234E+02  0.22683834100E+03  0.24239624457E+03  0.78972725578E+02 0.  0.
          6    2    1    2  501    0 -0.10994973777E+02  0.13510526411E+02  0.27367071792E+03  0.32385547151E+03  0.17228836527E+03 0.  0.
         24    2    5    5    0    0 -0.10392335586E+00  0.23109443437E+02  0.29056898618E+03  0.30108716772E+03  0.75426054234E+02 0.  0.
          5    1    5    5  501    0 -0.10891050421E+02 -0.95989170261E+01 -0.16898268260E+02  0.22768303791E+02  0.47000000000E+01 0. -1.
        -11    1    6    6    0    0 -0.27277526298E+02  0.30172281877E+02  0.23837964031E+03  0.24182490142E+03  0.00000000000E+00 0.  1.
         12    1    6    6    0    0  0.27173602943E+02 -0.70628384400E+01  0.52189345876E+02  0.59262266297E+02  0.00000000000E+00 0. -1.
         -5    1    3    3    0  503  0.17591795648E+02  0.18428430823E+02 -0.15683704828E+02  0.30284433854E+02  0.47000000000E+01 0.  1.
         13    1    4    4    0    0  0.19691227225E+01  0.26055530991E+02  0.84832319031E+02  0.88765367637E+02  0.00000000000E+00 0. -1.
        -14    1    4    4    0    0 -0.85659445937E+01 -0.57994488226E+02  0.14200602197E+03  0.15363087694E+03  0.00000000000E+00 0.  1.
</event>
<event>
12    1  0.1615162E-001  0.2027259E+03  0.7818608E-02  0.1148485E+00
         21   -1    0    0  503  502  0.00000000000E+00  0.00000000000E+00  0.24972911287E+03  0.24972911287E+03  0.00000000000E+00 0. -1.
         21   -1    0    0  501  503 -0.00000000000E+00 -0.00000000000E+00 -0.52108831816E+03  0.52108831816E+03  0.00000000000E+00 0.  1.
          6    2    1    2  501    0 -0.98244342508E+02  0.12894549469E+01 -0.45673179650E+03  0.49970161969E+03  0.17732501590E+03 0.  0.
         24    2    3    3    0    0  0.71307775082E+01 -0.38990301489E+02 -0.21857662497E+03  0.23613692095E+03  0.80086283814E+02 0.  0.
         -6    2    1    2    0  502  0.98244342508E+02 -0.12894549469E+01  0.18537259120E+03  0.27111581133E+03  0.17171829272E+03 0.  0.
        -24    2    5    5    0    0  0.50520395831E+02 -0.44957743643E+02  0.39831505367E+02  0.11177720273E+03  0.79586965784E+02 0.  0.
          5    1    3    3  501    0 -0.10537512002E+03  0.40279756435E+02 -0.23815517153E+03  0.26356469874E+03  0.47000000000E+01 0. -1.
        -13    1    4    4    0    0  0.33759760238E+02  0.69157399066E+01 -0.11022615482E+03  0.11548746286E+03  0.00000000000E+00 0.  1.
         14    1    4    4    0    0 -0.26628982729E+02 -0.45906041395E+02 -0.10835047015E+03  0.12064945809E+03  0.00000000000E+00 0. -1.
         -5    1    5    5    0  502  0.47723946677E+02  0.43668288696E+02  0.14554108584E+03  0.15933860860E+03  0.47000000000E+01 0.  1.
         11    1    6    6    0    0  0.37163693071E+02  0.28104190713E+01  0.48767385272E+02  0.61378305648E+02  0.00000000000E+00 0. -1.
        -12    1    6    6    0    0  0.13356702760E+02 -0.47768162715E+02 -0.89358799041E+01  0.50398897085E+02  0.00000000000E+00 0.  1.
</event>
<event>
12    1  0.1615162E-001  0.1824712E+03  0.7818608E-02  0.1166745E+00
         21   -1    0    0  501  502  0.00000000000E+00  0.00000000000E+00  0.13971820577E+03  0.13971820577E+03  0.00000000000E+00 0.  1.
         21   -1    0    0  502  503 -0.00000000000E+00 -0.00000000000E+00 -0.42506224386E+03  0.42506224386E+03  0.00000000000E+00 0.  1.
         -6    2    1    2    0  503  0.39299764066E+02  0.13393415262E+02 -0.33451069444E+03  0.38104218302E+03  0.17768479259E+03 0.  0.
        -24    2    3    3    0    0  0.43022186237E+02  0.44722444497E+02 -0.85519055653E+02  0.13001570895E+03  0.75759950782E+02 0.  0.
          6    2    1    2  501    0 -0.39299764066E+02 -0.13393415262E+02  0.49166656341E+02  0.18373826661E+03  0.17210036459E+03 0.  0.
         24    2    5    5    0    0 -0.25217422833E+02  0.57434704484E+02  0.45932953159E+02  0.11129876276E+03  0.79642417802E+02 0.  0.
          5    1    5    5  501    0 -0.14082341233E+02 -0.70828119746E+02  0.32337031818E+01  0.72439503847E+02  0.47000000000E+01 0. -1.
        -13    1    6    6    0    0 -0.20109625593E+02  0.27290796945E+02 -0.19476785921E+02  0.39096417089E+02  0.00000000000E+00 0.  1.
         14    1    6    6    0    0 -0.51077972402E+01  0.30143907539E+02  0.65409739081E+02  0.72202345675E+02  0.00000000000E+00 0. -1.
         -5    1    3    3    0  503 -0.37224221711E+01 -0.31329029235E+02 -0.24899163878E+03  0.25102647407E+03  0.47000000000E+01 0.  1.
         13    1    4    4    0    0  0.38719375651E+02  0.14616324617E+02 -0.23412193760E+01  0.41452482486E+02  0.00000000000E+00 0. -1.
        -14    1    4    4    0    0  0.43028105864E+01  0.30106119881E+02 -0.83177836278E+02  0.88563226460E+02  0.00000000000E+00 0.  1.
</event>
<event>
12    1  0.1615162E-001  0.2099704E+03  0.7818608E-02  0.1141725E+00
         21   -1    0    0  503  502  0.00000000000E+00  0.00000000000E+00  0.13493380923E+03  0.13493380923E+03  0.00000000000E+00 0.  1.
         21   -1    0    0  501  503 -0.00000000000E+00 -0.00000000000E+00 -0.35980156011E+03  0.35980156011E+03  0.00000000000E+00 0. -1.
          6    2    1    2  501    0  0.96802961987E+02  0.69333239587E+02 -0.36414112347E+02  0.21310451774E+03  0.17294402661E+03 0.  0.
         24    2    3    3    0    0  0.69212218686E+02 -0.55898673589E+01 -0.19546554729E+02  0.13136514185E+03  0.10978686105E+03 0.  0.
         -6    2    1    2    0  502 -0.96802961987E+02 -0.69333239587E+02 -0.18845363853E+03  0.28163085161E+03  0.17211406433E+03 0.  0.
        -24    2    5    5    0    0 -0.10912845499E+03 -0.70356488653E+02 -0.21011046940E+03  0.25625225551E+03  0.68262390213E+02 0.  0.
          5    1    3    3  501    0  0.27590743301E+02  0.74923106946E+02 -0.16867557617E+02  0.81739375886E+02  0.47000000000E+01 0. -1.
        -13    1    4    4    0    0  0.38131470658E+02  0.50956721493E+02  0.98514483676E+00  0.63651920868E+02  0.00000000000E+00 0.  1.
         14    1    4    4    0    0  0.31080748028E+02 -0.56546588852E+02 -0.20531699566E+02  0.67713220983E+02  0.00000000000E+00 0. -1.
         -5    1    5    5    0  502  0.12325493000E+02  0.10232490658E+01  0.21656830875E+02  0.25378596097E+02  0.47000000000E+01 0.  1.
         13    1    6    6    0    0 -0.81041323443E+02 -0.64336860527E+02 -0.10551763607E+03  0.14778666804E+03  0.00000000000E+00 0. -1.
        -14    1    6    6    0    0 -0.28087131544E+02 -0.60196281259E+01 -0.10459283333E+03  0.10846558747E+03  0.00000000000E+00 0.  1.
</event>
<event>
12    1  0.1615162E-001  0.2332484E+03  0.7818608E-02  0.1125189E+00
         21   -1    0    0  501  502  0.00000000000E+00  0.00000000000E+00  0.97822953513E+02  0.97822953513E+02  0.00000000000E+00 0. -1.
         21   -1    0    0  502  503 -0.00000000000E+00 -0.00000000000E+00 -0.57388546541E+03  0.57388546541E+03  0.00000000000E+00 0. -1.
         -6    2    1    2    0  503  0.89481235735E+02  0.12124902814E+03 -0.16509112851E+03  0.28576198320E+03  0.17803542332E+03 0.  0.
        -24    2    3    3    0    0  0.71226730285E+01  0.80993319699E+02 -0.19297588516E+02  0.11347936302E+03  0.76775768323E+02 0.  0.
          6    2    1    2  501    0 -0.89481235735E+02 -0.12124902814E+03 -0.31097138339E+03  0.38594643572E+03  0.17188144631E+03 0.  0.
         24    2    5    5    0    0 -0.22372541675E+02 -0.76334366861E+02 -0.69570076940E+02  0.13135345787E+03  0.78014544184E+02 0.  0.
          5    1    5    5  501    0 -0.67108694060E+02 -0.44914661276E+02 -0.24140130645E+03  0.25459297785E+03  0.47000000000E+01 0. -1.
        -11    1    6    6    0    0 -0.41678938928E+02 -0.54281033402E+02 -0.15988923289E+02  0.70279514834E+02  0.00000000000E+00 0.  1.
         12    1    6    6    0    0  0.19306397253E+02 -0.22053333459E+02 -0.53581153651E+02  0.61073943038E+02  0.00000000000E+00 0. -1.
         -5    1    3    3    0  503  0.82358562707E+02  0.40255708438E+02 -0.14579354000E+03  0.17228262018E+03  0.47000000000E+01 0.  1.
         11    1    4    4    0    0 -0.32963963364E+02  0.19487423237E+02 -0.41568216062E+01  0.38518329545E+02  0.00000000000E+00 0. -1.
        -12    1    4    4    0    0  0.40086636392E+02  0.61505896462E+02 -0.15140766910E+02  0.74961033474E+02  0.00000000000E+00 0.  1.
</event>
<event>
12    1  0.1615162E-001  0.1915238E+03  0.7818608E-02  0.1157329E+00
         21   -1    0    0  501  502  0.00000000000E+00  0.00000000000E+00  0.33644035350E+02  0.33644035350E+02  0.00000000000E+00 0.  1.
         21   -1    0    0  502  503 -0.00000000000E+00 -0.00000000000E+00 -0.17195089457E+04  0.17195089457E+04  0.00000000000E+00 0.  1.
         -6    2    1    2    0  503 -0.25784795259E+02  0.74572357935E+02 -0.31162199479E+03  0.36577263322E+03  0.17451492584E+03 0.  0.
        -24    2    3    3    0    0 -0.33169803963E+02  0.11051329460E+03 -0.29196852600E+03  0.32388423247E+03  0.79636371649E+02 0.  0.
          6    2    1    2  501    0  0.25784795259E+02 -0.74572357935E+02 -0.13742429156E+04  0.13873803479E+04  0.17336304779E+03 0.  0.
         24    2    5    5    0    0 -0.12571545069E+02 -0.48709654710E+02 -0.12695270006E+04  0.12728046039E+04  0.76171386623E+02 0.  0.
          5    1    5    5  501    0  0.38356340328E+02 -0.25862703225E+02 -0.10471591500E+03  0.11457574402E+03  0.47000000000E+01 0. -1.
        -13    1    6    6    0    0  0.21143071571E+02  0.38183015855E+01 -0.59724673081E+03  0.59763305327E+03  0.00000000000E+00 0.  1.
         14    1    6    6    0    0 -0.33714616640E+02 -0.52527956296E+02 -0.67228026979E+03  0.67517155059E+03  0.00000000000E+00 0. -1.
         -5    1    3    3    0  503  0.73850087041E+01 -0.35940936667E+02 -0.19653468790E+02  0.41888400751E+02  0.47000000000E+01 0.  1.
         11    1    4    4    0    0  0.14202266459E+02  0.25416239313E+02 -0.14278526676E+03  0.14572344354E+03  0.00000000000E+00 0. -1.
        -12    1    4    4    0    0 -0.47372070422E+02  0.85097055288E+02 -0.14918325924E+03  0.17816078893E+03  0.00000000000E+00 0.  1.
</event>
<event>
12    1  0.1615162E-001  0.1827687E+03  0.7818608E-02  0.1166093E+00
         21   -1    0    0  503  502  0.00000000000E+00  0.00000000000E+00  0.17223418884E+03  0.17223418884E+03  0.00000000000E+00 0. -1.
         21   -1    0    0  501  503 -0.00000000000E+00 -0.00000000000E+00 -0.31651605128E+03  0.31651605128E+03  0.00000000000E+00 0. -1.
          6    2    1    2  501    0 -0.38157077827E+02  0.44996773368E+02 -0.22628881412E+03  0.28842665584E+03  0.16882723774E+03 0.  0.
         24    2    3    3    0    0 -0.11722449490E+01 -0.21568985915E+02 -0.66528011984E+02  0.11138292658E+03  0.86680935872E+02 0.  0.
         -6    2    1    2    0  502  0.38157077827E+02 -0.44996773368E+02  0.82006951673E+02  0.20032358428E+03  0.17298475682E+03 0.  0.
        -24    2    5    5    0    0 -0.31132021059E+01 -0.58850028853E+02 -0.85776716314E+01  0.99711394794E+02  0.79973544862E+02 0.  0.
          5    1    3    3  501    0 -0.36984832878E+02  0.66565759283E+02 -0.15976080214E+03  0.17704372926E+03  0.47000000000E+01 0. -1.
        -13    1    4    4    0    0 -0.78462290490E+00  0.10955287310E+02  0.17846775510E+02  0.20955699684E+02  0.00000000000E+00 0.  1.
         14    1    4    4    0    0 -0.38762204415E+00 -0.32524273225E+02 -0.84374787494E+02  0.90427226897E+02  0.00000000000E+00 0. -1.
         -5    1    5    5    0  502  0.41270279933E+02  0.13853255485E+02  0.90584623304E+02  0.10061218948E+03  0.47000000000E+01 0.  1.
         13    1    6    6    0    0  0.20642111664E+02 -0.45592385838E+02 -0.35560647930E+02  0.61394805168E+02  0.00000000000E+00 0. -1.
        -14    1    6    6    0    0 -0.23755313770E+02 -0.13257643015E+02  0.26982976299E+02  0.38316589626E+02  0.00000000000E+00 0.  1.
</event>
<event>
12    1  0.1615162E-001  0.2037731E+03  0.7818608E-02  0.1147538E+00
         21   -1    0    0  503  502  0.00000000000E+00  0.00000000000E+00  0.77176780776E+02  0.77176780776E+02  0.00000000000E+00 0.  1.
         21   -1    0    0  501  503 -0.00000000000E+00 -0.00000000000E+00 -0.55407190125E+03  0.55407190125E+03  0.00000000000E+00 0. -1.
          6    2    1    2  501    0 -0.37727950164E+02 -0.92918989529E+02 -0.31185719535E+03  0.37252971573E+03  0.17738698366E+03 0.  0.
         24    2    3    3    0    0 -0.31087284174E+02 -0.84246084238E+01 -0.53614060914E+02  0.10069335803E+03  0.78913190025E+02 0.  0.
         -6    2    1    2    0  502  0.37727950164E+02  0.92918989529E+02 -0.16503792512E+03  0.25871896629E+03  0.17216460133E+03 0.  0.
        -24    2    5    5    0    0  0.13776535900E+02 -0.20243029992E+02 -0.87363279150E+02  0.11931038143E+03  0.77479360914E+02 0.  0.
          5    1    3    3  501    0 -0.66406659894E+01 -0.84494381105E+02 -0.25824313443E+03  0.27183635770E+03  0.47000000000E+01 0. -1.
        -13    1    4    4    0    0 -0.36113976035E+02 -0.28779182299E+02 -0.34300857229E+01  0.46305788914E+02  0.00000000000E+00 0.  1.
         14    1    4    4    0    0  0.50266918608E+01  0.20354573875E+02 -0.50183975191E+02  0.54387569119E+02  0.00000000000E+00 0. -1.
         -5    1    5    5    0  502  0.23951414263E+02  0.11316201952E+03 -0.77674645971E+02  0.13940858487E+03  0.47000000000E+01 0.  1.
         13    1    6    6    0    0  0.26300681478E+01  0.24525316091E+02 -0.61858037947E+02  0.66594483604E+02  0.00000000000E+00 0. -1.
        -14    1    6    6    0    0  0.11146467753E+02 -0.44768346083E+02 -0.25505241203E+02  0.52715897823E+02  0.00000000000E+00 0.  1.
</event>
<event>
12    1  0.1615162E-001  0.2079111E+03  0.7818608E-02  0.1143556E+00
         21   -1    0    0  503  502  0.00000000000E+00  0.00000000000E+00  0.25171900059E+03  0.25171900059E+03  0.00000000000E+00 0.  1.
         21   -1    0    0  501  503 -0.00000000000E+00 -0.00000000000E+00 -0.47481767782E+03  0.47481767782E+03  0.00000000000E+00 0.  1.
          6    2    1    2  501    0 -0.57620782752E+02  0.97751475332E+02 -0.40226391992E+03  0.45207866401E+03  0.17228857087E+03 0.  0.
         24    2    3    3    0    0 -0.96581727455E+02  0.69952553310E+02 -0.20069835375E+03  0.24485534789E+03  0.73843905650E+02 0.  0.
         -6    2    1    2    0  502  0.57620782752E+02 -0.97751475332E+02  0.17916524268E+03  0.27445801440E+03  0.17421685322E+03 0.  0.
        -24    2    5    5    0    0  0.12496245103E+02 -0.55456310020E+02  0.18737779959E+03  0.21189092242E+03  0.80967677270E+02 0.  0.
          5    1    3    3  501    0  0.38960944702E+02  0.27798922022E+02 -0.20156556617E+03  0.20722331612E+03  0.47000000000E+01 0. -1.
        -11    1    4    4    0    0 -0.69182823095E+02  0.87395787629E+01 -0.12925884580E+03  0.14686896359E+03  0.00000000000E+00 0.  1.
         12    1    4    4    0    0 -0.27398904360E+02  0.61212974547E+02 -0.71439507953E+02  0.97986384307E+02  0.00000000000E+00 0. -1.
         -5    1    5    5    0  502  0.45124537649E+02 -0.42295165313E+02 -0.82125569131E+01  0.62567091973E+02  0.47000000000E+01 0.  1.
         11    1    6    6    0    0  0.29996254085E+02  0.36596229963E+01  0.10331480627E+03  0.10764347307E+03  0.00000000000E+00 0. -1.
        -12    1    6    6    0    0 -0.17500008982E+02 -0.59115933016E+02  0.84062993326E+02  0.10424744936E+03  0.00000000000E+00 0.  1.
</event>
<event>
12    1  0.1615162E-001  0.1836834E+03  0.7818608E-02  0.1164723E+00
         21   -1    0    0  501  502  0.00000000000E+00  0.00000000000E+00  0.27113943180E+02  0.27113943180E+02  0.00000000000E+00 0.  1.
         21   -1    0    0  502  503 -0.00000000000E+00 -0.00000000000E+00 -0.12626922687E+04  0.12626922687E+04  0.00000000000E+00 0.  1.
         -6    2    1    2    0  503  0.57748422931E+02 -0.83861784727E+01 -0.71547404157E+03  0.73821936114E+03  0.17221937364E+03 0.  0.
        -24    2    3    3    0    0 -0.88976262356E+01 -0.54946784547E+02 -0.45752817459E+03  0.46772398927E+03  0.79595117394E+02 0.  0.
          6    2    1    2  501    0 -0.57748422931E+02  0.83861784727E+01 -0.52010428395E+03  0.55158685074E+03  0.17416767607E+03 0.  0.
         24    2    5    5    0    0 -0.92223788612E+02 -0.32151338483E+02 -0.30673468383E+03  0.33163113389E+03  0.79712652386E+02 0.  0.
          5    1    5    5  501    0  0.34475365681E+02  0.40537516955E+02 -0.21336960012E+03  0.21995571685E+03  0.47000000000E+01 0. -1.
        -11    1    6    6    0    0 -0.31609873149E+02 -0.35674084811E+02 -0.55471874590E+02  0.73136538598E+02  0.00000000000E+00 0.  1.
         12    1    6    6    0    0 -0.60613915463E+02  0.35227463282E+01 -0.25126280923E+03  0.25849459529E+03  0.00000000000E+00 0. -1.
         -5    1    3    3    0  503  0.66646049166E+02  0.46560606074E+02 -0.25794586698E+03  0.27049537187E+03  0.47000000000E+01 0.  1.
         13    1    4    4    0    0  0.14367795381E+02 -0.51972233531E+02 -0.15170955153E+03  0.16100725024E+03  0.00000000000E+00 0. -1.
        -14    1    4    4    0    0 -0.23265421616E+02 -0.29745510157E+01 -0.30581862306E+03  0.30671673904E+03  0.00000000000E+00 0.  1.
</event>
<event>
12    1  0.1615162E-001  0.1841796E+03  0.7818608E-02  0.1163828E+00
         21   -1    0    0  501  502  0.00000000000E+00  0.00000000000E+00  0.15421901029E+03  0.15421901029E+03  0.00000000000E+00 0.  1.
         21   -1    0    0  502  503 -0.00000000000E+00 -0.00000000000E+00 -0.26044896282E+03  0.26044896282E+03  0.00000000000E+00 0.  1.
         -6    2    1    2    0  503 -0.50713880346E+02 -0.10229248125E+02 -0.13491574591E+03  0.22830767479E+03  0.17676425175E+03 0.  0.
        -24    2    3    3    0    0  0.33390638861E+02 -0.39360023968E+02 -0.75440084244E+02  0.12115536925E+03  0.79518997338E+02 0.  0.
          6    2    1    2  501    0  0.50713880346E+02  0.10229248125E+02  0.28685793381E+02  0.18636029832E+03  0.17672224215E+03 0.  0.
         24    2    5    5    0    0  0.65657949197E+01 -0.42111322226E+02  0.58432772364E+02  0.11155681237E+03  0.84935624905E+02 0.  0.
          5    1    5    5  501    0  0.44148085426E+02  0.52340570352E+02 -0.29746978983E+02  0.74803485949E+02  0.47000000000E+01 0. -1.
        -13    1    6    6    0    0  0.27760362825E+02 -0.40521202543E+02  0.71396846232E+02  0.86660921133E+02  0.00000000000E+00 0.  1.
         14    1    6    6    0    0 -0.21194567906E+02 -0.15901196828E+01 -0.12964073868E+02  0.24895891239E+02  0.00000000000E+00 0. -1.
         -5    1    3    3    0  503 -0.84104519207E+02  0.29130775843E+02 -0.59475661665E+02  0.10715230554E+03  0.47000000000E+01 0.  1.
         11    1    4    4    0    0  0.45713001780E+02 -0.11217445538E+02 -0.89525146396E+01  0.47913016337E+02  0.00000000000E+00 0. -1.
        -12    1    4    4    0    0 -0.12322362919E+02 -0.28142578430E+02 -0.66487569605E+02  0.73242352915E+02  0.00000000000E+00 0.  1.
</event>
<event>
12    1  0.1615162E-001  0.1897165E+03  0.7818608E-02  0.1158859E+00
         21   -1    0    0  501  502  0.00000000000E+00  0.00000000000E+00  0.10484908008E+03  0.10484908008E+03  0.00000000000E+00 0.  1.
         21   -1    0    0  502  503 -0.00000000000E+00 -0.00000000000E+00 -0.34214444906E+03  0.34214444906E+03  0.00000000000E+00 0.  1.
         -6    2    1    2    0  503 -0.62966259072E+01  0.79548061187E+02 -0.11886322190E+03  0.22334531128E+03  0.17142672199E+03 0.  0.
        -24    2    3    3    0    0  0.51278140028E+02  0.10460942016E+02 -0.29599037405E+02  0.96545988167E+02  0.75539035360E+02 0.  0.
          6    2    1    2  501    0  0.62966259072E+01 -0.79548061187E+02 -0.11843214709E+03  0.22364821787E+03  0.17211859387E+03 0.  0.
         24    2    5    5    0    0  0.49369711996E+02 -0.12973331226E+02 -0.10752057040E+03  0.14346943065E+03  0.80106982753E+02 0.  0.
          5    1    5    5  501    0 -0.43073086088E+02 -0.66574729961E+02 -0.10911576690E+02  0.80178787222E+02  0.47000000000E+01 0. -1.
        -13    1    6    6    0    0  0.41719236058E+02 -0.43540835266E+02 -0.51980180096E+02  0.79613052421E+02  0.00000000000E+00 0.  1.
         14    1    6    6    0    0  0.76504759373E+01  0.30567504040E+02 -0.55540390300E+02  0.63856378224E+02  0.00000000000E+00 0. -1.
         -5    1    3    3    0  503 -0.57574765935E+02  0.69087119171E+02 -0.89264184492E+02  0.12679932311E+03  0.47000000000E+01 0.  1.
         11    1    4    4    0    0  0.13698381156E+02 -0.32229757204E+02 -0.11593794696E+02  0.36889279895E+02  0.00000000000E+00 0. -1.
        -12    1    4    4    0    0  0.37579758872E+02  0.42690699220E+02 -0.18005242710E+02  0.59656708272E+02  0.00000000000E+00 0.  1.
</event>
<event>
12    1  0.1615162E-001  0.2519638E+03  0.7818608E-02  0.1112243E+00
         21   -1    0    0  501  502  0.00000000000E+00  0.00000000000E+00  0.21136877924E+03  0.21136877924E+03  0.00000000000E+00 0.  1.
         21   -1    0    0  502  503 -0.00000000000E+00 -0.00000000000E+00 -0.31177445107E+03  0.31177445107E+03  0.00000000000E+00 0. -1.
         -6    2    1    2    0  503 -0.20196479305E+02  0.18132271379E+03 -0.10316856852E+03  0.27226731648E+03  0.17378122390E+03 0.  0.
        -24    2    3    3    0    0 -0.25535777167E+02  0.83448452089E+02  0.15039435759E+02  0.11863430739E+03  0.78944247359E+02 0.  0.
          6    2    1    2  501    0  0.20196479305E+02 -0.18132271379E+03  0.27628966972E+01  0.25087591383E+03  0.17217800739E+03 0.  0.
         24    2    5    5    0    0 -0.27150301948E+02 -0.24886272900E+02  0.25508256956E+01  0.87363795906E+02  0.79179925794E+02 0.  0.
          5    1    5    5  501    0  0.47346781253E+02 -0.15643644089E+03  0.21207100165E+00  0.16351211792E+03  0.47000000000E+01 0. -1.
        -13    1    6    6    0    0  0.12124443340E+02 -0.31069222489E+02  0.25022317050E+02  0.41694304922E+02  0.00000000000E+00 0.  1.
         14    1    6    6    0    0 -0.39274745289E+02  0.61829495887E+01 -0.22471491354E+02  0.45669490985E+02  0.00000000000E+00 0. -1.
         -5    1    3    3    0  503  0.53392978625E+01  0.97874261703E+02 -0.11820800428E+03  0.15363300909E+03  0.47000000000E+01 0.  1.
         11    1    4    4    0    0  0.17107822860E+02  0.28775462145E+02 -0.21966212025E+02  0.40040220971E+02  0.00000000000E+00 0. -1.
        -12    1    4    4    0    0 -0.42643600027E+02  0.54672989944E+02  0.37005647783E+02  0.78594086423E+02  0.00000000000E+00 0.  1.
</event>
<event>
12    1  0.1615162E-001  0.2813251E+03  0.7818608E-02  0.1095136E+00
         21   -1    0    0  503  502  0.00000000000E+00  0.00000000000E+00  0.13583618295E+03  0.13583618295E+03  0.00000000000E+00 0. -1.
         21   -1    0    0  501  503 -0.00000000000E+00 -0.00000000000E+00 -0.73859789189E+03  0.73859789189E+03  0.00000000000E+00 0.  1.
          6    2    1    2  501    0 -0.22059391455E+03  0.27478237567E+02 -0.99352610618E+02  0.29835344457E+03  0.17241550967E+03 0.  0.
         24    2    3    3    0    0 -0.14387209540E+03  0.75341022869E+02 -0.27977609286E+02  0.18305572315E+03  0.79694426372E+02 0.  0.
         -6    2    1    2    0  502  0.22059391455E+03 -0.27478237567E+02 -0.50340909833E+03  0.57608063027E+03  0.17038616029E+03 0.  0.
        -24    2    5    5    0    0  0.36217343504E+02 -0.61578218853E+01 -0.22161124108E+03  0.23861744350E+03  0.80480602813E+02 0.  0.
          5    1    3    3  501    0 -0.76721819149E+02 -0.47862785302E+02 -0.71375001332E+02  0.11529772142E+03  0.47000000000E+01 0. -1.
        -13    1    4    4    0    0 -0.77830966328E+02  0.35666213585E+02 -0.54600834206E+02  0.10154304115E+03  0.00000000000E+00 0.  1.
         14    1    4    4    0    0 -0.66041129069E+02  0.39674809284E+02  0.26623224920E+02  0.81512681992E+02  0.00000000000E+00 0. -1.
         -5    1    5    5    0  502  0.18437657104E+03 -0.21320415682E+02 -0.28179785725E+03  0.33746318677E+03  0.47000000000E+01 0.  1.
         13    1    6    6    0    0  0.35635130815E+02 -0.31155542216E+02 -0.67214063629E+02  0.82208641326E+02  0.00000000000E+00 0. -1.
        -14    1    6    6    0    0  0.58221268828E+00  0.24997720331E+02 -0.15439717745E+03  0.15640880217E+03  0.00000000000E+00 0.  1.
</event>
<event>
12    1  0.1615162E-001  0.3002323E+03  0.7818608E-02  0.1085433E+00
         21   -1    0    0  503  502  0.00000000000E+00  0.00000000000E+00  0.50981156379E+03  0.50981156379E+03  0.00000000000E+00 0.  1.
         21   -1    0    0  501  503 -0.00000000000E+00 -0.00000000000E+00 -0.17971650532E+03  0.17971650532E+03  0.00000000000E+00 0. -1.
          6    2    1    2  501    0 -0.54403889071E+02  0.23780371833E+03  0.11205848803E+03  0.32046302139E+03  0.17501157603E+03 0.  0.
         24    2    3    3    0    0  0.33245485481E+02  0.15585536831E+03  0.50961372481E+02  0.18573035105E+03  0.80638351163E+02 0.  0.
         -6    2    1    2    0  502  0.54403889071E+02 -0.23780371833E+03  0.21803657044E+03  0.36906504773E+03  0.17075910461E+03 0.  0.
        -24    2    5    5    0    0  0.10207473820E+03 -0.18048818391E+03  0.17408501350E+03  0.28239665845E+03  0.80293487084E+02 0.  0.
          5    1    3    3  501    0 -0.87649374552E+02  0.81948350014E+02  0.61097115546E+02  0.13473267034E+03  0.47000000000E+01 0. -1.
        -13    1    4    4    0    0 -0.18935627003E+02  0.62259715147E+02  0.43574759640E+02  0.78317238064E+02  0.00000000000E+00 0.  1.
         14    1    4    4    0    0  0.52181112484E+02  0.93595653166E+02  0.73866128410E+01  0.10741311298E+03  0.00000000000E+00 0. -1.
         -5    1    5    5    0  502 -0.47670849131E+02 -0.57315534421E+02  0.43951556944E+02  0.86668389282E+02  0.47000000000E+01 0.  1.
         13    1    6    6    0    0  0.47761192488E+02 -0.14225125009E+03  0.89032327192E+02  0.17448009900E+03  0.00000000000E+00 0. -1.
        -14    1    6    6    0    0  0.54313545714E+02 -0.38236933814E+02  0.85052686306E+02  0.10791655945E+03  0.00000000000E+00 0.  1.
</event>
<event>
12    1  0.1615162E-001  0.2353178E+03  0.7818608E-02  0.1124555E+00
         21   -1    0    0  503  502  0.00000000000E+00  0.00000000000E+00  0.14491950044E+03  0.14491950044E+03  0.00000000000E+00 0.  1.
         21   -1    0    0  501  503 -0.00000000000E+00 -0.00000000000E+00 -0.91847757789E+03  0.91847757789E+03  0.00000000000E+00 0. -1.
          6    2    1    2  501    0  0.92344077760E+02  0.13279062266E+03 -0.79554000068E+03  0.82705478163E+03  0.15803461955E+03 0.  0.
         24    2    3    3    0    0  0.12384226197E+03  0.11985674527E+03 -0.63984997653E+03  0.66761546900E+03  0.81239625476E+02 0.  0.
         -6    2    1    2    0  502 -0.92344077760E+02 -0.13279062266E+03  0.21981923233E+02  0.23634229670E+03  0.17092015123E+03 0.  0.
        -24    2    5    5    0    0 -0.73856032872E+02 -0.13423929820E+03 -0.34682077426E+02  0.17653589708E+03  0.80542992813E+02 0.  0.
          5    1    3    3  501    0 -0.31498184208E+02  0.12933877390E+02 -0.15569002415E+03  0.15943931263E+03  0.47000000000E+01 0. -1.
        -13    1    4    4    0    0 -0.56412743052E+01 -0.67399711579E+01 -0.19804444496E+02  0.21667191992E+02  0.00000000000E+00 0.  1.
         14    1    4    4    0    0  0.12948353627E+03  0.12659671642E+03 -0.62004553203E+03  0.64594827701E+03  0.00000000000E+00 0. -1.
         -5    1    5    5    0  502 -0.18488044887E+02  0.14486755398E+01  0.56664000660E+02  0.59806399619E+02  0.47000000000E+01 0.  1.
         13    1    6    6    0    0 -0.46082794769E+02 -0.65553972746E+02 -0.57939289526E+02  0.98883307930E+02  0.00000000000E+00 0. -1.
        -14    1    6    6    0    0 -0.27773238104E+02 -0.68685325451E+02  0.23257212100E+02  0.77652589150E+02  0.00000000000E+00 0.  1.
</event>
<event>
12    1  0.1615162E-001  0.1773496E+03  0.7818608E-02  0.1170481E+00
         21   -1    0    0  501  502  0.00000000000E+00  0.00000000000E+00  0.30890963048E+03  0.30890963048E+03  0.00000000000E+00 0.  1.
         21   -1    0    0  502  503 -0.00000000000E+00 -0.00000000000E+00 -0.24093028553E+03  0.24093028553E+03  0.00000000000E+00 0.  1.
         -6    2    1    2    0  503 -0.44419419724E+00 -0.39179830151E+02 -0.17507970966E+03  0.24895690225E+03  0.17260179039E+03 0.  0.
        -24    2    3    3    0    0  0.66457153833E+01 -0.66282972092E+02 -0.40359068915E+02  0.11127397606E+03  0.79469776540E+02 0.  0.
          6    2    1    2  501    0  0.44419419724E+00  0.39179830151E+02  0.24305905461E+03  0.30088301375E+03  0.17296712849E+03 0.  0.
         24    2    5    5    0    0  0.38400799360E+02 -0.23423667042E+02  0.72826297061E+02  0.11551531571E+03  0.77568221912E+02 0.  0.
          5    1    5    5  501    0 -0.37956605163E+02  0.62603497193E+02  0.17023275755E+03  0.18536769804E+03  0.47000000000E+01 0. -1.
        -13    1    6    6    0    0 -0.22540419797E+02  0.30884901643E+01  0.13667926364E+02  0.26540940209E+02  0.00000000000E+00 0.  1.
         14    1    6    6    0    0  0.60941219157E+02 -0.26512157206E+02  0.59158370698E+02  0.88974375500E+02  0.00000000000E+00 0. -1.
         -5    1    3    3    0  503 -0.70899095806E+01  0.27103141941E+02 -0.13472064074E+03  0.13768292619E+03  0.47000000000E+01 0.  1.
         13    1    4    4    0    0 -0.29599725166E+02 -0.47553654416E+01 -0.22996616502E+02  0.37783615509E+02  0.00000000000E+00 0. -1.
        -14    1    4    4    0    0  0.36245440550E+02 -0.61527606651E+02 -0.17362452413E+02  0.73490360556E+02  0.00000000000E+00 0.  1.
</event>
<event>
12    1  0.1615162E-001  0.1928298E+03  0.7818608E-02  0.1156169E+00
         21   -1    0    0  501  502  0.00000000000E+00  0.00000000000E+00  0.68785690110E+03  0.68785690110E+03  0.00000000000E+00 0.  1.
         21   -1    0    0  502  503 -0.00000000000E+00 -0.00000000000E+00 -0.12973779341E+03  0.12973779341E+03  0.00000000000E+00 0.  1.
         -6    2    1    2    0  503  0.33128876730E+02 -0.79789117481E+02 -0.34098434024E+02  0.19477453360E+03  0.17120335859E+03 0.  0.
        -24    2    3    3    0    0  0.99754302370E+01  0.20725068690E+02  0.89989955415E+01  0.82887706216E+02  0.79122387732E+02 0.  0.
          6    2    1    2  501    0 -0.33128876730E+02  0.79789117481E+02  0.59221754171E+03  0.62282016092E+03  0.17239347549E+03 0.  0.
         24    2    5    5    0    0 -0.65594960435E+02  0.44551231047E+02  0.54105462260E+03  0.55256712167E+03  0.79390227931E+02 0.  0.
          5    1    5    5  501    0  0.32466083705E+02  0.35237886434E+02  0.51162919111E+02  0.70253039247E+02  0.47000000000E+01 0. -1.
        -13    1    6    6    0    0 -0.33368563057E+02  0.28925875575E+02  0.47812242682E+03  0.48015749740E+03  0.00000000000E+00 0.  1.
         14    1    6    6    0    0 -0.32226397377E+02  0.15625355472E+02  0.62932195779E+02  0.72409624271E+02  0.00000000000E+00 0. -1.
         -5    1    3    3    0  503  0.23153446493E+02 -0.10051418617E+03 -0.43097429566E+02  0.11188682738E+03  0.47000000000E+01 0.  1.
         13    1    4    4    0    0 -0.25185537803E+02  0.10601290617E+01 -0.20878363465E+02  0.32731349637E+02  0.00000000000E+00 0. -1.
        -14    1    4    4    0    0  0.35160968040E+02  0.19664939628E+02  0.29877359006E+02  0.50156356579E+02  0.00000000000E+00 0.  1.
</event>
<event>
12    1  0.1615162E-001  0.2580504E+03  0.7818608E-02  0.1108423E+00
         21   -1    0    0  501  502  0.00000000000E+00  0.00000000000E+00  0.71082371469E+03  0.71082371469E+03  0.00000000000E+00 0.  1.
         21   -1    0    0  502  503 -0.00000000000E+00 -0.00000000000E+00 -0.10063830150E+03  0.10063830150E+03  0.00000000000E+00 0. -1.
         -6    2    1    2    0  503 -0.97171976267E+02  0.16590524280E+03  0.19616961119E+03  0.32361049308E+03  0.17109731825E+03 0.  0.
        -24    2    3    3    0    0 -0.13610285478E+03  0.11264025229E+03  0.15659196491E+03  0.24653097179E+03  0.71025791558E+02 0.  0.
          6    2    1    2  501    0  0.97171976267E+02 -0.16590524280E+03  0.41401580199E+03  0.48785152312E+03  0.17211357223E+03 0.  0.
         24    2    5    5    0    0  0.38782963827E+02 -0.13166896430E+02  0.10974166311E+03  0.14239078610E+03  0.80959359554E+02 0.  0.
          5    1    5    5  501    0  0.58389012440E+02 -0.15273834637E+03  0.30427413888E+03  0.34546073701E+03  0.47000000000E+01 0. -1.
        -11    1    6    6    0    0 -0.56996663945E+01 -0.31848038978E+02  0.78517488772E+02  0.84922198669E+02  0.00000000000E+00 0.  1.
         12    1    6    6    0    0  0.44482630222E+02  0.18681142547E+02  0.31224174339E+02  0.57468587432E+02  0.00000000000E+00 0. -1.
         -5    1    3    3    0  503  0.38930878508E+02  0.53264990513E+02  0.39577646282E+02  0.77079521281E+02  0.47000000000E+01 0.  1.
         13    1    4    4    0    0 -0.64071276916E+02  0.21566842725E+02  0.27726639682E+02  0.73068623764E+02  0.00000000000E+00 0. -1.
        -14    1    4    4    0    0 -0.72031577859E+02  0.91073409561E+02  0.12886532523E+03  0.17346234803E+03  0.00000000000E+00 0.  1.
</event>
<event>
12    1  0.1615162E-001  0.3119010E+03  0.7818608E-02  0.1079592E+00
         21   -1    0    0  501  502  0.00000000000E+00  0.00000000000E+00  0.18463272831E+03  0.18463272831E+03  0.00000000000E+00 0. -1.
         21   -1    0    0  502  503 -0.00000000000E+00 -0.00000000000E+00 -0.53810637708E+03  0.53810637708E+03  0.00000000000E+00 0.  1.
         -6    2    1    2    0  503  0.19082965108E+03  0.17458664130E+03 -0.11936599232E+03  0.33275368076E+03  0.17198930457E+03 0.  0.
        -24    2    3    3    0    0  0.19874283817E+03  0.10353275457E+03 -0.81711754048E+02  0.25181416625E+03  0.80720608164E+02 0.  0.
          6    2    1    2  501    0 -0.19082965108E+03 -0.17458664130E+03 -0.23410765645E+03  0.38998542463E+03  0.17431519027E+03 0.  0.
         24    2    5    5    0    0 -0.76949348164E+02 -0.10690263464E+03 -0.20149181343E+03  0.25347267297E+03  0.79372977675E+02 0.  0.
          5    1    5    5  501    0 -0.11388030292E+03 -0.67684006660E+02 -0.32615843020E+02  0.13651275166E+03  0.47000000000E+01 0. -1.
        -11    1    6    6    0    0 -0.86206827676E+01  0.12435075312E+02 -0.30483104134E+02  0.34031851361E+02  0.00000000000E+00 0.  1.
         12    1    6    6    0    0 -0.68328665397E+02 -0.11933770995E+03 -0.17100870930E+03  0.21944082161E+03  0.00000000000E+00 0. -1.
         -5    1    3    3    0  503 -0.79131870861E+01  0.71053886735E+02 -0.37654238269E+02  0.80939514514E+02  0.47000000000E+01 0.  1.
         13    1    4    4    0    0  0.10414993841E+03  0.83831297877E+02 -0.78708209997E+02  0.15514470179E+03  0.00000000000E+00 0. -1.
        -14    1    4    4    0    0  0.94592899761E+02  0.19701456689E+02 -0.30035440515E+01  0.96669464454E+02  0.00000000000E+00 0.  1.
</event>
<event>
12    1  0.1615162E-001  0.1946000E+03  0.7818608E-02  0.1154710E+00
         21   -1    0    0  501  502  0.00000000000E+00  0.00000000000E+00  0.13903392262E+03  0.13903392262E+03  0.00000000000E+00 0. -1.
         21   -1    0    0  502  503 -0.00000000000E+00 -0.00000000000E+00 -0.39583114197E+03  0.39583114197E+03  0.00000000000E+00 0. -1.
         -6    2    1    2    0  503 -0.44193079128E+02 -0.78237731609E+02 -0.27937353752E+03  0.34046842698E+03  0.17261229799E+03 0.  0.
        -24    2    3    3    0    0 -0.62282721649E+02 -0.11341036717E+03 -0.24449405516E+03  0.28752489340E+03  0.78435785962E+02 0.  0.
          6    2    1    2  501    0  0.44193079128E+02  0.78237731609E+02  0.22576318162E+02  0.19439663761E+03  0.17089819098E+03 0.  0.
         24    2    5    5    0    0  0.52444899738E+02 -0.84657967225E+01  0.44853761451E+02  0.10437459115E+03  0.77846375249E+02 0.  0.
          5    1    5    5  501    0 -0.82518206105E+01  0.86703528332E+02 -0.22277443289E+02  0.90022046455E+02  0.47000000000E+01 0. -1.
        -11    1    6    6    0    0 -0.83825067883E+01  0.23327109982E+02  0.59926946238E+01  0.25501624831E+02  0.00000000000E+00 0.  1.
         12    1    6    6    0    0  0.60827406527E+02 -0.31792906705E+02  0.38861066827E+02  0.78872966322E+02  0.00000000000E+00 0. -1.
         -5    1    3    3    0  503  0.18089642521E+02  0.35172635560E+02 -0.34879482361E+02  0.52943533586E+02  0.47000000000E+01 0.  1.
         11    1    4    4    0    0 -0.18916978794E+02  0.90043657899E+01 -0.26541984558E+02  0.33814311086E+02  0.00000000000E+00 0. -1.
        -12    1    4    4    0    0 -0.43365742855E+02 -0.12241473296E+03 -0.21795207060E+03  0.25371058231E+03  0.00000000000E+00 0.  1.
</event>
<event>
12    1  0.1615162E-001  0.2358613E+03  0.7818608E-02  0.1122923E+00
         21   -1    0    0  503  502  0.00000000000E+00  0.00000000000E+00  0.32778827002E+03  0.32778827002E+03  0.00000000000E+00 0.  1.
         21   -1    0    0  501  503 -0.00000000000E+00 -0.00000000000E+00 -0.22028393793E+03  0.22028393793E+03  0.00000000000E+00 0.  1.
          6    2    1    2  501    0 -0.13747389667E+03 -0.79339404298E+02 -0.79566921454E+02  0.24703036007E+03  0.17175357482E+03 0.  0.
         24    2    3    3    0    0 -0.16703331960E+03 -0.51052514454E+02 -0.67297820062E+02  0.20405910840E+03  0.81268899627E+02 0.  0.
         -6    2    1    2    0  502  0.13747389667E+03  0.79339404298E+02  0.18707125354E+03  0.30104184788E+03  0.17446124766E+03 0.  0.
        -24    2    5    5    0    0  0.48823241750E+02  0.29613163314E+02  0.23326465815E+02  0.10825677801E+03  0.88964923430E+02 0.  0.
          5    1    3    3  501    0  0.29559422929E+02 -0.28286889844E+02 -0.12269101392E+02  0.42971251668E+02  0.47000000000E+01 0. -1.
        -11    1    4    4    0    0 -0.86311405957E+02 -0.57008381112E+02 -0.66767841184E+02  0.12311603848E+03  0.00000000000E+00 0.  1.
         12    1    4    4    0    0 -0.80721913642E+02  0.59558666579E+01 -0.52997887865E+00  0.80943069916E+02  0.00000000000E+00 0. -1.
         -5    1    5    5    0  502  0.88650654920E+02  0.49726240984E+02  0.16374478772E+03  0.19278506988E+03  0.47000000000E+01 0.  1.
         13    1    6    6    0    0 -0.18536529712E+02 -0.29321559738E+01  0.27541995996E+02  0.33328096493E+02  0.00000000000E+00 0. -1.
        -14    1    6    6    0    0  0.67359771462E+02  0.32545319288E+02 -0.42155301805E+01  0.74928681515E+02  0.00000000000E+00 0.  1.
</event>
<event>
12    1  0.1615162E-001  0.2099985E+03  0.7818608E-02  0.1141951E+00
         21   -1    0    0  503  502  0.00000000000E+00  0.00000000000E+00  0.46453279269E+03  0.46453279269E+03  0.00000000000E+00 0. -1.
         21   -1    0    0  501  503 -0.00000000000E+00 -0.00000000000E+00 -0.11273281594E+03  0.11273281594E+03  0.00000000000E+00 0. -1.
          6    2    1    2  501    0  0.10461591458E+03 -0.51949075974E+02  0.57765164339E+02  0.21594047378E+03  0.17219256060E+03 0.  0.
         24    2    3    3    0    0 -0.90192760165E+01 -0.33498810629E+01  0.39707595832E+01  0.81067324965E+02  0.80396363117E+02 0.  0.
         -6    2    1    2    0  502 -0.10461591458E+03  0.51949075974E+02  0.29403481241E+03  0.36132513485E+03  0.17451700802E+03 0.  0.
        -24    2    5    5    0    0 -0.19879624264E+02 -0.35173568197E+01  0.22049395614E+03  0.23607693485E+03  0.81897272314E+02 0.  0.
          5    1    3    3  501    0  0.11363519060E+03 -0.48599194911E+02  0.53794404756E+02  0.13487314882E+03  0.47000000000E+01 0. -1.
        -11    1    4    4    0    0 -0.33967017847E+02 -0.29319801565E+02  0.32964181974E+00  0.44872237842E+02  0.00000000000E+00 0.  1.
         12    1    4    4    0    0  0.24947741831E+02  0.25969920502E+02  0.36411177634E+01  0.36195087124E+02  0.00000000000E+00 0. -1.
         -5    1    5    5    0  502 -0.84736290320E+02  0.55466432794E+02  0.73540856270E+02  0.12524820001E+03  0.47000000000E+01 0.  1.
         13    1    6    6    0    0 -0.30015227221E+02  0.32423088505E+02  0.88705437411E+02  0.99100076486E+02  0.00000000000E+00 0. -1.
        -14    1    6    6    0    0  0.10135602958E+02 -0.35940445325E+02  0.13178851873E+03  0.13697685836E+03  0.00000000000E+00 0.  1.
</event>
<event>
12    1  0.1615162E-001  0.2260214E+03  0.7818608E-02  0.1129848E+00
         21   -1    0    0  503  502  0.00000000000E+00  0.00000000000E+00  0.18509503045E+03  0.18509503045E+03  0.00000000000E+00 0.  1.
         21   -1    0    0  501  503 -0.00000000000E+00 -0.00000000000E+00 -0.28493109160E+03  0.28493109160E+03  0.00000000000E+00 0.  1.
          6    2    1    2  501    0  0.44841012487E+02 -0.13563467700E+03 -0.29959806570E+01  0.22604128741E+03  0.17515195034E+03 0.  0.
         24    2    3    3    0    0  0.51010109448E+02 -0.15463631926E+03 -0.38140961349E+02  0.18534264082E+03  0.79892046377E+02 0.  0.
         -6    2    1    2    0  502 -0.44841012487E+02  0.13563467700E+03 -0.96840080493E+02  0.24398483464E+03  0.17246192721E+03 0.  0.
        -24    2    5    5    0    0  0.31223568486E+02  0.66122353013E+02 -0.89912766371E+02  0.14060272136E+03  0.79609942220E+02 0.  0.
          5    1    3    3  501    0 -0.61690969617E+01  0.19001642264E+02  0.35144980692E+02  0.40698646585E+02  0.47000000000E+01 0. -1.
        -11    1    4    4    0    0 -0.10978880062E+02 -0.60342824994E+02 -0.38652416495E+02  0.72496907772E+02  0.00000000000E+00 0.  1.
         12    1    4    4    0    0  0.61988989510E+02 -0.94293494268E+02  0.51145514607E+00  0.11284573305E+03  0.00000000000E+00 0. -1.
         -5    1    5    5    0  502 -0.76064580973E+02  0.69512323985E+02 -0.69273141215E+01  0.10338211328E+03  0.47000000000E+01 0.  1.
         13    1    6    6    0    0  0.17522455426E+00 -0.10574108271E+02  0.73705393489E+01  0.12890590354E+02  0.00000000000E+00 0. -1.
        -14    1    6    6    0    0  0.31048343932E+02  0.76696461284E+02 -0.97283305720E+02  0.12771213101E+03  0.00000000000E+00 0.  1.
</event>
<event>
12    1  0.1615162E-001  0.2156007E+03  0.7818608E-02  0.1137854E+00
         21   -1    0    0  503  502  0.00000000000E+00  0.00000000000E+00  0.86816294274E+03  0.86816294274E+03  0.00000000000E+00 0.  1.
         21   -1    0    0  501  503 -0.00000000000E+00 -0.00000000000E+00 -0.13330149966E+03  0.13330149966E+03  0.00000000000E+00 0.  1.
          6    2    1    2  501    0 -0.15405217212E+02  0.12440153273E+03 -0.23043572447E+02  0.21349001679E+03  0.17127147741E+03 0.  0.
         24    2    3    3    0    0 -0.43026702717E+02  0.40542972508E+01 -0.78341594003E+01  0.88991744534E+02  0.77397816951E+02 0.  0.
         -6    2    1    2    0  502  0.15405217212E+02 -0.12440153273E+03  0.75790501553E+03  0.78797442560E+03  0.17541556597E+03 0.  0.
        -24    2    5    5    0    0  0.57585837881E+02 -0.13469514016E+03  0.50790939467E+03  0.53419289838E+03  0.77014219317E+02 0.  0.
          5    1    3    3  501    0  0.27621485506E+02  0.12034723548E+03 -0.15209413047E+02  0.12449827225E+03  0.47000000000E+01 0. -1.
        -13    1    4    4    0    0  0.39624376289E+01  0.25261279161E+02 -0.23892587235E+02  0.34995554883E+02  0.00000000000E+00 0.  1.
         14    1    4    4    0    0 -0.46989140346E+02 -0.21206981910E+02  0.16058427835E+02  0.53996189650E+02  0.00000000000E+00 0. -1.
         -5    1    5    5    0  502 -0.42180620669E+02  0.10293607426E+02  0.24999562086E+03  0.25378152723E+03  0.47000000000E+01 0.  1.
         11    1    6    6    0    0  0.21925779737E+02 -0.32552166883E+01  0.30280708525E+02  0.37526757941E+02  0.00000000000E+00 0. -1.
        -12    1    6    6    0    0  0.35660058144E+02 -0.13143992347E+03  0.47762868614E+03  0.49666614044E+03  0.00000000000E+00 0.  1.
</event>
<event>
12    1  0.1615162E-001  0.1883786E+03  0.7818608E-02  0.1160174E+00
         21   -1    0    0  501  502  0.00000000000E+00  0.00000000000E+00  0.66581007740E+03  0.66581007740E+03  0.00000000000E+00 0. -1.
         21   -1    0    0  502  503 -0.00000000000E+00 -0.00000000000E+00 -0.10196827138E+03  0.10196827138E+03  0.00000000000E+00 0. -1.
         -6    2    1    2    0  503  0.50303477191E+02  0.52662014704E+02  0.16302004300E+02  0.18908265307E+03  0.17373188175E+03 0.  0.
        -24    2    3    3    0    0  0.17671495591E+01  0.10920642068E+02 -0.51803792334E+02  0.95495224292E+02  0.79456413974E+02 0.  0.
          6    2    1    2  501    0 -0.50303477191E+02 -0.52662014704E+02  0.54753980172E+03  0.57869569571E+03  0.17258373664E+03 0.  0.
         24    2    5    5    0    0  0.15236371327E+02 -0.42425554147E+02  0.45918634084E+03  0.46811232934E+03  0.79025202352E+02 0.  0.
          5    1    5    5  501    0 -0.65539848518E+02 -0.10236460558E+02  0.88353460880E+02  0.11058336637E+03  0.47000000000E+01 0. -1.
        -11    1    6    6    0    0  0.38870374572E+02 -0.15940447580E+02  0.12135713492E+03  0.12842335490E+03  0.00000000000E+00 0.  1.
         12    1    6    6    0    0 -0.23634003245E+02 -0.26485106566E+02  0.33782920592E+03  0.33968897444E+03  0.00000000000E+00 0. -1.
         -5    1    3    3    0  503  0.48536327632E+02  0.41741372636E+02  0.68105796634E+02  0.93587428775E+02  0.47000000000E+01 0.  1.
         11    1    4    4    0    0 -0.30578444312E+02 -0.18948010626E+02 -0.19771280047E+02  0.41048408957E+02  0.00000000000E+00 0. -1.
        -12    1    4    4    0    0  0.32345593871E+02  0.29868652694E+02 -0.32032512287E+02  0.54446815334E+02  0.00000000000E+00 0.  1.
</event>
<event>
12    1  0.1615162E-001  0.2261141E+03  0.7818608E-02  0.1129481E+00
         21   -1    0    0  501  502  0.00000000000E+00  0.00000000000E+00  0.29830367835E+03  0.29830367835E+03  0.00000000000E+00 0. -1.
         21   -1    0    0  502  503 -0.00000000000E+00 -0.00000000000E+00 -0.22531246238E+03  0.22531246238E+03  0.00000000000E+00 0.  1.
         -6    2    1    2    0  503 -0.13093597722E+03  0.64004216386E+02  0.16497148818E+03  0.27989854611E+03  0.17287809102E+03 0.  0.
        -24    2    3    3    0    0 -0.14441857454E+03  0.37171235847E+02  0.74651558126E+02  0.18460127941E+03  0.79160291711E+02 0.  0.
          6    2    1    2  501    0  0.13093597722E+03 -0.64004216386E+02 -0.91980272214E+02  0.24371759462E+03  0.17232853973E+03 0.  0.
         24    2    5    5    0    0  0.48251944604E+02 -0.89368058951E+02 -0.19590179848E+02  0.13083540279E+03  0.80120080870E+02 0.  0.
          5    1    5    5  501    0  0.82684032616E+02  0.25363842565E+02 -0.72390092366E+02  0.11288219183E+03  0.47000000000E+01 0. -1.
        -11    1    6    6    0    0  0.23788871248E+02 -0.66039570097E+01 -0.35336690904E+02  0.43106894663E+02  0.00000000000E+00 0.  1.
         12    1    6    6    0    0  0.24463073356E+02 -0.82764101941E+02  0.15746511056E+02  0.87728508129E+02  0.00000000000E+00 0. -1.
         -5    1    3    3    0  503  0.13482597317E+02  0.26832980539E+02  0.90319930058E+02  0.95297266701E+02  0.47000000000E+01 0.  1.
         11    1    4    4    0    0 -0.13556562521E+03  0.59038411638E+01  0.66422956421E+02  0.15107912900E+03  0.00000000000E+00 0. -1.
        -12    1    4    4    0    0 -0.88529493214E+01  0.31267394683E+02  0.82286017047E+01  0.33522150408E+02  0.00000000000E+00 0.  1.
</event>
<event>
12    1  0.1615162E-001  0.2098280E+03  0.7818608E-02  0.1141986E+00
         21   -1    0    0  501  502  0.00000000000E+00  0.00000000000E+00  0.20551505582E+04  0.20551505582E+04  0.00000000000E+00 0. -1.
         21   -1    0    0  502  503 -0.00000000000E+00 -0.00000000000E+00 -0.44852363347E+02  0.44852363347E+02  0.00000000000E+00 0.  1.
         -6    2    1    2    0  503 -0.28086126775E+02  0.11327521084E+03  0.24554018389E+03  0.32298260486E+03  0.17437797233E+03 0.  0.
        -24    2    3    3    0    0 -0.80268147219E+02  0.43845944379E+02  0.16063100651E+03  0.20142996318E+03  0.80039162390E+02 0.  0.
          6    2    1    2  501    0  0.28086126775E+02 -0.11327521084E+03  0.17647580109E+04  0.17770203166E+04  0.17265649344E+03 0.  0.
         24    2    5    5    0    0 -0.42697476799E+02 -0.27443352239E+02  0.69123664459E+03  0.69773924090E+03  0.80347603294E+02 0.  0.
          5    1    5    5  501    0  0.70783603575E+02 -0.85831858600E+02  0.10735213663E+04  0.10792810757E+04  0.47000000000E+01 0. -1.
        -11    1    6    6    0    0 -0.16562541672E+01 -0.30480825165E+02  0.88832447170E+02  0.93930972266E+02  0.00000000000E+00 0.  1.
         12    1    6    6    0    0 -0.41041222632E+02  0.30374729259E+01  0.60240419742E+03  0.60380826863E+03  0.00000000000E+00 0. -1.
         -5    1    3    3    0  503  0.52182020443E+02  0.69429266460E+02  0.84909177376E+02  0.12155264169E+03  0.47000000000E+01 0.  1.
         13    1    4    4    0    0 -0.61009366145E+02  0.44688515533E+02  0.16513980747E+03  0.18163249211E+03  0.00000000000E+00 0. -1.
        -14    1    4    4    0    0 -0.19258781073E+02 -0.84257115398E+00 -0.45088009600E+01  0.19797471068E+02  0.00000000000E+00 0.  1.
</event>
<event>
12    1  0.1615162E-001  0.2045045E+03  0.7818608E-02  0.1146211E+00
         21   -1    0    0  501  502  0.00000000000E+00  0.00000000000E+00  0.12665301710E+03  0.12665301710E+03  0.00000000000E+00 0.  1.
         21   -1    0    0  502  503 -0.00000000000E+00 -0.00000000000E+00 -0.33618543669E+03  0.33618543669E+03  0.00000000000E+00 0.  1.
         -6    2    1    2    0  503  0.10530202300E+03 -0.33613966443E+02 -0.14001189977E+03  0.24784155534E+03  0.17205722795E+03 0.  0.
        -24    2    3    3    0    0  0.12353360202E+02 -0.33780498817E+02 -0.75872266500E+01  0.85984007789E+02  0.77730019803E+02 0.  0.
          6    2    1    2  501    0 -0.10530202300E+03  0.33613966443E+02 -0.69520519822E+02  0.21499689844E+03  0.17079856227E+03 0.  0.
         24    2    5    5    0    0 -0.36329695618E+02  0.58039528118E+02 -0.90059911303E+02  0.13885396305E+03  0.80505911721E+02 0.  0.
          5    1    5    5  501    0 -0.68972327385E+02 -0.24425561675E+02  0.20539391481E+02  0.76142935394E+02  0.47000000000E+01 0. -1.
        -11    1    6    6    0    0 -0.55969179435E+02  0.63900584960E+02 -0.76171514370E+02  0.11409615860E+03  0.00000000000E+00 0.  1.
         12    1    6    6    0    0  0.19639483817E+02 -0.58610568416E+01 -0.13888396932E+02  0.24757804451E+02  0.00000000000E+00 0. -1.
         -5    1    3    3    0  503  0.92948662801E+02  0.16653237470E+00 -0.13242467312E+03  0.16185754755E+03  0.47000000000E+01 0.  1.
         13    1    4    4    0    0  0.11766938789E+02 -0.21271223435E+02  0.34426336284E+02  0.42143782754E+02  0.00000000000E+00 0. -1.
        -14    1    4    4    0    0  0.58642141264E+00 -0.12509275383E+02 -0.42013562934E+02  0.43840225035E+02  0.00000000000E+00 0.  1.
</event>
<event>
12    1  0.1615162E-001  0.1978477E+03  0.7818608E-02  0.1152351E+00
         21   -1    0    0  503  502  0.00000000000E+00  0.00000000000E+00  0.18202165234E+03  0.18202165234E+03  0.00000000000E+00 0. -1.
         21   -1    0    0  501  503 -0.00000000000E+00 -0.00000000000E+00 -0.22065270484E+03  0.22065270484E+03  0.00000000000E+00 0.  1.
          6    2    1    2  501    0 -0.72841066475E+02 -0.53798867629E+02 -0.61320998937E+02  0.20713276631E+03  0.17590787033E+03 0.  0.
         24    2    3    3    0    0 -0.55694638785E+02  0.43711821399E+00 -0.99151736098E+02  0.13865797667E+03  0.79327699197E+02 0.  0.
         -6    2    1    2    0  502  0.72841066475E+02  0.53798867629E+02  0.22689946436E+02  0.19554159087E+03  0.17181833711E+03 0.  0.
        -24    2    5    5    0    0 -0.47194124378E+01 -0.24683195638E+02  0.22607505621E+02  0.85100842323E+02  0.78099430555E+02 0.  0.
          5    1    3    3  501    0 -0.17146427690E+02 -0.54235985843E+02  0.37830737160E+02  0.68474789645E+02  0.47000000000E+01 0. -1.
        -13    1    4    4    0    0 -0.73091628178E+02 -0.47957683281E+00 -0.55865802090E+02  0.91997847511E+02  0.00000000000E+00 0.  1.
         14    1    4    4    0    0  0.17396989392E+02  0.91669504680E+00 -0.43285934008E+02  0.46660129154E+02  0.00000000000E+00 0. -1.
         -5    1    5    5    0  502  0.77560478913E+02  0.78482063267E+02  0.82440814874E-01  0.11044074855E+03  0.47000000000E+01 0.  1.
         11    1    6    6    0    0  0.46784482271E+01 -0.13432909236E+02 -0.28543141107E+02  0.31891093312E+02  0.00000000000E+00 0. -1.
        -12    1    6    6    0    0 -0.93978606649E+01 -0.11250286402E+02  0.51150646728E+02  0.53209749011E+02  0.00000000000E+00 0.  1.
</event>
<event>
12    1  0.1615162E-001  0.2389671E+03  0.7818608E-02  0.1120825E+00
         21   -1    0    0  503  502  0.00000000000E+00  0.00000000000E+00  0.29103790231E+03  0.29103790231E+03  0.00000000000E+00 0. -1.
         21   -1    0    0  501  503 -0.00000000000E+00 -0.00000000000E+00 -0.41959094478E+03  0.41959094478E+03  0.00000000000E+00 0.  1.
          6    2    1    2  501    0  0.13956119722E+03  0.88995207854E+02 -0.32436435510E+03  0.40168333262E+03  0.16952813941E+03 0.  0.
         24    2    3    3    0    0  0.58738161810E+02  0.52747118950E+02 -0.28223308642E+03  0.30348241203E+03  0.78826576332E+02 0.  0.
         -6    2    1    2    0  502 -0.13956119722E+03 -0.88995207854E+02  0.19581131263E+03  0.30894551447E+03  0.17235946729E+03 0.  0.
        -24    2    5    5    0    0 -0.99138844995E+02 -0.48513998008E+02  0.20848864184E+03  0.25016201690E+03  0.83255043892E+02 0.  0.
          5    1    3    3  501    0  0.80823035413E+02  0.36248088905E+02 -0.42131268689E+02  0.98200920586E+02  0.47000000000E+01 0. -1.
        -13    1    4    4    0    0  0.12336349894E+01  0.46422042152E+02 -0.74015382763E+02  0.87377369716E+02  0.00000000000E+00 0.  1.
         14    1    4    4    0    0  0.57504526820E+02  0.63250767980E+01 -0.20821770365E+03  0.21610504232E+03  0.00000000000E+00 0. -1.
         -5    1    5    5    0  502 -0.40422352227E+02 -0.40481209847E+02 -0.12677329213E+02  0.58783497567E+02  0.47000000000E+01 0.  1.
         13    1    6    6    0    0 -0.71062758588E+02 -0.71713810388E+02  0.16499929335E+03  0.19343617311E+03  0.00000000000E+00 0. -1.
        -14    1    6    6    0    0 -0.28076086407E+02  0.23199812380E+02  0.43489348487E+02  0.56725843795E+02  0.00000000000E+00 0.  1.
</event>
<event>
12    1  0.1615162E-001  0.1745044E+03  0.7818608E-02  0.1173657E+00
         21   -1    0    0  501  502  0.00000000000E+00  0.00000000000E+00  0.31905216382E+03  0.31905216382E+03  0.00000000000E+00 0.  1.
         21   -1    0    0  502  503 -0.00000000000E+00 -0.00000000000E+00 -0.15058141655E+03  0.15058141655E+03  0.00000000000E+00 0.  1.
         -6    2    1    2    0  503  0.12593964062E+02  0.48850889933E+01 -0.58778016190E+02  0.18413751785E+03  0.17398074108E+03 0.  0.
        -24    2    3    3    0    0  0.60769333371E+01  0.32364853846E+02 -0.10057706388E+03  0.13347333372E+03  0.81332479075E+02 0.  0.
          6    2    1    2  501    0 -0.12593964062E+02 -0.48850889933E+01  0.22724876346E+03  0.28549606251E+03  0.17228908611E+03 0.  0.
         24    2    5    5    0    0 -0.86902514906E+01  0.37985056680E+02  0.22411976075E+03  0.24207983260E+03  0.82792470621E+02 0.  0.
          5    1    5    5  501    0 -0.39037125718E+01 -0.42870145674E+02  0.31290027106E+01  0.43416229913E+02  0.47000000000E+01 0. -1.
        -13    1    6    6    0    0  0.72589561631E+01  0.15663195452E+02  0.21093752315E+03  0.21164278114E+03  0.00000000000E+00 0.  1.
         14    1    6    6    0    0 -0.15949207654E+02  0.22321861229E+02  0.13182237601E+02  0.30437051461E+02  0.00000000000E+00 0. -1.
         -5    1    3    3    0  503  0.65170307253E+01 -0.27479764853E+02  0.41799047687E+02  0.50664184128E+02  0.47000000000E+01 0.  1.
         13    1    4    4    0    0  0.15843598325E+02 -0.14597473450E+02  0.54649584228E+00  0.21550046328E+02  0.00000000000E+00 0. -1.
        -14    1    4    4    0    0 -0.97666649883E+01  0.46962327296E+02 -0.10112355972E+03  0.11192328739E+03  0.00000000000E+00 0.  1.
</event>
<event>
12    1  0.1615162E-001  0.2148681E+03  0.7818608E-02  0.1139380E+00
         21   -1    0    0  503  502  0.00000000000E+00  0.00000000000E+00  0.11231235668E+04  0.11231235668E+04  0.00000000000E+00 0.  1.
         21   -1    0    0  501  503 -0.00000000000E+00 -0.00000000000E+00 -0.43105269468E+02  0.43105269468E+02  0.00000000000E+00 0.  1.
          6    2    1    2  501    0 -0.74335035666E+02 -0.86760461023E+02  0.69778204594E+03  0.72773955368E+03  0.17219755871E+03 0.  0.
         24    2    3    3    0    0 -0.60693085567E+02 -0.11933233631E+03  0.64734889505E+03  0.66599311595E+03  0.81008527061E+02 0.  0.
         -6    2    1    2    0  502  0.74335035666E+02  0.86760461023E+02  0.38223625139E+03  0.43848928259E+03  0.18197588836E+03 0.  0.
        -24    2    5    5    0    0  0.55104320138E+02 -0.20816345382E+02  0.12348927256E+03  0.15757171683E+03  0.78162901531E+02 0.  0.
          5    1    3    3  501    0 -0.13641950099E+02  0.32571875289E+02  0.50433150898E+02  0.61746437726E+02  0.47000000000E+01 0. -1.
        -13    1    4    4    0    0 -0.51770791662E+02 -0.31158785795E+02  0.16836576982E+03  0.17888017567E+03  0.00000000000E+00 0.  1.
         14    1    4    4    0    0 -0.89222939052E+01 -0.88173550517E+02  0.47898312522E+03  0.48711294028E+03  0.00000000000E+00 0. -1.
         -5    1    5    5    0  502  0.19230715528E+02  0.10757680640E+03  0.25874697883E+03  0.28091756576E+03  0.47000000000E+01 0.  1.
         13    1    6    6    0    0  0.66962931209E+02 -0.22530797993E+02  0.59200068027E+02  0.92175479758E+02  0.00000000000E+00 0. -1.
        -14    1    6    6    0    0 -0.11858611071E+02  0.17144526113E+01  0.64289204531E+02  0.65396237074E+02  0.00000000000E+00 0.  1.
</event>
<event>
12    1  0.1615162E-001  0.2736951E+03  0.7818608E-02  0.1099212E+00
         21   -1    0    0  503  502  0.00000000000E+00  0.00000000000E+00  0.59686647976E+03  0.59686647976E+03  0.00000000000E+00 0.  1.
         21   -1    0    0  501  503 -0.00000000000E+00 -0.00000000000E+00 -0.13831308173E+03  0.13831308173E+03  0.00000000000E+00 0.  1.
          6    2    1    2  501    0  0.11539724309E+03  0.17786122039E+03  0.11693361452E+03  0.29744324649E+03  0.17276538208E+03 0.  0.
         24    2    3    3    0    0  0.13418622258E+03  0.80537819439E+02  0.67793281591E+02  0.18671053929E+03  0.75977718841E+02 0.  0.
         -6    2    1    2    0  502 -0.11539724309E+03 -0.17786122039E+03  0.34161978351E+03  0.43773631501E+03  0.17308341214E+03 0.  0.
        -24    2    5    5    0    0 -0.83831351646E+02 -0.15410556926E+03  0.15037605995E+03  0.24239817673E+03  0.73264552683E+02 0.  0.
          5    1    3    3  501    0 -0.18788979498E+02  0.97323400951E+02  0.49140332931E+02  0.11073270720E+03  0.47000000000E+01 0. -1.
        -11    1    4    4    0    0  0.19398383932E+02  0.47367647461E+02  0.42025699657E+01  0.51358085239E+02  0.00000000000E+00 0.  1.
         12    1    4    4    0    0  0.11478783865E+03  0.33170171979E+02  0.63590711625E+02  0.13535245405E+03  0.00000000000E+00 0. -1.
         -5    1    5    5    0  502 -0.31565891440E+02 -0.23755651125E+02  0.19124372356E+03  0.19533813828E+03  0.47000000000E+01 0.  1.
         11    1    6    6    0    0 -0.82897236648E+02 -0.80576469101E+02  0.10369868553E+03  0.15529950611E+03  0.00000000000E+00 0. -1.
        -12    1    6    6    0    0 -0.93411499823E+00 -0.73529100164E+02  0.46677374417E+02  0.87098670622E+02  0.00000000000E+00 0.  1.
</event>
<event>
12    1  0.1615162E-001  0.2016146E+03  0.7818608E-02  0.1148728E+00
         21   -1    0    0  501  502  0.00000000000E+00  0.00000000000E+00  0.22818255116E+04  0.22818255116E+04  0.00000000000E+00 0.  1.
         21   -1    0    0  502  503 -0.00000000000E+00 -0.00000000000E+00 -0.18906273444E+02  0.18906273444E+02  0.00000000000E+00 0. -1.
         -6    2    1    2    0  503 -0.89480255933E+02  0.54196607909E+02  0.83288397860E+03  0.85655406119E+03  0.17042637535E+03 0.  0.
        -24    2    3    3    0    0 -0.10778968341E+02  0.35697930099E+02  0.19850326688E+03  0.21702527282E+03  0.79409657524E+02 0.  0.
          6    2    1    2  501    0  0.89480255933E+02 -0.54196607909E+02  0.14300352596E+04  0.14441777239E+04  0.17234983610E+03 0.  0.
         24    2    5    5    0    0  0.62313309627E+02  0.90786383556E+01  0.11939758861E+04  0.11982348086E+04  0.78885168209E+02 0.  0.
          5    1    5    5  501    0  0.27166946306E+02 -0.63275246264E+02  0.23605937350E+03  0.24594291528E+03  0.47000000000E+01 0. -1.
        -13    1    6    6    0    0  0.77400082038E+02  0.45583295822E+01  0.75374553489E+03  0.75772282692E+03  0.00000000000E+00 0.  1.
         14    1    6    6    0    0 -0.15086772411E+02  0.45203087734E+01  0.44023035120E+03  0.44051198169E+03  0.00000000000E+00 0. -1.
         -5    1    3    3    0  503 -0.78701287592E+02  0.18498677810E+02  0.63438071172E+03  0.63952878837E+03  0.47000000000E+01 0.  1.
         11    1    4    4    0    0 -0.25604504532E+02  0.57303073320E+01  0.14437854827E+02  0.29947933593E+02  0.00000000000E+00 0. -1.
        -12    1    4    4    0    0  0.14825536191E+02  0.29967622767E+02  0.18406541205E+03  0.18707733922E+03  0.00000000000E+00 0.  1.
</event>
<event>
12    1  0.1615162E-001  0.1836034E+03  0.7818608E-02  0.1164621E+00
         21   -1    0    0  503  502  0.00000000000E+00  0.00000000000E+00  0.93780015326E+03  0.93780015326E+03  0.00000000000E+00 0.  1.
         21   -1    0    0  501  503 -0.00000000000E+00 -0.00000000000E+00 -0.37686797575E+02  0.37686797575E+02  0.00000000000E+00 0. -1.
          6    2    1    2  501    0  0.42904618919E+02  0.44844174663E+02  0.33764464930E+03  0.38381031377E+03  0.17162354568E+03 0.  0.
         24    2    3    3    0    0  0.22189320611E+02 -0.72805117202E+01  0.64441385541E+02  0.10486906576E+03  0.79369118571E+02 0.  0.
         -6    2    1    2    0  502 -0.42904618919E+02 -0.44844174663E+02  0.56246870639E+03  0.59167663707E+03  0.17279580683E+03 0.  0.
        -24    2    5    5    0    0 -0.63661887148E+02  0.20222437879E+02  0.22745997623E+03  0.24974467376E+03  0.78565758530E+02 0.  0.
          5    1    3    3  501    0  0.20715298308E+02  0.52124686383E+02  0.27320326375E+03  0.27894124801E+03  0.47000000000E+01 0. -1.
        -13    1    4    4    0    0  0.42475534057E+02  0.20808087516E+02  0.44229693652E+02  0.64756569551E+02  0.00000000000E+00 0.  1.
         14    1    4    4    0    0 -0.20286213446E+02 -0.28088599236E+02  0.20211691889E+02  0.40112496208E+02  0.00000000000E+00 0. -1.
         -5    1    5    5    0  502  0.20757268230E+02 -0.65066612542E+02  0.33500873016E+03  0.34193196331E+03  0.47000000000E+01 0.  1.
         11    1    6    6    0    0  0.12368142028E+02  0.22194081489E+02  0.39334279049E+02  0.46826634501E+02  0.00000000000E+00 0. -1.
        -12    1    6    6    0    0 -0.76030029176E+02 -0.19716436097E+01  0.18812569718E+03  0.20291803926E+03  0.00000000000E+00 0.  1.
</event>
<event>
12    1  0.1615162E-001  0.2746748E+03  0.7818608E-02  0.1098652E+00
         21   -1    0    0  501  502  0.00000000000E+00  0.00000000000E+00  0.64949823728E+03  0.64949823728E+03  0.00000000000E+00 0.  1.
         21   -1    0    0  502  503 -0.00000000000E+00 -0.00000000000E+00 -0.11899347757E+03  0.11899347757E+03  0.00000000000E+00 0.  1.
         -6    2    1    2    0  503  0.16340742241E+03 -0.13714596009E+03  0.20545314124E+03  0.34301204093E+03  0.17301811151E+03 0.  0.
        -24    2    3    3    0    0  0.60738440965E+02  0.22075094203E+01  0.70119752273E+02  0.12324506119E+03  0.81108163212E+02 0.  0.
          6    2    1    2  501    0 -0.16340742241E+03  0.13714596009E+03  0.32505161848E+03  0.42547967392E+03  0.17281029534E+03 0.  0.
         24    2    5    5    0    0 -0.24173827397E+02  0.91993000935E+02  0.18425632373E+03  0.22232901868E+03  0.80204199147E+02 0.  0.
          5    1    5    5  501    0 -0.13923359502E+03  0.45152959152E+02  0.14079529475E+03  0.20315065524E+03  0.47000000000E+01 0. -1.
        -13    1    6    6    0    0 -0.20852486351E+02  0.34462829353E+02  0.14095775499E+02  0.42675563042E+02  0.00000000000E+00 0.  1.
         14    1    6    6    0    0 -0.33213410467E+01  0.57530171582E+02  0.17016054823E+03  0.17965345564E+03  0.00000000000E+00 0. -1.
         -5    1    3    3    0  503  0.10266898145E+03 -0.13935346951E+03  0.13533338896E+03  0.21976697974E+03  0.47000000000E+01 0.  1.
         11    1    4    4    0    0  0.18654137372E+01 -0.27546942563E+02  0.89607157399E+00  0.27624568001E+02  0.00000000000E+00 0. -1.
        -12    1    4    4    0    0  0.58873027228E+02  0.29754451983E+02  0.69223680699E+02  0.95620493187E+02  0.00000000000E+00 0.  1.
</event>
<event>
12    1  0.1615162E-001  0.1936357E+03  0.7818608E-02  0.1155700E+00
         21   -1    0    0  503  502  0.00000000000E+00  0.00000000000E+00  0.12114664161E+03  0.12114664161E+03  0.00000000000E+00 0. -1.
         21   -1    0    0  501  503 -0.00000000000E+00 -0.00000000000E+00 -0.10589958457E+04  0.10589958457E+04  0.00000000000E+00 0. -1.
          6    2    1    2  501    0  0.75642302220E+02 -0.35118696829E+02 -0.96571223443E+03  0.98451241713E+03  0.17236443660E+03 0.  0.
         24    2    3    3    0    0  0.17371994523E+02 -0.81467939233E+02 -0.51523753012E+03  0.52790182784E+03  0.79194798283E+02 0.  0.
         -6    2    1    2    0  502 -0.75642302220E+02  0.35118696829E+02  0.27863030293E+02  0.19563007023E+03  0.17475610195E+03 0.  0.
        -24    2    5    5    0    0 -0.53722492927E+02 -0.34481167630E+02 -0.24110567860E+02  0.10591962448E+03  0.81009815451E+02 0.  0.
          5    1    3    3  501    0  0.58270307697E+02  0.46349242404E+02 -0.45047470431E+03  0.45661058929E+03  0.47000000000E+01 0. -1.
        -13    1    4    4    0    0  0.39199099661E+02 -0.84206803528E+02 -0.40995699517E+03  0.42034758601E+03  0.00000000000E+00 0.  1.
         14    1    4    4    0    0 -0.21827105138E+02  0.27388642951E+01 -0.10528053495E+03  0.10755424183E+03  0.00000000000E+00 0. -1.
         -5    1    5    5    0  502 -0.21919809292E+02  0.69599864459E+02  0.51973598154E+02  0.89710445753E+02  0.47000000000E+01 0.  1.
         13    1    6    6    0    0 -0.67766296588E+02 -0.65712920639E+01 -0.29524207061E+02  0.74210050769E+02  0.00000000000E+00 0. -1.
        -14    1    6    6    0    0  0.14043803660E+02 -0.27909875566E+02  0.54136392002E+01  0.31709573708E+02  0.00000000000E+00 0.  1.
</event>
<event>
12    1  0.1615162E-001  0.1759458E+03  0.7818608E-02  0.1172232E+00
         21   -1    0    0  501  502  0.00000000000E+00  0.00000000000E+00  0.40459449149E+03  0.40459449149E+03  0.00000000000E+00 0.  1.
         21   -1    0    0  502  503 -0.00000000000E+00 -0.00000000000E+00 -0.81522463601E+02  0.81522463601E+02  0.00000000000E+00 0.  1.
         -6    2    1    2    0  503 -0.29694543542E+02 -0.13149897798E+02  0.22702473210E+03  0.28722318621E+03  0.17292265318E+03 0.  0.
        -24    2    3    3    0    0  0.63366924110E+01  0.48456002366E+02  0.17648836066E+03  0.19964720927E+03  0.79515588931E+02 0.  0.
          6    2    1    2  501    0  0.29694543542E+02  0.13149897798E+02  0.96047295794E+02  0.19889376888E+03  0.17111096559E+03 0.  0.
         24    2    5    5    0    0 -0.40163936421E+02 -0.28605633297E+02  0.42123955315E+02  0.10115151473E+03  0.77625880187E+02 0.  0.
          5    1    5    5  501    0  0.69858479963E+02  0.41755531094E+02  0.53923340479E+02  0.97742254159E+02  0.47000000000E+01 0. -1.
        -11    1    6    6    0    0 -0.24082181470E+02  0.24698847325E+02  0.25966593555E+02  0.43176944130E+02  0.00000000000E+00 0.  1.
         12    1    6    6    0    0 -0.16081754950E+02 -0.53304480622E+02  0.16157361760E+02  0.57974570595E+02  0.00000000000E+00 0. -1.
         -5    1    3    3    0  503 -0.36031235953E+02 -0.61605900164E+02  0.50536371436E+02  0.87575976941E+02  0.47000000000E+01 0.  1.
         13    1    4    4    0    0 -0.18302112463E+02  0.54830684973E+02  0.73211244019E+02  0.93280531656E+02  0.00000000000E+00 0. -1.
        -14    1    4    4    0    0  0.24638804875E+02 -0.63746826070E+01  0.10327711664E+03  0.10636667761E+03  0.00000000000E+00 0.  1.
</event>
<event>
12    1  0.1615162E-001  0.1908578E+03  0.7818608E-02  0.1158180E+00
         21   -1    0    0  501  502  0.00000000000E+00  0.00000000000E+00  0.84516296854E+02  0.84516296854E+02  0.00000000000E+00 0.  1.
         21   -1    0    0  502  503 -0.00000000000E+00 -0.00000000000E+00 -0.62088457728E+03  0.62088457728E+03  0.00000000000E+00 0.  1.
         -6    2    1    2    0  503  0.24581747793E+02 -0.76021932418E+02 -0.46677956733E+03  0.50429144204E+03  0.17332944788E+03 0.  0.
        -24    2    3    3    0    0  0.62708821702E+02 -0.82559988137E+02 -0.23261021153E+03  0.26690189481E+03  0.79878426279E+02 0.  0.
          6    2    1    2  501    0 -0.24581747793E+02  0.76021932418E+02 -0.69588713092E+02  0.20110943209E+03  0.17093512849E+03 0.  0.
         24    2    5    5    0    0 -0.18761081152E+02  0.96416343620E+02 -0.99854781074E+02  0.16385440505E+03  0.85024697996E+02 0.  0.
          5    1    5    5  501    0 -0.58206666414E+01 -0.20394411202E+02  0.30266067982E+02  0.37255027037E+02  0.47000000000E+01 0. -1.
        -11    1    6    6    0    0 -0.44804936101E+02  0.20389808131E+02 -0.32387910123E+02  0.58925404511E+02  0.00000000000E+00 0.  1.
         12    1    6    6    0    0  0.26043854949E+02  0.76026535489E+02 -0.67466870952E+02  0.10492900054E+03  0.00000000000E+00 0. -1.
         -5    1    3    3    0  503 -0.38127073909E+02  0.65380557182E+01 -0.23416935580E+03  0.23738954723E+03  0.47000000000E+01 0.  1.
         11    1    4    4    0    0  0.10924921817E+02  0.12500863612E+02 -0.10036323535E+02  0.19399827264E+02  0.00000000000E+00 0. -1.
        -12    1    4    4    0    0  0.51783899884E+02 -0.95060851749E+02 -0.22257388800E+03  0.24750206755E+03  0.00000000000E+00 0.  1.
</event>
<event>
12    1  0.1615162E-001  0.2341178E+03  0.7818608E-02  0.1123840E+00
         21   -1    0    0  503  502  0.00000000000E+00  0.00000000000E+00  0.70896745778E+03  0.70896745778E+03  0.00000000000E+00 0. -1.
         21   -1    0    0  501  503 -0.00000000000E+00 -0.00000000000E+00 -0.10017060244E+03  0.10017060244E+03  0.00000000000E+00 0.  1.
          6    2    1    2  501    0  0.83509965855E+02 -0.13466971706E+03  0.11079243826E+03  0.25900983651E+03  0.17234060445E+03 0.  0.
         24    2    3    3    0    0  0.91915962957E+02 -0.16295844637E+03  0.91594750891E+02  0.22349147234E+03  0.80961968425E+02 0.  0.
         -6    2    1    2    0  502 -0.83509965855E+02  0.13466971706E+03  0.49800441709E+03  0.55012822371E+03  0.17182204745E+03 0.  0.
        -24    2    5    5    0    0 -0.66298798196E+02  0.14572266076E+03  0.49801406633E+03  0.52914056186E+03  0.79631020597E+02 0.  0.
          5    1    3    3  501    0 -0.84059971020E+01  0.28288729303E+02  0.19197687365E+02  0.35518364166E+02  0.47000000000E+01 0. -1.
        -11    1    4    4    0    0 -0.13114792181E+02 -0.38300693180E+02  0.12945191178E+02  0.42503162784E+02  0.00000000000E+00 0.  1.
         12    1    4    4    0    0  0.10503075514E+03 -0.12465775319E+03  0.78649559713E+02  0.18098830956E+03  0.00000000000E+00 0. -1.
         -5    1    5    5    0  502 -0.17211167659E+02 -0.11052943699E+02 -0.96492470151E-02  0.20987661845E+02  0.47000000000E+01 0.  1.
         11    1    6    6    0    0  0.14685550044E+02  0.55651531575E+02  0.16978005384E+03  0.17927081477E+03  0.00000000000E+00 0. -1.
        -12    1    6    6    0    0 -0.80984348241E+02  0.90071129187E+02  0.32823401249E+03  0.34986974709E+03  0.00000000000E+00 0.  1.
</event>
<event>
12    1  0.1615162E-001  0.2764274E+03  0.7818608E-02  0.1097658E+00
         21   -1    0    0  503  502  0.00000000000E+00  0.00000000000E+00  0.22067782492E+03  0.22067782492E+03  0.00000000000E+00 0.  1.
         21   -1    0    0  501  503 -0.00000000000E+00 -0.00000000000E+00 -0.43251192094E+03  0.43251192094E+03  0.00000000000E+00 0. -1.
          6    2    1    2  501    0 -0.19759157555E+03 -0.86336325601E+02 -0.25177064197E+03  0.37389233221E+03  0.17294689380E+03 0.  0.
         24    2    3    3    0    0 -0.21345078629E+03 -0.53703887590E+02 -0.18756545244E+03  0.29999519465E+03  0.79818369793E+02 0.  0.
         -6    2    1    2    0  502  0.19759157555E+03  0.86336325601E+02  0.39936545958E+02  0.27929741365E+03  0.17296163078E+03 0.  0.
        -24    2    5    5    0    0  0.13515951331E+03  0.40053364402E+02  0.92057980625E+02  0.18560318307E+03  0.78112122810E+02 0.  0.
          5    1    3    3  501    0  0.15859210736E+02 -0.32632438011E+02 -0.64205189535E+02  0.73897137555E+02  0.47000000000E+01 0. -1.
        -11    1    4    4    0    0 -0.53620451443E+02  0.17238907196E+02 -0.26467336627E+02  0.62232247608E+02  0.00000000000E+00 0.  1.
         12    1    4    4    0    0 -0.15983033484E+03 -0.70942794786E+02 -0.16109811581E+03  0.23776294704E+03  0.00000000000E+00 0. -1.
         -5    1    5    5    0  502  0.62432062241E+02  0.46282961199E+02 -0.52121434667E+02  0.93694230584E+02  0.47000000000E+01 0.  1.
         11    1    6    6    0    0  0.31834225844E+02  0.47928701004E+02  0.32482045995E+02  0.66073153603E+02  0.00000000000E+00 0. -1.
        -12    1    6    6    0    0  0.10332528747E+03 -0.78753366028E+01  0.59575934630E+02  0.11953002946E+03  0.00000000000E+00 0.  1.
</event>
<event>
12    1  0.1615162E-001  0.1904053E+03  0.7818608E-02  0.1158945E+00
         21   -1    0    0  501  502  0.00000000000E+00  0.00000000000E+00  0.22727687899E+03  0.22727687899E+03  0.00000000000E+00 0.  1.
         21   -1    0    0  502  503 -0.00000000000E+00 -0.00000000000E+00 -0.16613683253E+03  0.16613683253E+03  0.00000000000E+00 0.  1.
         -6    2    1    2    0  503 -0.60692083879E+02  0.27069107792E+02 -0.17325178987E+02  0.18747448527E+03  0.17444269878E+03 0.  0.
        -24    2    3    3    0    0 -0.79954299930E+02  0.12336429187E+02 -0.68855126318E+02  0.13032984197E+03  0.75498090864E+02 0.  0.
          6    2    1    2  501    0  0.60692083879E+02 -0.27069107792E+02  0.78465225449E+02  0.20593922626E+03  0.17843180116E+03 0.  0.
         24    2    5    5    0    0 -0.22638521933E+02 -0.23064329845E+02  0.86788834059E+02  0.12196660827E+03  0.79366780391E+02 0.  0.
          5    1    5    5  501    0  0.83330605813E+02 -0.40047779469E+01 -0.83236086106E+01  0.83972617988E+02  0.47000000000E+01 0. -1.
        -11    1    6    6    0    0  0.25311887572E+02  0.97104947172E+01  0.33953116178E+02  0.43448814233E+02  0.00000000000E+00 0.  1.
         12    1    6    6    0    0 -0.47950409505E+02 -0.32774824562E+02  0.52835717881E+02  0.78517794039E+02  0.00000000000E+00 0. -1.
         -5    1    3    3    0  503  0.19262216051E+02  0.14732678604E+02  0.51529947331E+02  0.57144643301E+02  0.47000000000E+01 0.  1.
         13    1    4    4    0    0 -0.29653395896E+02 -0.29553521409E+02 -0.42812033928E+02  0.59879919546E+02  0.00000000000E+00 0. -1.
        -14    1    4    4    0    0 -0.50300904034E+02  0.41889950596E+02 -0.26043092391E+02  0.70449922419E+02  0.00000000000E+00 0.  1.
</event>
<event>
12    1  0.1615162E-001  0.2436526E+03  0.7818608E-02  0.1117630E+00
         21   -1    0    0  503  502  0.00000000000E+00  0.00000000000E+00  0.39782716271E+03  0.39782716271E+03  0.00000000000E+00 0.  1.
         21   -1    0    0  501  503 -0.00000000000E+00 -0.00000000000E+00 -0.24516562547E+03  0.24516562547E+03  0.00000000000E+00 0.  1.
          6    2    1    2  501    0  0.14686584187E+03 -0.90939236382E+02 -0.12588994610E+03  0.27291505979E+03  0.16969039782E+03 0.  0.
         24    2    3    3    0    0  0.73149060902E+02 -0.11136467991E+03 -0.43940748645E+02  0.16071379642E+03  0.78391695504E+02 0.  0.
         -6    2    1    2    0  502 -0.14686584187E+03  0.90939236382E+02  0.27855148334E+03  0.37007772839E+03  0.17183444346E+03 0.  0.
        -24    2    5    5    0    0 -0.11243139395E+02  0.67532153838E+02  0.11084578106E+03  0.15307841615E+03  0.80369237427E+02 0.  0.
          5    1    3    3  501    0  0.73716780969E+02  0.20425443531E+02 -0.81949197455E+02  0.11220126338E+03  0.47000000000E+01 0. -1.
        -11    1    4    4    0    0  0.30000945022E+02 -0.46254877089E+02 -0.59450339660E+02  0.81079672190E+02  0.00000000000E+00 0.  1.
         12    1    4    4    0    0  0.43148115880E+02 -0.65109802824E+02  0.15509591015E+02  0.79634124226E+02  0.00000000000E+00 0. -1.
         -5    1    5    5    0  502 -0.13562270248E+03  0.23407082543E+02  0.16770570227E+03  0.21699931225E+03  0.47000000000E+01 0.  1.
         13    1    6    6    0    0  0.10518255849E+01  0.19499917140E+02 -0.10372666334E+02  0.22112107823E+02  0.00000000000E+00 0. -1.
        -14    1    6    6    0    0 -0.12294964980E+02  0.48032236698E+02  0.12121844740E+03  0.13096630832E+03  0.00000000000E+00 0.  1.
</event>
<event>
12    1  0.1615162E-001  0.1753212E+03  0.7818608E-02  0.1173883E+00
         21   -1    0    0  501  502  0.00000000000E+00  0.00000000000E+00  0.18685832536E+03  0.18685832536E+03  0.00000000000E+00 0. -1.
         21   -1    0    0  502  503 -0.00000000000E+00 -0.00000000000E+00 -0.16310893670E+03  0.16310893670E+03  0.00000000000E+00 0. -1.
         -6    2    1    2    0  503  0.34193393460E+02 -0.67513754741E+01 -0.15685337324E+02  0.17026580618E+03  0.16592060065E+03 0.  0.
        -24    2    3    3    0    0  0.74764279330E+01  0.97780976121E+01 -0.69867453344E+02  0.10745807239E+03  0.80711016087E+02 0.  0.
          6    2    1    2  501    0 -0.34193393460E+02  0.67513754741E+01  0.39434725985E+02  0.17970145588E+03  0.17182184496E+03 0.  0.
         24    2    5    5    0    0  0.12580853738E+02 -0.42228415986E+02  0.60265461605E+02  0.10868836048E+03  0.78991878341E+02 0.  0.
          5    1    5    5  501    0 -0.46774247198E+02  0.48979791460E+02 -0.20830735620E+02  0.71013095404E+02  0.47000000000E+01 0. -1.
        -13    1    6    6    0    0  0.39545518711E+01 -0.11848859182E+02 -0.19353699205E+02  0.23034748041E+02  0.00000000000E+00 0.  1.
         14    1    6    6    0    0  0.86263018667E+01 -0.30379556804E+02  0.79619160811E+02  0.85653612438E+02  0.00000000000E+00 0. -1.
         -5    1    3    3    0  503  0.26716965527E+02 -0.16529473086E+02  0.54182116020E+02  0.62807733790E+02  0.47000000000E+01 0.  1.
         11    1    4    4    0    0 -0.23311504183E+02 -0.17460362343E+02 -0.34234955548E+01  0.29325940773E+02  0.00000000000E+00 0. -1.
        -12    1    4    4    0    0  0.30787932116E+02  0.27238459955E+02 -0.66443957789E+02  0.78132131619E+02  0.00000000000E+00 0.  1.
</event>
<event>
12    1  0.1615162E-001  0.1941854E+03  0.7818608E-02  0.1156705E+00
         21   -1    0    0  503  502  0.00000000000E+00  0.00000000000E+00  0.13458717821E+04  0.13458717821E+04  0.00000000000E+00 0. -1.
         21   -1    0    0  501  503 -0.00000000000E+00 -0.00000000000E+00 -0.33226912434E+02  0.33226912434E+02  0.00000000000E+00 0. -1.
          6    2    1    2  501    0  0.69611134232E+02 -0.17712383054E+01  0.36459348968E+03  0.41308158799E+03  0.18127089762E+03 0.  0.
         24    2    3    3    0    0 -0.18312281773E+02 -0.20483874543E+02  0.26614253994E+03  0.27968230260E+03  0.81458026263E+02 0.  0.
         -6    2    1    2    0  502 -0.69611134232E+02  0.17712383054E+01  0.94805137999E+03  0.96601710655E+03  0.17186850716E+03 0.  0.
        -24    2    5    5    0    0  0.14790815008E+02  0.96984612538E+01  0.67852377750E+03  0.68343305108E+03  0.79833516288E+02 0.  0.
          5    1    3    3  501    0  0.87923416005E+02  0.18712636237E+02  0.98450949739E+02  0.13339928539E+03  0.47000000000E+01 0. -1.
        -13    1    4    4    0    0 -0.57442020943E+01  0.31263371648E+02  0.80352951127E+02  0.86411752785E+02  0.00000000000E+00 0.  1.
         14    1    4    4    0    0 -0.12568079678E+02 -0.51747246191E+02  0.18578958881E+03  0.19327054981E+03  0.00000000000E+00 0. -1.
         -5    1    5    5    0  502 -0.84401949240E+02 -0.79272229484E+01  0.26952760249E+03  0.28258405547E+03  0.47000000000E+01 0.  1.
         13    1    6    6    0    0 -0.14914999801E+02  0.33150293523E+02  0.19004866989E+03  0.19349391749E+03  0.00000000000E+00 0. -1.
        -14    1    6    6    0    0  0.29705814808E+02 -0.23451832269E+02  0.48847510761E+03  0.48993913359E+03  0.00000000000E+00 0.  1.
</event>
<event>
12    1  0.1615162E-001  0.1738333E+03  0.7818608E-02  0.1174216E+00
         21   -1    0    0  503  502  0.00000000000E+00  0.00000000000E+00  0.38108092895E+03  0.38108092895E+03  0.00000000000E+00 0. -1.
         21   -1    0    0  501  503 -0.00000000000E+00 -0.00000000000E+00 -0.17790549913E+03  0.17790549913E+03  0.00000000000E+00 0. -1.
          6    2    1    2  501    0  0.20133069517E+02  0.89640995813E+01 -0.10723197626E+03  0.20321856689E+03  0.17121154641E+03 0.  0.
         24    2    3    3    0    0  0.52194772545E+02  0.57261270214E+02 -0.85025040474E+02  0.14096258333E+03  0.81474198631E+02 0.  0.
         -6    2    1    2    0  502 -0.20133069517E+02 -0.89640995813E+01  0.31040740608E+03  0.35576786120E+03  0.17243061718E+03 0.  0.
        -24    2    5    5    0    0  0.40497811504E+02 -0.45670681895E+02  0.14659567048E+03  0.17721856370E+03  0.78678108729E+02 0.  0.
          5    1    3    3  501    0 -0.32061703029E+02 -0.48297170632E+02 -0.22206935787E+02  0.62255983562E+02  0.47000000000E+01 0. -1.
        -13    1    4    4    0    0 -0.94860246789E+01  0.82631293521E+01  0.11034461535E+02  0.16733897103E+02  0.00000000000E+00 0.  1.
         14    1    4    4    0    0  0.61680797224E+02  0.48998140862E+02 -0.96059502009E+02  0.12422868622E+03  0.00000000000E+00 0. -1.
         -5    1    5    5    0  502 -0.60630881021E+02  0.36706582313E+02  0.16381173560E+03  0.17854929750E+03  0.47000000000E+01 0.  1.
         13    1    6    6    0    0  0.30077152912E+02 -0.28396337404E+02  0.15100532812E+03  0.15656818395E+03  0.00000000000E+00 0. -1.
        -14    1    6    6    0    0  0.10420658592E+02 -0.17274344491E+02 -0.44096576386E+01  0.20650379744E+02  0.00000000000E+00 0.  1.
</event>
<event>
12    1  0.1615162E-001  0.2080022E+03  0.7818608E-02  0.1143543E+00
         21   -1    0    0  501  502  0.00000000000E+00  0.00000000000E+00  0.40326394343E+03  0.40326394343E+03  0.00000000000E+00 0.  1.
         21   -1    0    0  502  503 -0.00000000000E+00 -0.00000000000E+00 -0.12952820121E+03  0.12952820121E+03  0.00000000000E+00 0.  1.
         -6    2    1    2    0  503  0.79347439068E+02  0.83360853771E+02  0.23545768239E+02  0.20743090388E+03  0.17096236035E+03 0.  0.
        -24    2    3    3    0    0 -0.17286418964E+02  0.73897706247E+01 -0.37871543817E+01  0.81419449436E+02  0.79128725617E+02 0.  0.
          6    2    1    2  501    0 -0.79347439068E+02 -0.83360853771E+02  0.25018997398E+03  0.32536124076E+03  0.17326241913E+03 0.  0.
         24    2    5    5    0    0 -0.12244795115E+03 -0.50901003090E+02  0.16812659554E+03  0.22703635008E+03  0.75462171116E+02 0.  0.
          5    1    5    5  501    0  0.43100512085E+02 -0.32459850681E+02  0.82063378436E+02  0.98324890687E+02  0.47000000000E+01 0. -1.
        -13    1    6    6    0    0 -0.18829554710E+02 -0.44062803549E+02  0.42524261509E+02  0.64065557081E+02  0.00000000000E+00 0.  1.
         14    1    6    6    0    0 -0.10361839644E+03 -0.68381995410E+01  0.12560233403E+03  0.16297079300E+03  0.00000000000E+00 0. -1.
         -5    1    3    3    0  503  0.96633858032E+02  0.75971083147E+02  0.27332922621E+02  0.12601145445E+03  0.47000000000E+01 0.  1.
         11    1    4    4    0    0  0.26630587792E+02 -0.11653215351E+02  0.11363891528E+02  0.31210954244E+02  0.00000000000E+00 0. -1.
        -12    1    4    4    0    0 -0.43917006756E+02  0.19042985976E+02 -0.15151045909E+02  0.50208495192E+02  0.00000000000E+00 0.  1.
</event>
<event>
12    1  0.1615162E-001  0.2759624E+03  0.7818608E-02  0.1097931E+00
         21   -1    0    0  503  502  0.00000000000E+00  0.00000000000E+00  0.12067946572E+04  0.12067946572E+04  0.00000000000E+00 0. -1.
         21   -1    0    0  501  503 -0.00000000000E+00 -0.00000000000E+00 -0.65502807384E+02  0.65502807384E+02  0.00000000000E+00 0. -1.
          6    2    1    2  501    0  0.49405720031E+02  0.20998515179E+03  0.44816025124E+03  0.52625011430E+03  0.17192115304E+03 0.  0.
         24    2    3    3    0    0  0.29145561154E+02  0.13545180808E+03  0.41320854455E+03  0.44134189819E+03  0.69603978029E+02 0.  0.
         -6    2    1    2    0  502 -0.49405720031E+02 -0.20998515179E+03  0.69313159858E+03  0.74604735028E+03  0.17210620784E+03 0.  0.
        -24    2    5    5    0    0  0.25090562889E+02 -0.14696922438E+03  0.37435634163E+03  0.41264000526E+03  0.88879773627E+02 0.  0.
          5    1    3    3  501    0  0.20260158877E+02  0.74533343717E+02  0.34951706691E+02  0.84908216115E+02  0.47000000000E+01 0. -1.
        -13    1    4    4    0    0  0.39266462482E+02  0.31078264546E+02  0.14152295302E+03  0.15012148358E+03  0.00000000000E+00 0.  1.
         14    1    4    4    0    0 -0.10120901328E+02  0.10437354353E+03  0.27168559154E+03  0.29122041460E+03  0.00000000000E+00 0. -1.
         -5    1    5    5    0  502 -0.74496282921E+02 -0.63015927417E+02  0.31877525694E+03  0.33340734502E+03  0.47000000000E+01 0.  1.
         11    1    6    6    0    0 -0.61056068730E+01 -0.11441998269E+02  0.13646858485E+03  0.13708345054E+03  0.00000000000E+00 0. -1.
        -12    1    6    6    0    0  0.31196169762E+02 -0.13552722611E+03  0.23788775678E+03  0.27555655472E+03  0.00000000000E+00 0.  1.
</event>
<event>
12    1  0.1615162E-001  0.1824098E+03  0.7818608E-02  0.1165596E+00
         21   -1    0    0  501  502  0.00000000000E+00  0.00000000000E+00  0.43504131337E+02  0.43504131337E+02  0.00000000000E+00 0. -1.
         21   -1    0    0  502  503 -0.00000000000E+00 -0.00000000000E+00 -0.76669278526E+03  0.76669278526E+03  0.00000000000E+00 0. -1.
         -6    2    1    2    0  503 -0.47367725878E+01 -0.55883118668E+02 -0.33383159623E+03  0.38041671505E+03  0.17357414116E+03 0.  0.
        -24    2    3    3    0    0  0.67657954861E+01 -0.47262629212E+02 -0.34802531947E+03  0.35967608608E+03  0.77238149856E+02 0.  0.
          6    2    1    2  501    0  0.47367725878E+01  0.55883118668E+02 -0.38935705769E+03  0.42978020155E+03  0.17310905032E+03 0.  0.
         24    2    5    5    0    0 -0.20777558109E+02 -0.23788083391E+02 -0.28435695294E+03  0.29544631339E+03  0.73702561574E+02 0.  0.
          5    1    5    5  501    0  0.25514330697E+02  0.79671202059E+02 -0.10500010476E+03  0.13433388816E+03  0.47000000000E+01 0. -1.
        -11    1    6    6    0    0 -0.44071008467E+02 -0.29782111749E+02 -0.22888751024E+03  0.23498663858E+03  0.00000000000E+00 0.  1.
         12    1    6    6    0    0  0.23293450358E+02  0.59940283576E+01 -0.55469442696E+02  0.60459674813E+02  0.00000000000E+00 0. -1.
         -5    1    3    3    0  503 -0.11502568074E+02 -0.86204894561E+01  0.14193723239E+02  0.20740628972E+02  0.47000000000E+01 0.  1.
         11    1    4    4    0    0 -0.35195969335E+02 -0.17690416992E+02 -0.15845994573E+03  0.16328276551E+03  0.00000000000E+00 0. -1.
        -12    1    4    4    0    0  0.41961764821E+02 -0.29572212219E+02 -0.18956537374E+03  0.19639332057E+03  0.00000000000E+00 0.  1.
</event>
<event>
12    1  0.1615162E-001  0.3367815E+03  0.7818608E-02  0.1068271E+00
         21   -1    0    0  503  502  0.00000000000E+00  0.00000000000E+00  0.87044707794E+03  0.87044707794E+03  0.00000000000E+00 0.  1.
         21   -1    0    0  501  503 -0.00000000000E+00 -0.00000000000E+00 -0.17651151768E+03  0.17651151768E+03  0.00000000000E+00 0. -1.
          6    2    1    2  501    0  0.61306324991E+02  0.28404475985E+03  0.77792193438E+02  0.34478024032E+03  0.16846927814E+03 0.  0.
         24    2    3    3    0    0  0.43960130700E+02  0.55690910371E+02  0.23766016260E+02  0.10943519821E+03  0.79857801679E+02 0.  0.
         -6    2    1    2    0  502 -0.61306324991E+02 -0.28404475985E+03  0.61614336681E+03  0.70217835530E+03  0.17024072103E+03 0.  0.
        -24    2    5    5    0    0  0.35039173402E+02 -0.14077714853E+03  0.31327595744E+03  0.35352548900E+03  0.76108453173E+02 0.  0.
          5    1    3    3  501    0  0.17346194291E+02  0.22835384948E+03  0.54026177177E+02  0.23534504212E+03  0.47000000000E+01 0. -1.
        -11    1    4    4    0    0  0.27490517807E+02  0.24547592092E+02 -0.28371524318E+02  0.46510818515E+02  0.00000000000E+00 0.  1.
         12    1    4    4    0    0  0.16469612893E+02  0.31143318279E+02  0.52137540578E+02  0.62924379693E+02  0.00000000000E+00 0. -1.
         -5    1    5    5    0  502 -0.96345498393E+02 -0.14326761132E+03  0.30286740937E+03  0.34865286629E+03  0.47000000000E+01 0.  1.
         11    1    6    6    0    0  0.19042869614E+02 -0.85929934093E+02  0.26329503637E+03  0.27761639115E+03  0.00000000000E+00 0. -1.
        -12    1    6    6    0    0  0.15996303788E+02 -0.54847214436E+02  0.49980921068E+02  0.75909097854E+02  0.00000000000E+00 0.  1.
</event>
<event>
12    1  0.1615162E-001  0.2016275E+03  0.7818608E-02  0.1148589E+00
         21   -1    0    0  503  502  0.00000000000E+00  0.00000000000E+00  0.65651019401E+02  0.65651019401E+02  0.00000000000E+00 0.  1.
         21   -1    0    0  501  503 -0.00000000000E+00 -0.00000000000E+00 -0.88415938763E+03  0.88415938763E+03  0.00000000000E+00 0.  1.
          6    2    1    2  501    0 -0.73519246164E+02 -0.74827772678E+02 -0.67002730208E+03  0.69941017120E+03  0.17097873240E+03 0.  0.
         24    2    3    3    0    0 -0.40617785474E+02 -0.11702954472E+03 -0.49680363157E+03  0.51804858292E+03  0.78833794103E+02 0.  0.
         -6    2    1    2    0  502  0.73519246164E+02  0.74827772678E+02 -0.14848106615E+03  0.25040023582E+03  0.17218994157E+03 0.  0.
        -24    2    5    5    0    0  0.10887188976E+03  0.24012343566E+02 -0.84821564385E+02  0.16148094990E+03  0.80322589417E+02 0.  0.
          5    1    3    3  501    0 -0.32901460690E+02  0.42201772044E+02 -0.17322367051E+03  0.18136158828E+03  0.47000000000E+01 0. -1.
        -13    1    4    4    0    0 -0.25160855433E+02 -0.32997167737E+02 -0.30836062116E+03  0.31114008808E+03  0.00000000000E+00 0.  1.
         14    1    4    4    0    0 -0.15456930040E+02 -0.84032376985E+02 -0.18844301041E+03  0.20690849485E+03  0.00000000000E+00 0. -1.
         -5    1    5    5    0  502 -0.35352643599E+02  0.50815429112E+02 -0.63659501763E+02  0.88919285928E+02  0.47000000000E+01 0.  1.
         13    1    6    6    0    0  0.59772440314E+01 -0.14072420797E+02 -0.40250578018E+02  0.43056584910E+02  0.00000000000E+00 0. -1.
        -14    1    6    6    0    0  0.10289464573E+03  0.38084764362E+02 -0.44570986367E+02  0.11842436499E+03  0.00000000000E+00 0.  1.
</event>
<event>
12    1  0.1615162E-001  0.1853396E+03  0.7818608E-02  0.1163492E+00
         21   -1    0    0  501  502  0.00000000000E+00  0.00000000000E+00  0.13309420445E+03  0.13309420445E+03  0.00000000000E+00 0. -1.
         21   -1    0    0  502  503 -0.00000000000E+00 -0.00000000000E+00 -0.45120833786E+03  0.45120833786E+03  0.00000000000E+00 0. -1.
         -6    2    1    2    0  503 -0.63382074528E+02 -0.65161766548E+01 -0.35159789166E+03  0.39596261759E+03  0.17060354386E+03 0.  0.
        -24    2    3    3    0    0 -0.95322124611E+02  0.16800731153E+02 -0.17697828741E+03  0.21685945967E+03  0.79612430090E+02 0.  0.
          6    2    1    2  501    0  0.63382074528E+02  0.65161766548E+01  0.33483758253E+02  0.18833992472E+03  0.17404314766E+03 0.  0.
         24    2    5    5    0    0 -0.15062261985E+02  0.44019420239E+02  0.40897266702E+02  0.10094966601E+03  0.79709896184E+02 0.  0.
          5    1    5    5  501    0  0.78444336513E+02 -0.37503243584E+02 -0.74135084487E+01  0.87390258712E+02  0.47000000000E+01 0. -1.
        -13    1    6    6    0    0  0.21034051438E+02  0.48902534124E+02  0.12292026490E+02  0.54634998663E+02  0.00000000000E+00 0.  1.
         14    1    6    6    0    0 -0.36096313423E+02 -0.48831138849E+01  0.28605240212E+02  0.46314667348E+02  0.00000000000E+00 0. -1.
         -5    1    3    3    0  503  0.31940050083E+02 -0.23316907808E+02 -0.17461960425E+03  0.17910315792E+03  0.47000000000E+01 0.  1.
         13    1    4    4    0    0 -0.53580481566E+02  0.30687480619E+02 -0.15668664155E+03  0.16841405259E+03  0.00000000000E+00 0. -1.
        -14    1    4    4    0    0 -0.41741643045E+02 -0.13886749465E+02 -0.20291645865E+02  0.48445407076E+02  0.00000000000E+00 0.  1.
</event>
<event>
12    1  0.1615162E-001  0.1988702E+03  0.7818608E-02  0.1150738E+00
         21   -1    0    0  503  502  0.00000000000E+00  0.00000000000E+00  0.13867582922E+03  0.13867582922E+03  0.00000000000E+00 0.  1.
         21   -1    0    0  501  503 -0.00000000000E+00 -0.00000000000E+00 -0.63818992304E+03  0.63818992304E+03  0.00000000000E+00 0. -1.
          6    2    1    2  501    0 -0.10086579653E+03  0.52742702586E+00 -0.53870461864E+03  0.57417073655E+03  0.17115835205E+03 0.  0.
         24    2    3    3    0    0 -0.45524063184E+01  0.37002136469E+02 -0.32819653060E+03  0.33977274446E+03  0.79640898267E+02 0.  0.
         -6    2    1    2    0  502  0.10086579653E+03 -0.52742702586E+00  0.39190524828E+02  0.20269501570E+03  0.17139190490E+03 0.  0.
        -24    2    5    5    0    0  0.22359225478E+02 -0.54330270694E+02  0.33975335869E+02  0.10726275762E+03  0.83061798970E+02 0.  0.
          5    1    3    3  501    0 -0.96313390215E+02 -0.36474709443E+02 -0.21050808805E+03  0.23439799209E+03  0.47000000000E+01 0. -1.
        -13    1    4    4    0    0 -0.20140193261E+02 -0.15518115250E+02 -0.48489102991E+02  0.54750638301E+02  0.00000000000E+00 0.  1.
         14    1    4    4    0    0  0.15587786942E+02  0.52520251719E+02 -0.27970742761E+03  0.28502210616E+03  0.00000000000E+00 0. -1.
         -5    1    5    5    0  502  0.78506571055E+02  0.53802843668E+02  0.52151889590E+01  0.95432258076E+02  0.47000000000E+01 0.  1.
         13    1    6    6    0    0 -0.21106773797E+02 -0.38346133511E+02 -0.83069142337E+01  0.44552515972E+02  0.00000000000E+00 0. -1.
        -14    1    6    6    0    0  0.43465999274E+02 -0.15984137183E+02  0.42282250102E+02  0.62710241653E+02  0.00000000000E+00 0.  1.
</event>
<event>
12    1  0.1615162E-001  0.1831347E+03  0.7818608E-02  0.1164873E+00
         21   -1    0    0  503  502  0.00000000000E+00  0.00000000000E+00  0.47179432933E+03  0.47179432933E+03  0.00000000000E+00 0.  1.
         21   -1    0    0  501  503 -0.00000000000E+00 -0.00000000000E+00 -0.93249829195E+02  0.93249829195E+02  0.00000000000E+00 0.  1.
          6    2    1    2  501    0 -0.27414526856E+01 -0.65328431260E+02  0.32724530456E+03  0.37486022132E+03  0.17074945586E+03 0.  0.
         24    2    3    3    0    0 -0.51120338853E+02 -0.87503942046E+02  0.23916571887E+03  0.27184384728E+03  0.80178596285E+02 0.  0.
         -6    2    1    2    0  502  0.27414526856E+01  0.65328431260E+02  0.51299195577E+02  0.19018393721E+03  0.17106432419E+03 0.  0.
        -24    2    5    5    0    0  0.57667680774E+01  0.43975136716E+02  0.10065302728E+03  0.13611910183E+03  0.80189211990E+02 0.  0.
          5    1    3    3  501    0  0.48378886168E+02  0.22175510785E+02  0.88079585685E+02  0.10301637404E+03  0.47000000000E+01 0. -1.
        -13    1    4    4    0    0 -0.72407359931E+02 -0.58577440101E+02  0.16614034002E+03  0.19046457635E+03  0.00000000000E+00 0.  1.
         14    1    4    4    0    0  0.21287021078E+02 -0.28926501944E+02  0.73025378854E+02  0.81379270934E+02  0.00000000000E+00 0. -1.
         -5    1    5    5    0  502 -0.30253153918E+01  0.21353294544E+02 -0.49353831699E+02  0.54064835379E+02  0.47000000000E+01 0.  1.
         11    1    6    6    0    0 -0.26966385316E+02  0.51425450031E+02  0.63799847364E+02  0.86268090112E+02  0.00000000000E+00 0. -1.
        -12    1    6    6    0    0  0.32733153393E+02 -0.74503133152E+01  0.36853179912E+02  0.49851011717E+02  0.00000000000E+00 0.  1.
</event>
<event>
12    1  0.1615162E-001  0.2377573E+03  0.7818608E-02  0.1121514E+00
         21   -1    0    0  503  502  0.00000000000E+00  0.00000000000E+00  0.68963252363E+02  0.68963252363E+02  0.00000000000E+00 0.  1.
         21   -1    0    0  501  503 -0.00000000000E+00 -0.00000000000E+00 -0.11599321141E+04  0.11599321141E+04  0.00000000000E+00 0.  1.
          6    2    1    2  501    0  0.19779202410E+02  0.16185369242E+03 -0.88148045119E+03  0.91298209820E+03  0.17303378631E+03 0.  0.
         24    2    3    3    0    0  0.49356826306E+02  0.14344461339E+03 -0.84689237692E+03  0.86366521562E+03  0.75355511887E+02 0.  0.
         -6    2    1    2    0  502 -0.19779202410E+02 -0.16185369242E+03 -0.20948841056E+03  0.31591326828E+03  0.17125409285E+03 0.  0.
        -24    2    5    5    0    0  0.46220631884E+01 -0.29041671483E+02 -0.13488948430E+03  0.16157097186E+03  0.83935831559E+02 0.  0.
          5    1    3    3  501    0 -0.29577623896E+02  0.18409079025E+02 -0.34588074278E+02  0.49316882587E+02  0.47000000000E+01 0. -1.
        -11    1    4    4    0    0  0.33916772549E+01  0.10612391192E+03 -0.44849028513E+03  0.46088753944E+03  0.00000000000E+00 0.  1.
         12    1    4    4    0    0  0.45965149051E+02  0.37320701474E+02 -0.39840209178E+03  0.40277767617E+03  0.00000000000E+00 0. -1.
         -5    1    5    5    0  502 -0.24401265598E+02 -0.13281202093E+03 -0.74598926259E+02  0.15434229643E+03  0.47000000000E+01 0.  1.
         11    1    6    6    0    0  0.58323435618E+01 -0.17893144823E+02 -0.14515374891E+03  0.14636868410E+03  0.00000000000E+00 0. -1.
        -12    1    6    6    0    0 -0.12102803734E+01 -0.11148526659E+02  0.10264264601E+02  0.15202287757E+02  0.00000000000E+00 0.  1.
</event>
<event>
12    1  0.1615162E-001  0.1856396E+03  0.7818608E-02  0.1164207E+00
         21   -1    0    0  503  502  0.00000000000E+00  0.00000000000E+00  0.23706083188E+03  0.23706083188E+03  0.00000000000E+00 0. -1.
         21   -1    0    0  501  503 -0.00000000000E+00 -0.00000000000E+00 -0.29420929930E+03  0.29420929930E+03  0.00000000000E+00 0.  1.
          6    2    1    2  501    0 -0.15814760359E+02 -0.69788259056E+02 -0.22136389195E+03  0.28890140561E+03  0.17129372946E+03 0.  0.
         24    2    3    3    0    0  0.53434399966E+02 -0.45605060509E+02 -0.16653847912E+03  0.19720522690E+03  0.78865580851E+02 0.  0.
         -6    2    1    2    0  502  0.15814760359E+02  0.69788259056E+02  0.16421542453E+03  0.24236872557E+03  0.16326477188E+03 0.  0.
        -24    2    5    5    0    0 -0.18118395009E+02  0.82920425340E+02  0.16963275608E+03  0.20528300992E+03  0.78496936553E+02 0.  0.
          5    1    3    3  501    0 -0.69249160325E+02 -0.24183198546E+02 -0.54825412828E+02  0.91696178707E+02  0.47000000000E+01 0. -1.
        -13    1    4    4    0    0  0.43068145720E+02 -0.68226401848E+02 -0.12465796410E+03  0.14849011785E+03  0.00000000000E+00 0.  1.
         14    1    4    4    0    0  0.10366254245E+02  0.22621341339E+02 -0.41880515022E+02  0.48715109048E+02  0.00000000000E+00 0. -1.
         -5    1    5    5    0  502  0.33933155368E+02 -0.13132166284E+02 -0.54173315550E+01  0.37085715656E+02  0.47000000000E+01 0.  1.
         11    1    6    6    0    0  0.28574321699E+02  0.15084280417E+02  0.60221936839E+02  0.68342585940E+02  0.00000000000E+00 0. -1.
        -12    1    6    6    0    0 -0.46692716708E+02  0.67836144923E+02  0.10941081924E+03  0.13694042398E+03  0.00000000000E+00 0.  1.
</event>
<event>
12    1  0.1615162E-001  0.1831400E+03  0.7818608E-02  0.1165383E+00
         21   -1    0    0  503  502  0.00000000000E+00  0.00000000000E+00  0.77300901126E+03  0.77300901126E+03  0.00000000000E+00 0. -1.
         21   -1    0    0  501  503 -0.00000000000E+00 -0.00000000000E+00 -0.48808121811E+02  0.48808121811E+02  0.00000000000E+00 0.  1.
          6    2    1    2  501    0  0.16361246571E+02  0.55814075486E+02  0.22019340783E+03  0.28640074660E+03  0.17365871526E+03 0.  0.
         24    2    3    3    0    0  0.12828242771E+02  0.95424664535E+02  0.21143994707E+03  0.24541057758E+03  0.79051059177E+02 0.  0.
         -6    2    1    2    0  502 -0.16361246571E+02 -0.55814075486E+02  0.50400748162E+03  0.53541638648E+03  0.17106800978E+03 0.  0.
        -24    2    5    5    0    0  0.22753104145E+02 -0.11190797731E+02  0.11872449609E+03  0.14556226211E+03  0.80311446733E+02 0.  0.
          5    1    3    3  501    0  0.35330037998E+01 -0.39610589048E+02  0.87534607641E+01  0.40990169016E+02  0.47000000000E+01 0. -1.
        -13    1    4    4    0    0  0.34496892040E+02  0.10167643946E+02  0.73154385254E+02  0.81516750583E+02  0.00000000000E+00 0.  1.
         14    1    4    4    0    0 -0.21668649269E+02  0.85257020589E+02  0.13828556182E+03  0.16389382700E+03  0.00000000000E+00 0. -1.
         -5    1    5    5    0  502 -0.39114350716E+02 -0.44623277755E+02  0.38528298553E+03  0.38985412437E+03  0.47000000000E+01 0.  1.
         11    1    6    6    0    0 -0.14153345272E+02 -0.15257432797E+01  0.10351824700E+03  0.10449245206E+03  0.00000000000E+00 0. -1.
        -12    1    6    6    0    0  0.36906449417E+02 -0.96650544516E+01  0.15206249085E+02  0.41069810048E+02  0.00000000000E+00 0.  1.
</event>
<event>
12    1  0.1615162E-001  0.1836813E+03  0.7818608E-02  0.1164662E+00
         21   -1    0    0  503  502  0.00000000000E+00  0.00000000000E+00  0.32447349338E+03  0.32447349338E+03  0.00000000000E+00 0. -1.
         21   -1    0    0  501  503 -0.00000000000E+00 -0.00000000000E+00 -0.12927502257E+03  0.12927502257E+03  0.00000000000E+00 0. -1.
          6    2    1    2  501    0 -0.40935845557E+02  0.44536001484E+02 -0.48525629746E+01  0.18216199795E+03  0.17175636015E+03 0.  0.
         24    2    3    3    0    0  0.37419878776E+02  0.48453477643E+02  0.16638339400E+02  0.10068246040E+03  0.78180155221E+02 0.  0.
         -6    2    1    2    0  502  0.40935845557E+02 -0.44536001484E+02  0.20005103379E+03  0.27158651801E+03  0.17343477669E+03 0.  0.
        -24    2    5    5    0    0  0.80487077403E+02 -0.71724526558E+02  0.13128025173E+03  0.18759231403E+03  0.79585139643E+02 0.  0.
          5    1    3    3  501    0 -0.78355724333E+02 -0.39174761585E+01 -0.21490902374E+02  0.81479537555E+02  0.47000000000E+01 0. -1.
        -11    1    4    4    0    0  0.58456800709E+02  0.31434551129E+02 -0.42355930698E+01  0.66507659728E+02  0.00000000000E+00 0.  1.
         12    1    4    4    0    0 -0.21036921933E+02  0.17018926513E+02  0.20873932469E+02  0.34174800669E+02  0.00000000000E+00 0. -1.
         -5    1    5    5    0  502 -0.39551231845E+02  0.27188525074E+02  0.68770782060E+02  0.83994203974E+02  0.47000000000E+01 0.  1.
         11    1    6    6    0    0  0.82416212081E+02 -0.27498771372E+02  0.10431626986E+03  0.13575897244E+03  0.00000000000E+00 0. -1.
        -12    1    6    6    0    0 -0.19291346780E+01 -0.44225755186E+02  0.26963981862E+02  0.51833341588E+02  0.00000000000E+00 0.  1.
</event>
<event>
12    1  0.1615162E-001  0.1888024E+03  0.7818608E-02  0.1159854E+00
         21   -1    0    0  503  502  0.00000000000E+00  0.00000000000E+00  0.10077819287E+03  0.10077819287E+03  0.00000000000E+00 0. -1.
         21   -1    0    0  501  503 -0.00000000000E+00 -0.00000000000E+00 -0.37456555205E+03  0.37456555205E+03  0.00000000000E+00 0. -1.
          6    2    1    2  501    0 -0.75823846171E+02 -0.18290583710E+02 -0.19673018541E+03  0.27267036601E+03  0.17193766763E+03 0.  0.
         24    2    3    3    0    0 -0.32340375752E+02  0.39105515700E+02 -0.14774797646E+03  0.18545528005E+03  0.99945260449E+02 0.  0.
         -6    2    1    2    0  502  0.75823846171E+02  0.18290583710E+02 -0.77057173773E+02  0.20267337890E+03  0.17045494825E+03 0.  0.
        -24    2    5    5    0    0  0.60542301482E+02  0.25670082697E+02 -0.11802181644E+03  0.15808442777E+03  0.82080532002E+02 0.  0.
          5    1    3    3  501    0 -0.43483470419E+02 -0.57396099410E+02 -0.48982208942E+02  0.87215085966E+02  0.47000000000E+01 0. -1.
        -13    1    4    4    0    0 -0.33545705152E+02 -0.10798803177E+01 -0.14068869637E+03  0.14463675107E+03  0.00000000000E+00 0.  1.
         14    1    4    4    0    0  0.12053294005E+01  0.40185396018E+02 -0.70592800963E+01  0.40818528973E+02  0.00000000000E+00 0. -1.
         -5    1    5    5    0  502  0.15281544688E+02 -0.73794989869E+01  0.40964642670E+02  0.44588951125E+02  0.47000000000E+01 0.  1.
         13    1    6    6    0    0  0.89615967873E+01  0.23793509472E+01 -0.97413517841E+02  0.97853793928E+02  0.00000000000E+00 0. -1.
        -14    1    6    6    0    0  0.51580704695E+02  0.23290731750E+02 -0.20608298602E+02  0.60230633847E+02  0.00000000000E+00 0.  1.
</event>
<event>
12    1  0.1615162E-001  0.2109364E+03  0.7818608E-02  0.1140842E+00
         21   -1    0    0  503  502  0.00000000000E+00  0.00000000000E+00  0.71384710513E+02  0.71384710513E+02  0.00000000000E+00 0.  1.
         21   -1    0    0  501  503 -0.00000000000E+00 -0.00000000000E+00 -0.99930524047E+03  0.99930524047E+03  0.00000000000E+00 0.  1.
          6    2    1    2  501    0  0.45443127674E+02 -0.11267784400E+03 -0.13552912462E+03  0.25072355169E+03  0.17243196157E+03 0.  0.
         24    2    3    3    0    0  0.50556193150E+02 -0.51304328831E+02 -0.15293688458E+03  0.18655212574E+03  0.78891964927E+02 0.  0.
         -6    2    1    2    0  502 -0.45443127674E+02  0.11267784400E+03 -0.79239140533E+03  0.81996639929E+03  0.17233508735E+03 0.  0.
        -24    2    5    5    0    0 -0.51001163203E+02  0.12881812322E+03 -0.78445359784E+03  0.80056281302E+03  0.79612454469E+02 0.  0.
          5    1    3    3  501    0 -0.51130654758E+01 -0.61373515167E+02  0.17407759957E+02  0.64171425956E+02  0.47000000000E+01 0. -1.
        -13    1    4    4    0    0  0.51042374306E+02 -0.31123330262E+02 -0.40246180358E+02  0.72067611968E+02  0.00000000000E+00 0.  1.
         14    1    4    4    0    0 -0.48618115571E+00 -0.20180998569E+02 -0.11269070422E+03  0.11448451377E+03  0.00000000000E+00 0. -1.
         -5    1    5    5    0  502  0.55580355284E+01 -0.16140279219E+02 -0.79378074890E+01  0.19403586265E+02  0.47000000000E+01 0.  1.
         11    1    6    6    0    0  0.10627079495E+02  0.16585892221E+02 -0.34245096802E+02  0.39506370301E+02  0.00000000000E+00 0. -1.
        -12    1    6    6    0    0 -0.61628242698E+02  0.11223223100E+03 -0.75020850104E+03  0.76105644272E+03  0.00000000000E+00 0.  1.
</event>
<event>
12    1  0.1615162E-001  0.1813142E+03  0.7818608E-02  0.1167602E+00
         21   -1    0    0  503  502  0.00000000000E+00  0.00000000000E+00  0.73224945150E+02  0.73224945150E+02  0.00000000000E+00 0. -1.
         21   -1    0    0  501  503 -0.00000000000E+00 -0.00000000000E+00 -0.44018607848E+03  0.44018607848E+03  0.00000000000E+00 0. -1.
          6    2    1    2  501    0 -0.14523675933E+02 -0.56554573475E+02 -0.16831114382E+03  0.24739338166E+03  0.17165514036E+03 0.  0.
         24    2    3    3    0    0 -0.21441499992E+02  0.32371884690E+02 -0.58216157095E+02  0.10562326015E+03  0.79116845849E+02 0.  0.
         -6    2    1    2    0  502  0.14523675933E+02  0.56554573475E+02 -0.19864998951E+03  0.26601764197E+03  0.16701559976E+03 0.  0.
        -24    2    5    5    0    0 -0.36683368455E+02 -0.14072067615E+02 -0.96433648301E+02  0.13155369053E+03  0.80394230888E+02 0.  0.
          5    1    3    3  501    0  0.69178240588E+01 -0.88926458165E+02 -0.11009498673E+03  0.14177012151E+03  0.47000000000E+01 0. -1.
        -13    1    4    4    0    0  0.14022071008E+02  0.11196344709E+02 -0.61619252261E+02  0.64178725909E+02  0.00000000000E+00 0.  1.
         14    1    4    4    0    0 -0.35463571000E+02  0.21175539981E+02  0.34030951653E+01  0.41444534238E+02  0.00000000000E+00 0. -1.
         -5    1    5    5    0  502  0.51207044387E+02  0.70626641090E+02 -0.10221634121E+03  0.13446395144E+03  0.47000000000E+01 0.  1.
         13    1    6    6    0    0  0.11523006865E+02  0.19267034058E+02 -0.50854300990E+01  0.23018685625E+02  0.00000000000E+00 0. -1.
        -14    1    6    6    0    0 -0.48206375320E+02 -0.33339101673E+02 -0.91348218202E+02  0.10853500491E+03  0.00000000000E+00 0.  1.
</event>
<event>
12    1  0.1615162E-001  0.2251835E+03  0.7818608E-02  0.1130342E+00
         21   -1    0    0  501  502  0.00000000000E+00  0.00000000000E+00  0.40377620623E+03  0.40377620623E+03  0.00000000000E+00 0. -1.
         21   -1    0    0  502  503 -0.00000000000E+00 -0.00000000000E+00 -0.40389776359E+03  0.40389776359E+03  0.00000000000E+00 0.  1.
         -6    2    1    2    0  503  0.13286877313E+03  0.57409889028E+02 -0.33577623350E+03  0.40429356708E+03  0.17250392217E+03 0.  0.
        -24    2    3    3    0    0  0.11126639015E+02  0.64938213891E+02 -0.17558890228E+03  0.20289869630E+03  0.77431548057E+02 0.  0.
          6    2    1    2  501    0 -0.13286877313E+03 -0.57409889028E+02  0.33565467614E+03  0.40338040274E+03  0.17059214948E+03 0.  0.
         24    2    5    5    0    0 -0.12111694670E+03  0.64085532455E+01  0.15909435751E+03  0.21521415945E+03  0.79345670968E+02 0.  0.
          5    1    5    5  501    0 -0.11751826427E+02 -0.63818442274E+02  0.17656031863E+03  0.18816624329E+03  0.47000000000E+01 0. -1.
        -13    1    6    6    0    0 -0.90724101112E+01  0.27732140456E+02  0.20185468661E+02  0.35480042060E+02  0.00000000000E+00 0.  1.
         14    1    6    6    0    0 -0.11204453659E+03 -0.21323587210E+02  0.13890888885E+03  0.17973411739E+03  0.00000000000E+00 0. -1.
         -5    1    3    3    0  503  0.12174213412E+03 -0.75283248631E+01 -0.16018733122E+03  0.20139487078E+03  0.47000000000E+01 0.  1.
         11    1    4    4    0    0 -0.70861010876E+01 -0.16546945053E+02 -0.26819968260E+02  0.32300540501E+02  0.00000000000E+00 0. -1.
        -12    1    4    4    0    0  0.18212740102E+02  0.81485158944E+02 -0.14876893402E+03  0.17059815579E+03  0.00000000000E+00 0.  1.
</event>
<event>
12    1  0.1615162E-001  0.2762201E+03  0.7818608E-02  0.1097866E+00
         21   -1    0    0  501  502  0.00000000000E+00  0.00000000000E+00  0.77974292670E+03  0.77974292670E+03  0.00000000000E+00 0. -1.
         21   -1    0    0  502  503 -0.00000000000E+00 -0.00000000000E+00 -0.97927847348E+02  0.97927847348E+02  0.00000000000E+00 0. -1.
         -6    2    1    2    0  503  0.14745694798E+03 -0.15668807839E+03  0.31628539843E+03  0.41992142429E+03  0.17321329020E+03 0.  0.
        -24    2    3    3    0    0  0.10738403724E+03 -0.16147941149E+03  0.17667618666E+03  0.27451985258E+03  0.80868675870E+02 0.  0.
          6    2    1    2  501    0 -0.14745694798E+03  0.15668807839E+03  0.36552968092E+03  0.45774934975E+03  0.17212731958E+03 0.  0.
         24    2    5    5    0    0 -0.18263002329E+02  0.78576137426E+02  0.88679334179E+02  0.14237535684E+03  0.76804760903E+02 0.  0.
          5    1    5    5  501    0 -0.12919394566E+03  0.78111940966E+02  0.27685034674E+03  0.31537399292E+03  0.47000000000E+01 0. -1.
        -11    1    6    6    0    0 -0.39028198573E+02  0.79370382710E+02  0.59676919492E+02  0.10669673217E+03  0.00000000000E+00 0.  1.
         12    1    6    6    0    0  0.20765196244E+02 -0.79424528348E+00  0.29002414687E+02  0.35678624670E+02  0.00000000000E+00 0. -1.
         -5    1    3    3    0  503  0.40072910748E+02  0.47913330931E+01  0.13960921176E+03  0.14540157172E+03  0.47000000000E+01 0.  1.
         11    1    4    4    0    0  0.61871769818E+02 -0.51994509806E+02  0.11586631287E+03  0.14126764460E+03  0.00000000000E+00 0. -1.
        -12    1    4    4    0    0  0.45512267419E+02 -0.10948490168E+03  0.60809873790E+02  0.13325220798E+03  0.00000000000E+00 0.  1.
</event>
<event>
12    1  0.1615162E-001  0.2272124E+03  0.7818608E-02  0.1129977E+00
         21   -1    0    0  501  502  0.00000000000E+00  0.00000000000E+00  0.10354368974E+04  0.10354368974E+04  0.00000000000E+00 0.  1.
         21   -1    0    0  502  503 -0.00000000000E+00 -0.00000000000E+00 -0.15062274737E+03  0.15062274737E+03  0.00000000000E+00 0.  1.
         -6    2    1    2    0  503  0.23726639400E+02 -0.13508983280E+03 -0.48885435126E+02  0.22511198581E+03  0.17167819909E+03 0.  0.
        -24    2    3    3    0    0  0.12633350936E+02 -0.42763302972E+02  0.36474230754E+02  0.98796461355E+02  0.80262504509E+02 0.  0.
          6    2    1    2  501    0 -0.23726639400E+02  0.13508983280E+03  0.93369958518E+03  0.96094765898E+03  0.18114433911E+03 0.  0.
         24    2    5    5    0    0  0.21955002495E+02  0.13140390730E+03  0.85773432221E+03  0.87210392183E+03  0.84309394402E+02 0.  0.
          5    1    5    5  501    0 -0.45681641895E+02  0.36859254993E+01  0.75965262970E+02  0.88843737152E+02  0.47000000000E+01 0. -1.
        -13    1    6    6    0    0 -0.21501680550E+02  0.92708795875E+02  0.42834875008E+03  0.43879368136E+03  0.00000000000E+00 0.  1.
         14    1    6    6    0    0  0.43456683045E+02  0.38695111427E+02  0.42938557212E+03  0.43331024047E+03  0.00000000000E+00 0. -1.
         -5    1    3    3    0  503  0.11093288464E+02 -0.92326529829E+02 -0.85359665881E+02  0.12631552446E+03  0.47000000000E+01 0.  1.
         13    1    4    4    0    0 -0.71986587567E+01  0.80883938916E+00 -0.22036474137E+02  0.23196575209E+02  0.00000000000E+00 0. -1.
        -14    1    4    4    0    0  0.19832009692E+02 -0.43572142361E+02  0.58510704891E+02  0.75599886146E+02  0.00000000000E+00 0.  1.
</event>
<event>
12    1  0.1615162E-001  0.2783435E+03  0.7818608E-02  0.1096811E+00
         21   -1    0    0  501  502  0.00000000000E+00  0.00000000000E+00  0.12037387307E+04  0.12037387307E+04  0.00000000000E+00 0. -1.
         21   -1    0    0  502  503 -0.00000000000E+00 -0.00000000000E+00 -0.20439870827E+03  0.20439870827E+03  0.00000000000E+00 0.  1.
         -6    2    1    2    0  503  0.10905776094E+03  0.18923269817E+03 -0.83406644748E+02  0.29057149446E+03  0.17254714060E+03 0.  0.
        -24    2    3    3    0    0  0.97667690315E+02  0.59404096661E+02 -0.47357642341E+01  0.13826786050E+03  0.77638581592E+02 0.  0.
          6    2    1    2  501    0 -0.10905776094E+03 -0.18923269817E+03  0.10827466672E+04  0.11175659446E+04  0.17003142579E+03 0.  0.
         24    2    5    5    0    0 -0.63338425527E+02 -0.12358543653E+03  0.41062763996E+03  0.44068641509E+03  0.79399883337E+02 0.  0.
          5    1    5    5  501    0 -0.45719335413E+02 -0.65647261632E+02  0.67211902728E+03  0.67687952947E+03  0.47000000000E+01 0. -1.
        -13    1    6    6    0    0 -0.75188162844E+02 -0.63235354799E+02  0.26365436449E+03  0.28136381047E+03  0.00000000000E+00 0.  1.
         14    1    6    6    0    0  0.11849737317E+02 -0.60350081735E+02  0.14697327547E+03  0.15932260461E+03  0.00000000000E+00 0. -1.
         -5    1    3    3    0  503  0.11390070625E+02  0.12982860151E+03 -0.78670880514E+02  0.15230363396E+03  0.47000000000E+01 0.  1.
         11    1    4    4    0    0  0.22067127357E+02 -0.11890302776E+02  0.19268161096E+02  0.31616442588E+02  0.00000000000E+00 0. -1.
        -12    1    4    4    0    0  0.75600562958E+02  0.71294399436E+02 -0.24003925330E+02  0.10665141791E+03  0.00000000000E+00 0.  1.
</event>
<event>
12    1  0.1615162E-001  0.2009854E+03  0.7818608E-02  0.1149021E+00
         21   -1    0    0  503  502  0.00000000000E+00  0.00000000000E+00  0.16779693739E+03  0.16779693739E+03  0.00000000000E+00 0.  1.
         21   -1    0    0  501  503 -0.00000000000E+00 -0.00000000000E+00 -0.28703055835E+03  0.28703055835E+03  0.00000000000E+00 0. -1.
          6    2    1    2  501    0  0.95109546230E+02  0.42305548693E+02  0.32266242040E+02  0.20355896855E+03  0.17192893319E+03 0.  0.
         24    2    3    3    0    0  0.11907649322E+03 -0.91604583033E+01  0.17416422634E+02  0.14468816458E+03  0.79801052356E+02 0.  0.
         -6    2    1    2    0  502 -0.95109546230E+02 -0.42305548693E+02 -0.15149986301E+03  0.25126852719E+03  0.17131281046E+03 0.  0.
        -24    2    5    5    0    0 -0.37491213725E+02 -0.84291465926E+02 -0.64431674638E+02  0.13863794114E+03  0.80983922436E+02 0.  0.
          5    1    3    3  501    0 -0.23966946992E+02  0.51466006996E+02  0.14849819406E+02  0.58870803975E+02  0.47000000000E+01 0. -1.
        -11    1    4    4    0    0  0.20632341437E+02 -0.35940474404E+02  0.82563190011E+01  0.42256100352E+02  0.00000000000E+00 0.  1.
         12    1    4    4    0    0  0.98444151785E+02  0.26780016100E+02  0.91601036329E+01  0.10243206423E+03  0.00000000000E+00 0. -1.
         -5    1    5    5    0  502 -0.57618332505E+02  0.41985917233E+02 -0.87068188367E+02  0.11263058604E+03  0.47000000000E+01 0.  1.
         11    1    6    6    0    0 -0.35340883821E+02 -0.98736960275E+02 -0.44484865365E+02  0.11391605962E+03  0.00000000000E+00 0. -1.
        -12    1    6    6    0    0 -0.21503299039E+01  0.14445494349E+02 -0.19946809274E+02  0.24721881520E+02  0.00000000000E+00 0.  1.
</event>
<event>
12    1  0.1615162E-001  0.2160059E+03  0.7818608E-02  0.1139211E+00
         21   -1    0    0  503  502  0.00000000000E+00  0.00000000000E+00  0.20246638465E+03  0.20246638465E+03  0.00000000000E+00 0. -1.
         21   -1    0    0  501  503 -0.00000000000E+00 -0.00000000000E+00 -0.32426409210E+03  0.32426409210E+03  0.00000000000E+00 0. -1.
          6    2    1    2  501    0 -0.12478524735E+03 -0.35217112386E+02 -0.21043204587E+03  0.29324682724E+03  0.15779877312E+03 0.  0.
         24    2    3    3    0    0 -0.49022937957E+01 -0.98338928416E+01 -0.98968309802E+02  0.12752873877E+03  0.79675058428E+02 0.  0.
         -6    2    1    2    0  502  0.12478524735E+03  0.35217112386E+02  0.88634338420E+02  0.23348364951E+03  0.17276274391E+03 0.  0.
        -24    2    5    5    0    0  0.14158923747E+03 -0.50675864844E+01  0.96019809138E+02  0.18896549339E+03  0.80093453818E+02 0.  0.
          5    1    3    3  501    0 -0.11988295355E+03 -0.25383219544E+02 -0.11146373606E+03  0.16571808846E+03  0.47000000000E+01 0. -1.
        -11    1    4    4    0    0 -0.53902798864E+01 -0.36082923578E+02 -0.93969821101E+02  0.10080357022E+03  0.00000000000E+00 0.  1.
         12    1    4    4    0    0  0.48798609066E+00  0.26249030736E+02 -0.49984887010E+01  0.26725168555E+02  0.00000000000E+00 0. -1.
         -5    1    5    5    0  502 -0.16803990122E+02  0.40284698870E+02 -0.73854707183E+01  0.44518156125E+02  0.47000000000E+01 0.  1.
         13    1    6    6    0    0  0.12090859152E+03 -0.54629176242E+00  0.11011146830E+03  0.16353507694E+03  0.00000000000E+00 0. -1.
        -14    1    6    6    0    0  0.20680645945E+02 -0.45212947220E+01 -0.14091659163E+02  0.25430416446E+02  0.00000000000E+00 0.  1.
</event>
<event>
12    1  0.1615162E-001  0.2161774E+03  0.7818608E-02  0.1136807E+00
         21   -1    0    0  501  502  0.00000000000E+00  0.00000000000E+00  0.57742331947E+02  0.57742331947E+02  0.00000000000E+00 0.  1.
         21   -1    0    0  502  503 -0.00000000000E+00 -0.00000000000E+00 -0.83014567031E+03  0.83014567031E+03  0.00000000000E+00 0.  1.
         -6    2    1    2    0  503 -0.63098499790E+02 -0.11457316569E+03 -0.31435283897E+03  0.38138734662E+03  0.17184344567E+03 0.  0.
        -24    2    3    3    0    0 -0.15943846029E+02 -0.89487654793E+02 -0.91244233175E+02  0.15192627321E+03  0.80584339784E+02 0.  0.
          6    2    1    2  501    0  0.63098499790E+02  0.11457316569E+03 -0.45805049940E+03  0.50650065564E+03  0.17211688818E+03 0.  0.
         24    2    5    5    0    0  0.73626406678E+02  0.14416928271E+03 -0.34673651419E+03  0.39074375404E+03  0.79049612330E+02 0.  0.
          5    1    5    5  501    0 -0.10527906888E+02 -0.29596117023E+02 -0.11131398521E+03  0.11575690161E+03  0.47000000000E+01 0. -1.
        -13    1    6    6    0    0  0.59523889847E+01  0.98047035218E+02 -0.19246339567E+03  0.21608056535E+03  0.00000000000E+00 0.  1.
         14    1    6    6    0    0  0.67674017693E+02  0.46122247495E+02 -0.15427311852E+03  0.17466318869E+03  0.00000000000E+00 0. -1.
         -5    1    3    3    0  503 -0.47154653760E+02 -0.25085510897E+02 -0.22310860579E+03  0.22946107340E+03  0.47000000000E+01 0.  1.
         13    1    4    4    0    0  0.25782652188E+02 -0.58781700269E+02 -0.72503627514E+02  0.96833927128E+02  0.00000000000E+00 0. -1.
        -14    1    4    4    0    0 -0.41726498217E+02 -0.30705954523E+02 -0.18740605662E+02  0.55092346086E+02  0.00000000000E+00 0.  1.
</event>
<event>
12    1  0.1615162E-001  0.2622081E+03  0.7818608E-02  0.1105860E+00
         21   -1    0    0  503  502  0.00000000000E+00  0.00000000000E+00  0.20148859997E+04  0.20148859997E+04  0.00000000000E+00 0.  1.
         21   -1    0    0  501  503 -0.00000000000E+00 -0.00000000000E+00 -0.34253763704E+02  0.34253763704E+02  0.00000000000E+00 0.  1.
          6    2    1    2  501    0 -0.15227020916E+03  0.12609308471E+03  0.91922903991E+03  0.95582835266E+03  0.17187242163E+03 0.  0.
         24    2    3    3    0    0 -0.17403316916E+03  0.10801235310E+03  0.88145400843E+03  0.90839859104E+03  0.79199866361E+02 0.  0.
         -6    2    1    2    0  502  0.15227020916E+03 -0.12609308471E+03  0.10614031961E+04  0.10933114107E+04  0.17224231071E+03 0.  0.
        -24    2    5    5    0    0  0.18717423313E+02 -0.23325307944E+02  0.48527373035E+03  0.49302413465E+03  0.81778921848E+02 0.  0.
          5    1    3    3  501    0  0.21762960005E+02  0.18080731609E+02  0.37775031482E+02  0.47429761618E+02  0.47000000000E+01 0. -1.
        -11    1    4    4    0    0 -0.17235848975E+02  0.33408309245E+02  0.27561316795E+03  0.27816507323E+03  0.00000000000E+00 0.  1.
         12    1    4    4    0    0 -0.15679732019E+03  0.74604043856E+02  0.60584084048E+03  0.63023351781E+03  0.00000000000E+00 0. -1.
         -5    1    5    5    0  502  0.13355278585E+03 -0.10276777677E+03  0.57612946571E+03  0.60028727606E+03  0.47000000000E+01 0.  1.
         13    1    6    6    0    0 -0.86134718270E+01  0.15518306981E+02  0.27096844407E+02  0.32392108997E+02  0.00000000000E+00 0. -1.
        -14    1    6    6    0    0  0.27330895140E+02 -0.38843614925E+02  0.45817688594E+03  0.46063202566E+03  0.00000000000E+00 0.  1.
</event>
<event>
12    1  0.1615162E-001  0.3840487E+03  0.7818608E-02  0.1049499E+00
         21   -1    0    0  501  502  0.00000000000E+00  0.00000000000E+00  0.44244588392E+03  0.44244588392E+03  0.00000000000E+00 0. -1.
         21   -1    0    0  502  503 -0.00000000000E+00 -0.00000000000E+00 -0.37753236901E+03  0.37753236901E+03  0.00000000000E+00 0.  1.
         -6    2    1    2    0  503 -0.31762458818E+03 -0.12934978872E+03  0.17345216688E+03  0.42088672550E+03  0.17159031047E+03 0.  0.
        -24    2    3    3    0    0 -0.32713173519E+03 -0.12742771749E+03  0.18525995209E+03  0.40489941823E+03  0.79807854729E+02 0.  0.
          6    2    1    2  501    0  0.31762458818E+03  0.12934978872E+03 -0.10853865197E+03  0.39909152743E+03  0.17284866630E+03 0.  0.
         24    2    5    5    0    0  0.17606673054E+03  0.15681248562E+02 -0.91660500533E+02  0.21670148912E+03  0.85513115187E+02 0.  0.
          5    1    5    5  501    0  0.14155785764E+03  0.11366854016E+03 -0.16878151435E+02  0.18239003831E+03  0.47000000000E+01 0. -1.
        -11    1    6    6    0    0  0.45276365300E+02  0.36436917115E+02 -0.53231972072E+02  0.78811427054E+02  0.00000000000E+00 0.  1.
         12    1    6    6    0    0  0.13079036524E+03 -0.20755668552E+02 -0.38428528461E+02  0.13789006206E+03  0.00000000000E+00 0. -1.
         -5    1    3    3    0  503  0.95071470174E+01 -0.19220712287E+01 -0.11807785209E+02  0.15987307271E+02  0.47000000000E+01 0.  1.
         13    1    4    4    0    0 -0.14434408574E+03 -0.61316356982E+02  0.12751839543E+03  0.20212830553E+03  0.00000000000E+00 0. -1.
        -14    1    4    4    0    0 -0.18278764945E+03 -0.66111360508E+02  0.57741556663E+02  0.20277111270E+03  0.00000000000E+00 0.  1.
</event>
<event>
12    1  0.1615162E-001  0.1930314E+03  0.7818608E-02  0.1155783E+00
         21   -1    0    0  501  502  0.00000000000E+00  0.00000000000E+00  0.96666908709E+02  0.96666908709E+02  0.00000000000E+00 0. -1.
         21   -1    0    0  502  503 -0.00000000000E+00 -0.00000000000E+00 -0.47458987911E+03  0.47458987911E+03  0.00000000000E+00 0. -1.
         -6    2    1    2    0  503 -0.84238036351E+02  0.22183842216E+02 -0.65055076790E+02  0.20369897641E+03  0.17225835350E+03 0.  0.
        -24    2    3    3    0    0 -0.61669127834E+02  0.78797136743E+02 -0.57673523422E+02  0.14212789489E+03  0.82837389598E+02 0.  0.
          6    2    1    2  501    0  0.84238036351E+02 -0.22183842216E+02 -0.31286789361E+03  0.36755781142E+03  0.17211698421E+03 0.  0.
         24    2    5    5    0    0  0.62924742609E+02 -0.81374858373E+02 -0.20140510371E+03  0.23948019269E+03  0.78774082576E+02 0.  0.
          5    1    5    5  501    0  0.21313293742E+02  0.59191016157E+02 -0.11146278990E+03  0.12807761872E+03  0.47000000000E+01 0. -1.
        -13    1    6    6    0    0  0.70376805064E+02 -0.28255685995E+02 -0.12227016116E+03  0.14387936194E+03  0.00000000000E+00 0.  1.
         14    1    6    6    0    0 -0.74520624549E+01 -0.53119172378E+02 -0.79134942551E+02  0.95600830757E+02  0.00000000000E+00 0. -1.
         -5    1    3    3    0  503 -0.22568908517E+02 -0.56613294527E+02 -0.73815533680E+01  0.61571081516E+02  0.47000000000E+01 0.  1.
         11    1    4    4    0    0 -0.28176824693E+02  0.74101274272E+01  0.16828373889E+02  0.33645766539E+02  0.00000000000E+00 0. -1.
        -12    1    4    4    0    0 -0.33492303141E+02  0.71387009316E+02 -0.74501897310E+02  0.10848212835E+03  0.00000000000E+00 0.  1.
</event>
<event>
12    1  0.1615162E-001  0.1932396E+03  0.7818608E-02  0.1155628E+00
         21   -1    0    0  501  502  0.00000000000E+00  0.00000000000E+00  0.34990280269E+02  0.34990280269E+02  0.00000000000E+00 0. -1.
         21   -1    0    0  502  503 -0.00000000000E+00 -0.00000000000E+00 -0.10930528192E+04  0.10930528192E+04  0.00000000000E+00 0.  1.
         -6    2    1    2    0  503  0.84443545501E+02 -0.24390824833E+02 -0.61778625001E+03  0.64722632916E+03  0.17180350912E+03 0.  0.
        -24    2    3    3    0    0  0.50801880172E+02  0.53657860867E+02 -0.34172841829E+03  0.35834335036E+03  0.78559835922E+02 0.  0.
          6    2    1    2  501    0 -0.84443545501E+02  0.24390824833E+02 -0.44027628896E+03  0.48081677034E+03  0.17209279855E+03 0.  0.
         24    2    5    5    0    0 -0.31670591246E+02  0.72488531115E+02 -0.31677780199E+03  0.33808506281E+03  0.87725255046E+02 0.  0.
          5    1    5    5  501    0 -0.52772954255E+02 -0.48097706282E+02 -0.12349848697E+03  0.14273170753E+03  0.47000000000E+01 0. -1.
        -13    1    6    6    0    0 -0.17752410960E+02 -0.94723677245E+01 -0.15397793113E+03  0.15528707970E+03  0.00000000000E+00 0.  1.
         14    1    6    6    0    0 -0.13918180286E+02  0.81960898840E+02 -0.16279987086E+03  0.18279798312E+03  0.00000000000E+00 0. -1.
         -5    1    3    3    0  503  0.33641665329E+02 -0.78048685700E+02 -0.27605783172E+03  0.28888297880E+03  0.47000000000E+01 0.  1.
         11    1    4    4    0    0  0.28908630998E+02  0.25376107250E+01 -0.30172523631E+02  0.41863224872E+02  0.00000000000E+00 0. -1.
        -12    1    4    4    0    0  0.21893249174E+02  0.51120250142E+02 -0.31155589466E+03  0.31648012549E+03  0.00000000000E+00 0.  1.
</event>
<event>
12    1  0.1615162E-001  0.1832571E+03  0.7818608E-02  0.1165148E+00
         21   -1    0    0  501  502  0.00000000000E+00  0.00000000000E+00  0.29730475215E+02  0.29730475215E+02  0.00000000000E+00 0.  1.
         21   -1    0    0  502  503 -0.00000000000E+00 -0.00000000000E+00 -0.15107038325E+04  0.15107038325E+04  0.00000000000E+00 0.  1.
         -6    2    1    2    0  503 -0.25065734725E+02  0.47158029277E+02 -0.11304306400E+04  0.11448797949E+04  0.17327475915E+03 0.  0.
        -24    2    3    3    0    0 -0.32499268307E+02  0.77280284769E+02 -0.10688743322E+04  0.10757865483E+04  0.88294476582E+02 0.  0.
          6    2    1    2  501    0  0.25065734725E+02 -0.47158029277E+02 -0.35054271729E+03  0.39555451281E+03  0.17530261030E+03 0.  0.
         24    2    5    5    0    0 -0.29952796001E+01 -0.46419393780E-01 -0.32575487850E+03  0.33519350501E+03  0.78926998424E+02 0.  0.
          5    1    5    5  501    0  0.28061014325E+02 -0.47111609883E+02 -0.24787838790E+02  0.60361007800E+02  0.47000000000E+01 0. -1.
        -13    1    6    6    0    0  0.34255270385E+02 -0.16510312256E+02 -0.14453415898E+03  0.14945279212E+03  0.00000000000E+00 0.  1.
         14    1    6    6    0    0 -0.37250549985E+02  0.16463892862E+02 -0.18122071951E+03  0.18574071289E+03  0.00000000000E+00 0. -1.
         -5    1    3    3    0  503  0.74335335827E+01 -0.30122255492E+02 -0.61556307751E+02  0.69093246569E+02  0.47000000000E+01 0.  1.
         11    1    4    4    0    0  0.26296640324E+02  0.10663465292E+02 -0.40496060952E+03  0.40595359100E+03  0.00000000000E+00 0. -1.
        -12    1    4    4    0    0 -0.58795908632E+02  0.66616819477E+02 -0.66391372269E+03  0.66983295730E+03  0.00000000000E+00 0.  1.
</event>
<event>
12    1  0.1615162E-001  0.1876126E+03  0.7818608E-02  0.1160944E+00
         21   -1    0    0  501  502  0.00000000000E+00  0.00000000000E+00  0.68874992520E+02  0.68874992520E+02  0.00000000000E+00 0.  1.
         21   -1    0    0  502  503 -0.00000000000E+00 -0.00000000000E+00 -0.10471832157E+04  0.10471832157E+04  0.00000000000E+00 0.  1.
         -6    2    1    2    0  503 -0.69781878700E+02  0.14609292657E+02 -0.89066201512E+03  0.91020729242E+03  0.17353831850E+03 0.  0.
        -24    2    3    3    0    0  0.10512686468E+02  0.39531625529E+02 -0.61318649087E+03  0.62023643798E+03  0.83799167186E+02 0.  0.
          6    2    1    2  501    0  0.69781878700E+02 -0.14609292657E+02 -0.87646208076E+02  0.20585091581E+03  0.17207498285E+03 0.  0.
         24    2    5    5    0    0 -0.22900752216E+02 -0.31138472683E+02 -0.62009089229E+02  0.10816450054E+03  0.79752009982E+02 0.  0.
          5    1    5    5  501    0  0.92682630915E+02  0.16529180026E+02 -0.25637118847E+02  0.97686415271E+02  0.47000000000E+01 0. -1.
        -13    1    6    6    0    0 -0.11719867927E+02  0.25427260594E+02 -0.78990238792E+01  0.29091157829E+02  0.00000000000E+00 0.  1.
         14    1    6    6    0    0 -0.11180884288E+02 -0.56565733278E+02 -0.54110065350E+02  0.79073342707E+02  0.00000000000E+00 0. -1.
         -5    1    3    3    0  503 -0.80294565168E+02 -0.24922332872E+02 -0.27747552424E+03  0.28997085444E+03  0.47000000000E+01 0.  1.
         11    1    4    4    0    0  0.40785653314E+02  0.46527569650E+02 -0.43123114275E+03  0.43564731462E+03  0.00000000000E+00 0. -1.
        -12    1    4    4    0    0 -0.30272966846E+02 -0.69959441212E+01 -0.18195534812E+03  0.18458912337E+03  0.00000000000E+00 0.  1.
</event>
<event>
12    1  0.1615162E-001  0.2574534E+03  0.7818608E-02  0.1108701E+00
         21   -1    0    0  503  502  0.00000000000E+00  0.00000000000E+00  0.10471492585E+03  0.10471492585E+03  0.00000000000E+00 0. -1.
         21   -1    0    0  501  503 -0.00000000000E+00 -0.00000000000E+00 -0.63800295592E+03  0.63800295592E+03  0.00000000000E+00 0.  1.
          6    2    1    2  501    0  0.90711251839E+02  0.16852617007E+03 -0.30049808319E+03  0.39562504646E+03  0.17201883088E+03 0.  0.
         24    2    3    3    0    0  0.52628149161E+02  0.18909407007E+03 -0.25988267810E+03  0.33608462027E+03  0.82991422360E+02 0.  0.
         -6    2    1    2    0  502 -0.90711251839E+02 -0.16852617007E+03 -0.23278994688E+03  0.34709283530E+03  0.17219952306E+03 0.  0.
        -24    2    5    5    0    0 -0.76775436287E+01 -0.13120671992E+03 -0.19481719321E+03  0.24834387035E+03  0.80291912050E+02 0.  0.
          5    1    3    3  501    0  0.38083102678E+02 -0.20567900005E+02 -0.40615405087E+02  0.59540426187E+02  0.47000000000E+01 0. -1.
        -11    1    4    4    0    0  0.33935980413E+02  0.16492946616E+02 -0.31155459712E+02  0.48931898845E+02  0.00000000000E+00 0.  1.
         12    1    4    4    0    0  0.18692168748E+02  0.17260112346E+03 -0.22872721839E+03  0.28715272143E+03  0.00000000000E+00 0. -1.
         -5    1    5    5    0  502 -0.83033708210E+02 -0.37319450148E+02 -0.37972753667E+02  0.98748964954E+02  0.47000000000E+01 0.  1.
         11    1    6    6    0    0  0.32235510013E+02 -0.44696196464E+02 -0.98492151126E+02  0.11286089632E+03  0.00000000000E+00 0. -1.
        -12    1    6    6    0    0 -0.39913053641E+02 -0.86510523457E+02 -0.96325042085E+02  0.13548297403E+03  0.00000000000E+00 0.  1.
</event>
<event>
12    1  0.1615162E-001  0.2506590E+03  0.7818608E-02  0.1113073E+00
         21   -1    0    0  503  502  0.00000000000E+00  0.00000000000E+00  0.24658817551E+03  0.24658817551E+03  0.00000000000E+00 0. -1.
         21   -1    0    0  501  503 -0.00000000000E+00 -0.00000000000E+00 -0.62222274740E+03  0.62222274740E+03  0.00000000000E+00 0.  1.
          6    2    1    2  501    0  0.11569907776E+03  0.14010195833E+03 -0.52234684638E+03  0.57937566340E+03  0.17267048416E+03 0.  0.
         24    2    3    3    0    0  0.12374555786E+02  0.11846922945E+03 -0.34261863741E+03  0.37088525379E+03  0.77332094388E+02 0.  0.
         -6    2    1    2    0  502 -0.11569907776E+03 -0.14010195833E+03  0.14671227449E+03  0.28943525950E+03  0.17097790101E+03 0.  0.
        -24    2    5    5    0    0 -0.45678059704E+02 -0.14275903681E+03  0.13755010161E+03  0.21861126323E+03  0.80026409581E+02 0.  0.
          5    1    3    3  501    0  0.10332452198E+03  0.21632728879E+02 -0.17972820897E+03  0.20849040961E+03  0.47000000000E+01 0. -1.
        -13    1    4    4    0    0  0.29525770878E+02  0.11218576699E+03 -0.23896510526E+03  0.26563459676E+03  0.00000000000E+00 0.  1.
         14    1    4    4    0    0 -0.17151215092E+02  0.62834624592E+01 -0.10365353215E+03  0.10525065704E+03  0.00000000000E+00 0. -1.
         -5    1    5    5    0  502 -0.70021018057E+02  0.26570784791E+01  0.91621728786E+01  0.70823996270E+02  0.47000000000E+01 0.  1.
         11    1    6    6    0    0 -0.21488744207E+02  0.48384151019E+00  0.33953531685E+02  0.40185103510E+02  0.00000000000E+00 0. -1.
        -12    1    6    6    0    0 -0.24189315497E+02 -0.14324287832E+03  0.10359656993E+03  0.17842615972E+03  0.00000000000E+00 0.  1.
</event>
<event>
12    1  0.1615162E-001  0.2367367E+03  0.7818608E-02  0.1122550E+00
         21   -1    0    0  503  502  0.00000000000E+00  0.00000000000E+00  0.24270733818E+03  0.24270733818E+03  0.00000000000E+00 0.  1.
         21   -1    0    0  501  503 -0.00000000000E+00 -0.00000000000E+00 -0.27850807203E+03  0.27850807203E+03  0.00000000000E+00 0. -1.
          6    2    1    2  501    0  0.12100567012E+03  0.10387676356E+03 -0.12930931462E+03  0.26975016834E+03  0.17496142507E+03 0.  0.
         24    2    3    3    0    0  0.12244856985E+03  0.13790230959E+03 -0.11128372946E+03  0.23093224126E+03  0.83276241290E+02 0.  0.
         -6    2    1    2    0  502 -0.12100567012E+03 -0.10387676356E+03  0.93508580766E+02  0.25146524188E+03  0.17046453880E+03 0.  0.
        -24    2    5    5    0    0 -0.41620305134E+02 -0.20638122182E+02 -0.15324020403E+02  0.93043864944E+02  0.79146404314E+02 0.  0.
          5    1    3    3  501    0 -0.14428997283E+01 -0.34025546028E+02 -0.18025585164E+02  0.38817927078E+02  0.47000000000E+01 0. -1.
        -11    1    4    4    0    0  0.87143526547E+02  0.89849971942E+02 -0.27594655116E+02  0.12817361924E+03  0.00000000000E+00 0.  1.
         12    1    4    4    0    0  0.35305043299E+02  0.48052337644E+02 -0.83689074344E+02  0.10275862202E+03  0.00000000000E+00 0. -1.
         -5    1    5    5    0  502 -0.79385364984E+02 -0.83238641376E+02  0.10883260117E+03  0.15842137693E+03  0.47000000000E+01 0.  1.
         13    1    6    6    0    0 -0.49524216497E+01 -0.45213786155E+02 -0.17775115685E+02  0.48834083142E+02  0.00000000000E+00 0. -1.
        -14    1    6    6    0    0 -0.36667883484E+02  0.24575663973E+02  0.24510952825E+01  0.44209781802E+02  0.00000000000E+00 0.  1.
</event>
<event>
12    1  0.1615162E-001  0.1840451E+03  0.7818608E-02  0.1164392E+00
         21   -1    0    0  503  502  0.00000000000E+00  0.00000000000E+00  0.25364887241E+02  0.25364887241E+02  0.00000000000E+00 0. -1.
         21   -1    0    0  501  503 -0.00000000000E+00 -0.00000000000E+00 -0.15011099576E+04  0.15011099576E+04  0.00000000000E+00 0.  1.
          6    2    1    2  501    0  0.60996687984E+02  0.76483814821E+01 -0.47065326462E+03  0.50467146663E+03  0.17146340733E+03 0.  0.
         24    2    3    3    0    0  0.10219692040E+03  0.31556986215E+02 -0.24584732296E+03  0.27482612311E+03  0.60402299803E+02 0.  0.
         -6    2    1    2    0  502 -0.60996687984E+02 -0.76483814821E+01 -0.10050918058E+04  0.10218033782E+04  0.17347481681E+03 0.  0.
        -24    2    5    5    0    0 -0.91333480768E+02  0.16210309160E+02 -0.47811761935E+03  0.49339686686E+03  0.78990071907E+02 0.  0.
          5    1    3    3  501    0 -0.41200232418E+02 -0.23908604733E+02 -0.22480594166E+03  0.22984534352E+03  0.47000000000E+01 0. -1.
        -13    1    4    4    0    0  0.17730407421E+02  0.14170107869E+02 -0.12087481223E+03  0.12298731453E+03  0.00000000000E+00 0.  1.
         14    1    4    4    0    0  0.84466512981E+02  0.17386878347E+02 -0.12497251073E+03  0.15183880858E+03  0.00000000000E+00 0. -1.
         -5    1    5    5    0  502  0.30336792784E+02 -0.23858690642E+02 -0.52697418641E+03  0.52840651137E+03  0.47000000000E+01 0.  1.
         11    1    6    6    0    0 -0.24031220946E+02  0.39729175484E+02 -0.25412959150E+03  0.25833651743E+03  0.00000000000E+00 0. -1.
        -12    1    6    6    0    0 -0.67302259823E+02 -0.23518866324E+02 -0.22398802785E+03  0.23506034942E+03  0.00000000000E+00 0.  1.
</event>
<event>
12    1  0.1615162E-001  0.2190572E+03  0.7818608E-02  0.1136141E+00
         21   -1    0    0  503  502  0.00000000000E+00  0.00000000000E+00  0.92894254980E+03  0.92894254980E+03  0.00000000000E+00 0. -1.
         21   -1    0    0  501  503 -0.00000000000E+00 -0.00000000000E+00 -0.96742147836E+03  0.96742147836E+03  0.00000000000E+00 0.  1.
          6    2    1    2  501    0  0.86176432114E+02 -0.85428107230E+02 -0.94272496426E+03  0.96784111833E+03  0.18237799521E+03 0.  0.
         24    2    3    3    0    0 -0.25227799801E+02 -0.39726825401E+02 -0.52607123662E+03  0.53411086944E+03  0.79428032280E+02 0.  0.
         -6    2    1    2    0  502 -0.86176432114E+02  0.85428107230E+02  0.90424603570E+03  0.92852290983E+03  0.17253858131E+03 0.  0.
        -24    2    5    5    0    0 -0.63927099529E+02  0.38312366213E+02  0.83199868003E+03  0.83932259451E+03  0.81768591893E+02 0.  0.
          5    1    3    3  501    0  0.11140423191E+03 -0.45701281829E+02 -0.41665372764E+03  0.43373024889E+03  0.47000000000E+01 0. -1.
        -13    1    4    4    0    0  0.60090271151E+01 -0.49666331048E+02 -0.42310983989E+03  0.42605726078E+03  0.00000000000E+00 0.  1.
         14    1    4    4    0    0 -0.31236826916E+02  0.99395056471E+01 -0.10296139673E+03  0.10805360866E+03  0.00000000000E+00 0. -1.
         -5    1    5    5    0  502 -0.22249332585E+02  0.47115741017E+02  0.72247355673E+02  0.89200315324E+02  0.47000000000E+01 0.  1.
         13    1    6    6    0    0 -0.44438488701E+02  0.57618944377E+02  0.40803279717E+03  0.41447012630E+03  0.00000000000E+00 0. -1.
        -14    1    6    6    0    0 -0.19488610828E+02 -0.19306578163E+02  0.42396588286E+03  0.42485246821E+03  0.00000000000E+00 0.  1.
</event>
<event>
12    1  0.1615162E-001  0.1757170E+03  0.7818608E-02  0.1172051E+00
         21   -1    0    0  501  502  0.00000000000E+00  0.00000000000E+00  0.30756420806E+03  0.30756420806E+03  0.00000000000E+00 0. -1.
         21   -1    0    0  502  503 -0.00000000000E+00 -0.00000000000E+00 -0.11254889888E+03  0.11254889888E+03  0.00000000000E+00 0. -1.
         -6    2    1    2    0  503  0.30438133824E+02 -0.20933649637E+02  0.28261806086E+02  0.17797525053E+03  0.17178987875E+03 0.  0.
        -24    2    3    3    0    0 -0.36806859499E+02  0.42468624506E+01  0.53288765434E+02  0.10178872935E+03  0.78412193910E+02 0.  0.
          6    2    1    2  501    0 -0.30438133824E+02  0.20933649637E+02  0.16675350310E+03  0.24213785641E+03  0.17163715517E+03 0.  0.
         24    2    5    5    0    0  0.36056569307E+02  0.18259120745E+01  0.35485925379E+02  0.93679383633E+02  0.78823637779E+02 0.  0.
          5    1    5    5  501    0 -0.66494703130E+02  0.19107737563E+02  0.13126757772E+03  0.14845847278E+03  0.47000000000E+01 0. -1.
        -13    1    6    6    0    0  0.16751795186E+02 -0.37954747996E+02  0.24258324692E+02  0.48058837421E+02  0.00000000000E+00 0.  1.
         14    1    6    6    0    0  0.19304774121E+02  0.39780660070E+02  0.11227600687E+02  0.45620546212E+02  0.00000000000E+00 0. -1.
         -5    1    3    3    0  503  0.67244993322E+02 -0.25180512088E+02 -0.25026959348E+02  0.76186521184E+02  0.47000000000E+01 0.  1.
         13    1    4    4    0    0  0.16565668276E+02 -0.57854370263E+01 -0.85243703861E+01  0.19507883983E+02  0.00000000000E+00 0. -1.
        -14    1    4    4    0    0 -0.53372527775E+02  0.10032299477E+02  0.61813135820E+02  0.82280845364E+02  0.00000000000E+00 0.  1.
</event>
<event>
12    1  0.1615162E-001  0.2011332E+03  0.7818608E-02  0.1148839E+00
         21   -1    0    0  503  502  0.00000000000E+00  0.00000000000E+00  0.36807730752E+02  0.36807730752E+02  0.00000000000E+00 0.  1.
         21   -1    0    0  501  503 -0.00000000000E+00 -0.00000000000E+00 -0.16437108627E+04  0.16437108627E+04  0.00000000000E+00 0.  1.
          6    2    1    2  501    0  0.97625540266E+02 -0.37660075656E+02 -0.12880634243E+04  0.13036724911E+04  0.17177180073E+03 0.  0.
         24    2    3    3    0    0  0.50709747801E+02 -0.66991067757E+02 -0.11330586998E+04  0.11390214865E+04  0.80552143869E+02 0.  0.
         -6    2    1    2    0  502 -0.97625540266E+02  0.37660075656E+02 -0.31883970762E+03  0.37684610236E+03  0.17147943987E+03 0.  0.
        -24    2    5    5    0    0 -0.96392977769E+02  0.63718714403E+01 -0.32143667019E+03  0.34507653913E+03  0.80150346278E+02 0.  0.
          5    1    3    3  501    0  0.46915792465E+02  0.29330992100E+02 -0.15500472454E+03  0.16465100458E+03  0.47000000000E+01 0. -1.
        -11    1    4    4    0    0  0.55801939931E+02 -0.71544647634E+01 -0.56969280192E+03  0.57246391277E+03  0.00000000000E+00 0.  1.
         12    1    4    4    0    0 -0.50921921296E+01 -0.59836602993E+02 -0.56336589785E+03  0.56655757372E+03  0.00000000000E+00 0. -1.
         -5    1    5    5    0  502 -0.12325624978E+01  0.31288204216E+02  0.25969625669E+01  0.31769563232E+02  0.47000000000E+01 0.  1.
         11    1    6    6    0    0 -0.69153661100E+02  0.23861512927E+02 -0.11625155539E+03  0.13735364857E+03  0.00000000000E+00 0. -1.
        -12    1    6    6    0    0 -0.27239316668E+02 -0.17489641487E+02 -0.20518511479E+03  0.20772289057E+03  0.00000000000E+00 0.  1.
</event>
<event>
12    1  0.1615162E-001  0.1914657E+03  0.7818608E-02  0.1162616E+00
         21   -1    0    0  501  502  0.00000000000E+00  0.00000000000E+00  0.71450440648E+03  0.71450440648E+03  0.00000000000E+00 0. -1.
         21   -1    0    0  502  503 -0.00000000000E+00 -0.00000000000E+00 -0.12158375287E+03  0.12158375287E+03  0.00000000000E+00 0. -1.
         -6    2    1    2    0  503  0.55352823650E+02  0.48893688515E+02 -0.27269190952E+02  0.19339787500E+03  0.17664824204E+03 0.  0.
        -24    2    3    3    0    0  0.73125415882E+02  0.63793119658E+02  0.30744698863E+02  0.13074358948E+03  0.82047310240E+02 0.  0.
          6    2    1    2  501    0 -0.55352823650E+02 -0.48893688515E+02  0.62018984456E+03  0.64269028435E+03  0.15152831565E+03 0.  0.
         24    2    5    5    0    0  0.22143356883E+02 -0.30652576812E+02  0.27004861577E+03  0.28358115574E+03  0.77859542079E+02 0.  0.
          5    1    5    5  501    0 -0.77496180533E+02 -0.18241111703E+02  0.35014122878E+03  0.35910912861E+03  0.47000000000E+01 0. -1.
        -11    1    6    6    0    0  0.14940628057E+02  0.19199524795E+02  0.16828164687E+03  0.17003104655E+03  0.00000000000E+00 0.  1.
         12    1    6    6    0    0  0.72027288262E+01 -0.49852101607E+02  0.10176696890E+03  0.11355010919E+03  0.00000000000E+00 0. -1.
         -5    1    3    3    0  503 -0.17772592232E+02 -0.14899431143E+02 -0.58013889815E+02  0.62654285524E+02  0.47000000000E+01 0.  1.
         13    1    4    4    0    0  0.63175530080E+02  0.14789784466E+01  0.22619551587E+02  0.67119141026E+02  0.00000000000E+00 0. -1.
        -14    1    4    4    0    0  0.99498858016E+01  0.62314141212E+02  0.81251472760E+01  0.63624448451E+02  0.00000000000E+00 0.  1.
</event>
<event>
12    1  0.1615162E-001  0.2221021E+03  0.7818608E-02  0.1132533E+00
         21   -1    0    0  503  502  0.00000000000E+00  0.00000000000E+00  0.62593172885E+02  0.62593172885E+02  0.00000000000E+00 0. -1.
         21   -1    0    0  501  503 -0.00000000000E+00 -0.00000000000E+00 -0.88669256712E+03  0.88669256712E+03  0.00000000000E+00 0.  1.
          6    2    1    2  501    0 -0.51095367436E+01  0.13973515349E+03 -0.57441608991E+03  0.61585970390E+03  0.17256103285E+03 0.  0.
         24    2    3    3    0    0  0.26791946283E+02  0.29724809678E+02 -0.37368125323E+03  0.38469624437E+03  0.82171459308E+02 0.  0.
         -6    2    1    2    0  502  0.51095367436E+01 -0.13973515349E+03 -0.24968330433E+03  0.33342603610E+03  0.17111150927E+03 0.  0.
        -24    2    5    5    0    0 -0.46204895148E+02 -0.10321192750E+03 -0.97900855634E+02  0.16902677002E+03  0.78726597382E+02 0.  0.
          5    1    3    3  501    0 -0.31901483026E+02  0.11001034381E+03 -0.20073483668E+03  0.23116345953E+03  0.47000000000E+01 0. -1.
        -13    1    4    4    0    0  0.11836639271E+01  0.47309251542E+02 -0.31267816593E+03  0.31623915284E+03  0.00000000000E+00 0.  1.
         14    1    4    4    0    0  0.25608282355E+02 -0.17584441864E+02 -0.61003087301E+02  0.68457091532E+02  0.00000000000E+00 0. -1.
         -5    1    5    5    0  502  0.51314431892E+02 -0.36523225992E+02 -0.15178244869E+03  0.16439926608E+03  0.47000000000E+01 0.  1.
         13    1    6    6    0    0 -0.23899729146E+01 -0.23627382436E+01 -0.48273264486E+02  0.48390108149E+02  0.00000000000E+00 0. -1.
        -14    1    6    6    0    0 -0.43814922233E+02 -0.10084918926E+03 -0.49627591148E+02  0.12063666187E+03  0.00000000000E+00 0.  1.
</event>
<event>
12    1  0.1615162E-001  0.1788952E+03  0.7818608E-02  0.1169427E+00
         21   -1    0    0  501  502  0.00000000000E+00  0.00000000000E+00  0.22839242237E+03  0.22839242237E+03  0.00000000000E+00 0.  1.
         21   -1    0    0  502  503 -0.00000000000E+00 -0.00000000000E+00 -0.26037761093E+03  0.26037761093E+03  0.00000000000E+00 0.  1.
         -6    2    1    2    0  503  0.19948226043E+02  0.38154536425E+02 -0.18322154364E+03  0.25451395293E+03  0.17132868355E+03 0.  0.
        -24    2    3    3    0    0  0.61368241487E+02 -0.12294744102E+02 -0.10011783523E+03  0.14873558114E+03  0.90451480759E+02 0.  0.
          6    2    1    2  501    0 -0.19948226043E+02 -0.38154536425E+02  0.15123635509E+03  0.23425608037E+03  0.17363690771E+03 0.  0.
         24    2    5    5    0    0 -0.80880475791E+01 -0.62518401273E+02  0.17185355595E+03  0.19988427921E+03  0.80287691296E+02 0.  0.
          5    1    5    5  501    0 -0.11860178464E+02  0.24363864848E+02 -0.20617200863E+02  0.34371801159E+02  0.47000000000E+01 0. -1.
        -11    1    6    6    0    0 -0.70275667448E+01 -0.81861583576E+02  0.14662360570E+03  0.16807494551E+03  0.00000000000E+00 0.  1.
         12    1    6    6    0    0 -0.10604808343E+01  0.19343182302E+02  0.25229950251E+02  0.31809333707E+02  0.00000000000E+00 0. -1.
         -5    1    3    3    0  503 -0.41420015444E+02  0.50449280528E+02 -0.83103708413E+02  0.10577837178E+03  0.47000000000E+01 0.  1.
         13    1    4    4    0    0 -0.16722939394E+02 -0.17093436921E+02 -0.31186113792E+01  0.24115721525E+02  0.00000000000E+00 0. -1.
        -14    1    4    4    0    0  0.78091180881E+02  0.47986928185E+01 -0.96999223848E+02  0.12461985962E+03  0.00000000000E+00 0.  1.
</event>
<event>
12    1  0.1615162E-001  0.1772498E+03  0.7818608E-02  0.1171041E+00
         21   -1    0    0  501  502  0.00000000000E+00  0.00000000000E+00  0.31171900826E+03  0.31171900826E+03  0.00000000000E+00 0.  1.
         21   -1    0    0  502  503 -0.00000000000E+00 -0.00000000000E+00 -0.27993169103E+03  0.27993169103E+03  0.00000000000E+00 0.  1.
         -6    2    1    2    0  503 -0.30895715643E+02 -0.83770439091E+00 -0.22161866513E+03  0.28240630215E+03  0.17228824615E+03 0.  0.
        -24    2    3    3    0    0  0.25810709651E+02 -0.51880933084E+02 -0.11993760513E+03  0.15519719151E+03  0.79644931904E+02 0.  0.
          6    2    1    2  501    0  0.30895715643E+02  0.83770439091E+00  0.25340598236E+03  0.30924439715E+03  0.17453440428E+03 0.  0.
         24    2    5    5    0    0  0.62655641157E+02 -0.46396929374E+02  0.20805518820E+03  0.23631574690E+03  0.80496996673E+02 0.  0.
          5    1    5    5  501    0 -0.31759925513E+02  0.47234633765E+02  0.45350794158E+02  0.72928650243E+02  0.47000000000E+01 0. -1.
        -11    1    6    6    0    0  0.63432266189E+02 -0.25347563778E+02  0.20364372460E+03  0.21479506035E+03  0.00000000000E+00 0.  1.
         12    1    6    6    0    0 -0.77662503227E+00 -0.21049365596E+02  0.44114635987E+01  0.21520686549E+02  0.00000000000E+00 0. -1.
         -5    1    3    3    0  503 -0.56706425295E+02  0.51043228693E+02 -0.10168106001E+03  0.12720911064E+03  0.47000000000E+01 0.  1.
         11    1    4    4    0    0 -0.11298611417E+02 -0.18435152349E+02  0.36193363138E+01  0.21922888893E+02  0.00000000000E+00 0. -1.
        -12    1    4    4    0    0  0.37109321068E+02 -0.33445780735E+02 -0.12355694144E+03  0.13327430262E+03  0.00000000000E+00 0.  1.
</event>
<event>
12    1  0.1615162E-001  0.2598629E+03  0.7818608E-02  0.1109086E+00
         21   -1    0    0  503  502  0.00000000000E+00  0.00000000000E+00  0.54120737955E+02  0.54120737955E+02  0.00000000000E+00 0. -1.
         21   -1    0    0  501  503 -0.00000000000E+00 -0.00000000000E+00 -0.25494398960E+04  0.25494398960E+04  0.00000000000E+00 0. -1.
          6    2    1    2  501    0  0.12716845226E+03 -0.14788358344E+03 -0.22118159991E+04  0.22270291334E+04  0.17171889134E+03 0.  0.
         24    2    3    3    0    0  0.69343978321E+02 -0.68616972862E+02 -0.65969728645E+03  0.67180520949E+03  0.81270249526E+02 0.  0.
         -6    2    1    2    0  502 -0.12716845226E+03  0.14788358344E+03 -0.28350315892E+03  0.37653150053E+03  0.15284161826E+03 0.  0.
        -24    2    5    5    0    0 -0.25569780535E+02  0.56445925015E+02 -0.11620437723E+03  0.16044330597E+03  0.91644099727E+02 0.  0.
          5    1    3    3  501    0  0.57824473941E+02 -0.79266610576E+02 -0.15521187127E+04  0.15552239239E+04  0.47000000000E+01 0. -1.
        -11    1    4    4    0    0  0.76818485047E+01 -0.61834293218E+02 -0.39853317102E+03  0.40337473770E+03  0.00000000000E+00 0.  1.
         12    1    4    4    0    0  0.61662129816E+02 -0.67826796437E+01 -0.26116411543E+03  0.26843047179E+03  0.00000000000E+00 0. -1.
         -5    1    5    5    0  502 -0.10159867173E+03  0.91437658423E+02 -0.16729878169E+03  0.21608819456E+03  0.47000000000E+01 0.  1.
         13    1    6    6    0    0 -0.46538234445E+01  0.63840341283E+02 -0.12177215611E+03  0.13757072818E+03  0.00000000000E+00 0. -1.
        -14    1    6    6    0    0 -0.20915957091E+02 -0.73944162681E+01  0.55677788813E+01  0.22872577787E+02  0.00000000000E+00 0.  1.
</event>
<event>
12    1  0.1615162E-001  0.1820346E+03  0.7818608E-02  0.1166208E+00
         21   -1    0    0  503  502  0.00000000000E+00  0.00000000000E+00  0.13793078366E+02  0.13793078366E+02  0.00000000000E+00 0. -1.
         21   -1    0    0  501  503 -0.00000000000E+00 -0.00000000000E+00 -0.25685030770E+04  0.25685030770E+04  0.00000000000E+00 0. -1.
          6    2    1    2  501    0 -0.52664534970E+02 -0.31557353448E+02 -0.16296186515E+04  0.16397541165E+04  0.17136858994E+03 0.  0.
         24    2    3    3    0    0 -0.63932751724E+02 -0.34205676510E+02 -0.53190572577E+03  0.54197010153E+03  0.74501441541E+02 0.  0.
         -6    2    1    2    0  502  0.52664534970E+02  0.31557353448E+02 -0.92509134717E+03  0.94254203885E+03  0.16977065294E+03 0.  0.
        -24    2    5    5    0    0  0.90670298902E+02  0.60279642728E+01 -0.80330744139E+03  0.81235141895E+03  0.79715387618E+02 0.  0.
          5    1    3    3  501    0  0.11268216754E+02  0.26483230624E+01 -0.10977129257E+04  0.10977840150E+04  0.47000000000E+01 0. -1.
        -11    1    4    4    0    0  0.12472716738E+02 -0.23053522588E+02 -0.11222984192E+03  0.11525003681E+03  0.00000000000E+00 0.  1.
         12    1    4    4    0    0 -0.76405468462E+02 -0.11152153922E+02 -0.41967588385E+03  0.42672006472E+03  0.00000000000E+00 0. -1.
         -5    1    5    5    0  502 -0.38005763932E+02  0.25529389175E+02 -0.12178390578E+03  0.13019061991E+03  0.47000000000E+01 0.  1.
         11    1    6    6    0    0  0.56883141417E+02 -0.28078648977E+02 -0.29287708366E+03  0.29966829736E+03  0.00000000000E+00 0. -1.
        -12    1    6    6    0    0  0.33787157485E+02  0.34106613250E+02 -0.51043035773E+03  0.51268312159E+03  0.00000000000E+00 0.  1.
</event>
<event>
12    1  0.1615162E-001  0.1965317E+03  0.7818608E-02  0.1156742E+00
         21   -1    0    0  503  502  0.00000000000E+00  0.00000000000E+00  0.78822128553E+02  0.78822128553E+02  0.00000000000E+00 0.  1.
         21   -1    0    0  501  503 -0.00000000000E+00 -0.00000000000E+00 -0.48361127612E+03  0.48361127612E+03  0.00000000000E+00 0.  1.
          6    2    1    2  501    0 -0.63635284101E+00 -0.96442347318E+02 -0.27121623130E+03  0.32480675231E+03  0.15046478299E+03 0.  0.
         24    2    3    3    0    0 -0.17351053117E+02 -0.66741288968E+02 -0.26994163540E+03  0.29037931170E+03  0.81830308809E+02 0.  0.
         -6    2    1    2    0  502  0.63635284101E+00  0.96442347318E+02 -0.13357291626E+03  0.23762665236E+03  0.17124009651E+03 0.  0.
        -24    2    5    5    0    0  0.56973745782E+02  0.19207841125E+02 -0.89102642960E+02  0.13208629990E+03  0.76763016943E+02 0.  0.
          5    1    3    3  501    0  0.16714700276E+02 -0.29701058349E+02 -0.12745959007E+01  0.34427440612E+02  0.47000000000E+01 0. -1.
        -13    1    4    4    0    0  0.15136407647E+02 -0.32584258609E+02 -0.32966111713E+02  0.48760734890E+02  0.00000000000E+00 0.  1.
         14    1    4    4    0    0 -0.32487460764E+02 -0.34157030360E+02 -0.23697552369E+03  0.24161857681E+03  0.00000000000E+00 0. -1.
         -5    1    5    5    0  502 -0.56337392941E+02  0.77234506193E+02 -0.44470273305E+02  0.10554035246E+03  0.47000000000E+01 0.  1.
         13    1    6    6    0    0  0.48702739785E+02  0.32550438588E+02 -0.97902852049E+02  0.11408968557E+03  0.00000000000E+00 0. -1.
        -14    1    6    6    0    0  0.82710059973E+01 -0.13342597463E+02  0.88002090897E+01  0.17996614328E+02  0.00000000000E+00 0.  1.
</event>
<event>
12    1  0.1615162E-001  0.2024236E+03  0.7818608E-02  0.1147739E+00
         21   -1    0    0  501  502  0.00000000000E+00  0.00000000000E+00  0.90064007824E+02  0.90064007824E+02  0.00000000000E+00 0.  1.
         21   -1    0    0  502  503 -0.00000000000E+00 -0.00000000000E+00 -0.12765469663E+04  0.12765469663E+04  0.00000000000E+00 0. -1.
         -6    2    1    2    0  503 -0.10533394269E+03  0.18332213020E+02 -0.11415987698E+04  0.11594063440E+04  0.17188370989E+03 0.  0.
        -24    2    3    3    0    0 -0.14240567247E+03  0.93070741627E+01 -0.92779192158E+03  0.94217093106E+03  0.80760240215E+02 0.  0.
          6    2    1    2  501    0  0.10533394269E+03 -0.18332213020E+02 -0.44884188640E+02  0.20720463011E+03  0.17172029243E+03 0.  0.
         24    2    5    5    0    0  0.10705555591E+03 -0.41357291500E+02  0.16419179665E+02  0.14152882668E+03  0.81175745818E+02 0.  0.
          5    1    5    5  501    0 -0.17216132155E+01  0.23025078480E+02 -0.61303368305E+02  0.65675803433E+02  0.47000000000E+01 0. -1.
        -11    1    6    6    0    0  0.73409867473E+02 -0.46390623389E+02 -0.22629111794E+02  0.89739485632E+02  0.00000000000E+00 0.  1.
         12    1    6    6    0    0  0.33645688435E+02  0.50333318890E+01  0.39048291459E+02  0.51789341047E+02  0.00000000000E+00 0. -1.
         -5    1    3    3    0  503  0.37071729779E+02  0.90251388572E+01 -0.21380684824E+03  0.21723541294E+03  0.47000000000E+01 0.  1.
         11    1    4    4    0    0 -0.54910159571E+02  0.23806576489E+02 -0.58643059094E+03  0.58947664644E+03  0.00000000000E+00 0. -1.
        -12    1    4    4    0    0 -0.87495512901E+02 -0.14499502326E+02 -0.34136133064E+03  0.35269428461E+03  0.00000000000E+00 0.  1.
</event>
<event>
12    1  0.1615162E-001  0.1827100E+03  0.7818608E-02  0.1165396E+00
         21   -1    0    0  501  502  0.00000000000E+00  0.00000000000E+00  0.15656702428E+03  0.15656702428E+03  0.00000000000E+00 0. -1.
         21   -1    0    0  502  503 -0.00000000000E+00 -0.00000000000E+00 -0.25143646132E+03  0.25143646132E+03  0.00000000000E+00 0.  1.
         -6    2    1    2    0  503  0.55322540301E+02 -0.25841192784E+02 -0.12802078174E+03  0.22309701522E+03  0.17220513039E+03 0.  0.
        -24    2    3    3    0    0  0.11069512191E+02 -0.70639701966E+02 -0.39093321840E+02  0.11403088828E+03  0.79763739094E+02 0.  0.
          6    2    1    2  501    0 -0.55322540301E+02  0.25841192784E+02  0.33151344696E+02  0.18490647038E+03  0.17135647178E+03 0.  0.
         24    2    5    5    0    0 -0.87710992888E+02 -0.15510562215E+02 -0.67181100464E+01  0.11879563220E+03  0.78316495162E+02 0.  0.
          5    1    5    5  501    0  0.32388452587E+02  0.41351754999E+02  0.39869454743E+02  0.66110838174E+02  0.47000000000E+01 0. -1.
        -13    1    6    6    0    0 -0.63445591831E+02  0.15206877946E+02 -0.31516767969E+02  0.72456186229E+02  0.00000000000E+00 0.  1.
         14    1    6    6    0    0 -0.24265401057E+02 -0.30717440161E+02  0.24798657923E+02  0.46339445975E+02  0.00000000000E+00 0. -1.
         -5    1    3    3    0  503  0.44253028110E+02  0.44798509182E+02 -0.88927459899E+02  0.10906612694E+03  0.47000000000E+01 0.  1.
         13    1    4    4    0    0 -0.23894350842E+02 -0.12185362436E+02  0.11500143147E+02  0.29183494517E+02  0.00000000000E+00 0. -1.
        -14    1    4    4    0    0  0.34963863033E+02 -0.58454339531E+02 -0.50593464987E+02  0.84847393758E+02  0.00000000000E+00 0.  1.
</event>
<event>
12    1  0.1615162E-001  0.2161788E+03  0.7818608E-02  0.1136993E+00
         21   -1    0    0  503  502  0.00000000000E+00  0.00000000000E+00  0.30560362976E+03  0.30560362976E+03  0.00000000000E+00 0.  1.
         21   -1    0    0  501  503 -0.00000000000E+00 -0.00000000000E+00 -0.17808256103E+03  0.17808256103E+03  0.00000000000E+00 0.  1.
          6    2    1    2  501    0 -0.38702584410E+02  0.12427002512E+03  0.15633187682E+03  0.26678255894E+03  0.17260460267E+03 0.  0.
         24    2    3    3    0    0 -0.29289210146E+02  0.85738451678E+02  0.18217002373E+03  0.21921162661E+03  0.81601959345E+02 0.  0.
         -6    2    1    2    0  502  0.38702584410E+02 -0.12427002512E+03 -0.28810808090E+02  0.21690363185E+03  0.17110287450E+03 0.  0.
        -24    2    5    5    0    0  0.32072834299E+02 -0.15766725739E+03 -0.15259646984E+02  0.17995701256E+03  0.79145680803E+02 0.  0.
          5    1    3    3  501    0 -0.94133742639E+01  0.38531573446E+02 -0.25838146911E+02  0.47570932333E+02  0.47000000000E+01 0. -1.
        -11    1    4    4    0    0 -0.11544122323E+02  0.84018373285E+02  0.83752781533E+02  0.11919262655E+03  0.00000000000E+00 0.  1.
         12    1    4    4    0    0 -0.17745087823E+02  0.17200783925E+01  0.98417242195E+02  0.10001900006E+03  0.00000000000E+00 0. -1.
         -5    1    5    5    0  502  0.66297501104E+01  0.33397232268E+02 -0.13551161106E+02  0.36946619291E+02  0.47000000000E+01 0.  1.
         13    1    6    6    0    0  0.57049022520E+02 -0.87026964727E+02 -0.35313971829E+01  0.10411894317E+03  0.00000000000E+00 0. -1.
        -14    1    6    6    0    0 -0.24976188221E+02 -0.70640292665E+02 -0.11728249801E+02  0.75838069392E+02  0.00000000000E+00 0.  1.
</event>
<event>
12    1  0.1615162E-001  0.2436381E+03  0.7818608E-02  0.1117584E+00
         21   -1    0    0  501  502  0.00000000000E+00  0.00000000000E+00  0.68331819476E+03  0.68331819476E+03  0.00000000000E+00 0. -1.
         21   -1    0    0  502  503 -0.00000000000E+00 -0.00000000000E+00 -0.10394613366E+03  0.10394613366E+03  0.00000000000E+00 0.  1.
         -6    2    1    2    0  503 -0.13120787379E+03 -0.11182576334E+03  0.12878371037E+03  0.27558080745E+03  0.17215989627E+03 0.  0.
        -24    2    3    3    0    0 -0.81172326127E+02 -0.15798002619E+01  0.96355660224E+02  0.15015594212E+03  0.81675892394E+02 0.  0.
          6    2    1    2  501    0  0.13120787379E+03  0.11182576334E+03  0.45058835073E+03  0.51168352098E+03  0.17049825903E+03 0.  0.
         24    2    5    5    0    0  0.56040498061E+02  0.13194549282E+03  0.28414343325E+03  0.32788760578E+03  0.78883717368E+02 0.  0.
          5    1    5    5  501    0  0.75167375734E+02 -0.20119729475E+02  0.16644491748E+03  0.18379591520E+03  0.47000000000E+01 0. -1.
        -13    1    6    6    0    0  0.69151967082E+02  0.89411311315E+02  0.15914479309E+03  0.19520103051E+03  0.00000000000E+00 0.  1.
         14    1    6    6    0    0 -0.13111469022E+02  0.42534181503E+02  0.12499864016E+03  0.13268657527E+03  0.00000000000E+00 0. -1.
         -5    1    3    3    0  503 -0.50035547668E+02 -0.11024596308E+03  0.32428050145E+02  0.12542486533E+03  0.47000000000E+01 0.  1.
         11    1    4    4    0    0  0.14241223706E+02 -0.10812428079E+02  0.73019108583E+01  0.19314216417E+02  0.00000000000E+00 0. -1.
        -12    1    4    4    0    0 -0.95413549834E+02  0.92326278173E+01  0.89053749366E+02  0.13084172570E+03  0.00000000000E+00 0.  1.
</event>
<event>
12    1  0.1615162E-001  0.1908544E+03  0.7818608E-02  0.1159563E+00
         21   -1    0    0  501  502  0.00000000000E+00  0.00000000000E+00  0.37282392562E+02  0.37282392562E+02  0.00000000000E+00 0. -1.
         21   -1    0    0  502  503 -0.00000000000E+00 -0.00000000000E+00 -0.11427123045E+04  0.11427123045E+04  0.00000000000E+00 0. -1.
         -6    2    1    2    0  503  0.58191048761E+02  0.41909248149E+02 -0.79388425659E+03  0.81463721160E+03  0.16804460843E+03 0.  0.
        -24    2    3    3    0    0  0.96664408174E+02  0.11969386393E+02 -0.66399049994E+03  0.67581692229E+03  0.79736155084E+02 0.  0.
          6    2    1    2  501    0 -0.58191048761E+02 -0.41909248149E+02 -0.31154565540E+03  0.36535748551E+03  0.17686948178E+03 0.  0.
         24    2    5    5    0    0 -0.42333307045E+01  0.40209068319E+02 -0.11804994956E+03  0.14829175488E+03  0.80124676040E+02 0.  0.
          5    1    5    5  501    0 -0.53957718057E+02 -0.82118316468E+02 -0.19349570583E+03  0.21706573063E+03  0.47000000000E+01 0. -1.
        -11    1    6    6    0    0 -0.22459290844E+02  0.25394609219E+02 -0.67836030138E+01  0.34573446349E+02  0.00000000000E+00 0.  1.
         12    1    6    6    0    0  0.18225960139E+02  0.14814459101E+02 -0.11126634655E+03  0.11371830853E+03  0.00000000000E+00 0. -1.
         -5    1    3    3    0  503 -0.38473359412E+02  0.29939861755E+02 -0.12989375665E+03  0.13882028931E+03  0.47000000000E+01 0.  1.
         11    1    4    4    0    0  0.46047393946E+02  0.36374036091E+02 -0.19984363726E+03  0.20828084968E+03  0.00000000000E+00 0. -1.
        -12    1    4    4    0    0  0.50617014228E+02 -0.24404649698E+02 -0.46414686268E+03  0.46753607261E+03  0.00000000000E+00 0.  1.
</event>
<event>
12    1  0.1615162E-001  0.1831492E+03  0.7818608E-02  0.1164862E+00
         21   -1    0    0  501  502  0.00000000000E+00  0.00000000000E+00  0.35906573120E+03  0.35906573120E+03  0.00000000000E+00 0.  1.
         21   -1    0    0  502  503 -0.00000000000E+00 -0.00000000000E+00 -0.76169682859E+03  0.76169682859E+03  0.00000000000E+00 0.  1.
         -6    2    1    2    0  503 -0.36339890654E+02 -0.51587958286E+02 -0.72624926111E+03  0.74891268434E+03  0.17161093907E+03 0.  0.
        -24    2    3    3    0    0  0.49287191489E+01  0.18117301963E+02 -0.20065197343E+03  0.21708891628E+03  0.80708452009E+02 0.  0.
          6    2    1    2  501    0  0.36339890654E+02  0.51587958286E+02  0.32361816372E+03  0.37184987545E+03  0.17193518804E+03 0.  0.
         24    2    5    5    0    0  0.80155057819E+02  0.15327518138E+02  0.27247599832E+03  0.29521959765E+03  0.79067534872E+02 0.  0.
          5    1    5    5  501    0 -0.43815167164E+02  0.36260440148E+02  0.51142165408E+02  0.76630277802E+02  0.47000000000E+01 0. -1.
        -13    1    6    6    0    0  0.88766650571E+02  0.29315553701E+02  0.25313258582E+03  0.26984259476E+03  0.00000000000E+00 0.  1.
         14    1    6    6    0    0 -0.86115927520E+01 -0.13988035563E+02  0.19343412498E+02  0.25377002890E+02  0.00000000000E+00 0. -1.
         -5    1    3    3    0  503 -0.41268609803E+02 -0.69705260249E+02 -0.52559728768E+03  0.53182376807E+03  0.47000000000E+01 0.  1.
         11    1    4    4    0    0 -0.35647706502E+02  0.15455434124E+02 -0.67697106122E+02  0.78054644962E+02  0.00000000000E+00 0. -1.
        -12    1    4    4    0    0  0.40576425651E+02  0.26618678389E+01 -0.13295486731E+03  0.13903427131E+03  0.00000000000E+00 0.  1.
</event>
<event>
12    1  0.1615162E-001  0.1804108E+03  0.7818608E-02  0.1167930E+00
         21   -1    0    0  501  502  0.00000000000E+00  0.00000000000E+00  0.57718933551E+03  0.57718933551E+03  0.00000000000E+00 0.  1.
         21   -1    0    0  502  503 -0.00000000000E+00 -0.00000000000E+00 -0.70652233161E+02  0.70652233161E+02  0.00000000000E+00 0.  1.
         -6    2    1    2    0  503  0.18186026403E+00 -0.49513416482E+02  0.10314182215E+03  0.20594135743E+03  0.17123666587E+03 0.  0.
        -24    2    3    3    0    0 -0.36712097319E+02  0.24130584843E+02  0.42176309382E+02  0.10335731001E+03  0.83509456027E+02 0.  0.
          6    2    1    2  501    0 -0.18186026403E+00  0.49513416482E+02  0.40339528021E+03  0.44190021125E+03  0.17348323586E+03 0.  0.
         24    2    5    5    0    0  0.42163934101E+02  0.64972585747E+02  0.17179714835E+03  0.20590881968E+03  0.82975584381E+02 0.  0.
          5    1    5    5  501    0 -0.42345794365E+02 -0.15459169265E+02  0.23159813185E+03  0.23599139156E+03  0.47000000000E+01 0. -1.
        -11    1    6    6    0    0  0.52022250307E+02  0.79099196519E+02  0.15630460086E+03  0.18274059666E+03  0.00000000000E+00 0.  1.
         12    1    6    6    0    0 -0.98583162052E+01 -0.14126610772E+02  0.15492547496E+02  0.23168223027E+02  0.00000000000E+00 0. -1.
         -5    1    3    3    0  503  0.36893957583E+02 -0.73644001325E+02  0.60965512764E+02  0.10258404741E+03  0.47000000000E+01 0.  1.
         11    1    4    4    0    0 -0.22998370268E+02  0.26239430400E+01 -0.23448934019E+02  0.32949394815E+02  0.00000000000E+00 0. -1.
        -12    1    4    4    0    0 -0.13713727051E+02  0.21506641803E+02  0.65625243401E+02  0.70407915199E+02  0.00000000000E+00 0.  1.
</event>
<event>
12    1  0.1615162E-001  0.1910043E+03  0.7818608E-02  0.1157813E+00
         21   -1    0    0  501  502  0.00000000000E+00  0.00000000000E+00  0.28004604422E+03  0.28004604422E+03  0.00000000000E+00 0.  1.
         21   -1    0    0  502  503 -0.00000000000E+00 -0.00000000000E+00 -0.22860218979E+03  0.22860218979E+03  0.00000000000E+00 0.  1.
         -6    2    1    2    0  503  0.82724338537E+02  0.12575324096E+02 -0.14176923612E+03  0.23696100186E+03  0.17044220466E+03 0.  0.
        -24    2    3    3    0    0  0.99252938412E+02 -0.17219077244E+02 -0.48292428911E+02  0.13735726473E+03  0.79920066810E+02 0.  0.
          6    2    1    2  501    0 -0.82724338537E+02 -0.12575324096E+02  0.19321309055E+03  0.27168723215E+03  0.17170089921E+03 0.  0.
         24    2    5    5    0    0 -0.85232850849E+02  0.49528634314E+02  0.14726395129E+03  0.19424946564E+03  0.79551612604E+02 0.  0.
          5    1    5    5  501    0  0.25085123123E+01 -0.62103958410E+02  0.45949139255E+02  0.77437766513E+02  0.47000000000E+01 0. -1.
        -11    1    6    6    0    0 -0.70179845756E+02  0.23992757719E-01  0.57877427860E+02  0.90967070864E+02  0.00000000000E+00 0.  1.
         12    1    6    6    0    0 -0.15053005094E+02  0.49504641556E+02  0.89386523434E+02  0.10328239477E+03  0.00000000000E+00 0. -1.
         -5    1    3    3    0  503 -0.16528599875E+02  0.29794401340E+02 -0.93476807205E+02  0.99603737130E+02  0.47000000000E+01 0.  1.
         11    1    4    4    0    0  0.38133359429E+02 -0.20717485479E+02 -0.60970871904E+02  0.74838589823E+02  0.00000000000E+00 0. -1.
        -12    1    4    4    0    0  0.61119578983E+02  0.34984082354E+01  0.12678442993E+02  0.62518674905E+02  0.00000000000E+00 0.  1.
</event>
<event>
12    1  0.1615162E-001  0.1880763E+03  0.7818608E-02  0.1160455E+00
         21   -1    0    0  503  502  0.00000000000E+00  0.00000000000E+00  0.66182015098E+02  0.66182015098E+02  0.00000000000E+00 0.  1.
         21   -1    0    0  501  503 -0.00000000000E+00 -0.00000000000E+00 -0.67120986889E+03  0.67120986889E+03  0.00000000000E+00 0.  1.
          6    2    1    2  501    0  0.28329179645E+02  0.63996855360E+02 -0.47146230083E+03  0.50759177065E+03  0.17456965547E+03 0.  0.
         24    2    3    3    0    0  0.19476385833E+02  0.99057865972E+02 -0.23618934238E+03  0.26950963902E+03  0.81598098350E+02 0.  0.
         -6    2    1    2    0  502 -0.28329179645E+02 -0.63996855360E+02 -0.13356555296E+03  0.22980011333E+03  0.17340759855E+03 0.  0.
        -24    2    5    5    0    0 -0.37334766652E+02  0.28623452643E+02 -0.81801350833E+02  0.12321097377E+03  0.79223078812E+02 0.  0.
          5    1    3    3  501    0  0.88527938123E+01 -0.35061010611E+02 -0.23527295846E+03  0.23808213164E+03  0.47000000000E+01 0. -1.
        -13    1    4    4    0    0  0.48284791096E+02  0.40100286474E+02 -0.95631837384E+02  0.11438925801E+03  0.00000000000E+00 0.  1.
         14    1    4    4    0    0 -0.28808405263E+02  0.58957579498E+02 -0.14055750499E+03  0.15512038101E+03  0.00000000000E+00 0. -1.
         -5    1    5    5    0  502  0.90055870069E+01 -0.92620308003E+02 -0.51764202123E+02  0.10658913957E+03  0.47000000000E+01 0.  1.
         13    1    6    6    0    0 -0.38210998729E+02 -0.11536669050E+02 -0.71266465310E+02  0.81682827047E+02  0.00000000000E+00 0. -1.
        -14    1    6    6    0    0  0.87623207716E+00  0.40160121693E+02 -0.10534885523E+02  0.41528146721E+02  0.00000000000E+00 0.  1.
</event>
<event>
12    1  0.1615162E-001  0.1749993E+03  0.7818608E-02  0.1172743E+00
         21   -1    0    0  503  502  0.00000000000E+00  0.00000000000E+00  0.52837096293E+02  0.52837096293E+02  0.00000000000E+00 0.  1.
         21   -1    0    0  501  503 -0.00000000000E+00 -0.00000000000E+00 -0.58266623493E+03  0.58266623493E+03  0.00000000000E+00 0.  1.
          6    2    1    2  501    0  0.77438380261E+01 -0.35992106312E+02 -0.28843036789E+03  0.33734548008E+03  0.17103946055E+03 0.  0.
         24    2    3    3    0    0  0.66694933036E+02 -0.52349523166E+02 -0.14770504910E+03  0.18382511649E+03  0.69182405670E+02 0.  0.
         -6    2    1    2    0  502 -0.77438380261E+01  0.35992106312E+02 -0.24139877075E+03  0.29815785115E+03  0.17108284232E+03 0.  0.
        -24    2    5    5    0    0 -0.21724929139E+02  0.21985029449E+02 -0.25748535785E+03  0.27222452518E+03  0.82777826376E+02 0.  0.
          5    1    3    3  501    0 -0.58951095010E+02  0.16357416854E+02 -0.14072531879E+03  0.15352036359E+03  0.47000000000E+01 0. -1.
        -13    1    4    4    0    0  0.54387856868E+02 -0.18866825506E+02 -0.13358174123E+03  0.14545816467E+03  0.00000000000E+00 0.  1.
         14    1    4    4    0    0  0.12307076168E+02 -0.33482697660E+02 -0.14123307863E+02  0.38366951812E+02  0.00000000000E+00 0. -1.
         -5    1    5    5    0  502  0.13981091113E+02  0.14007076863E+02  0.16086587097E+02  0.25933325961E+02  0.47000000000E+01 0.  1.
         11    1    6    6    0    0  0.18351892637E+02  0.28523142287E+02 -0.19344134166E+03  0.19639224596E+03  0.00000000000E+00 0. -1.
        -12    1    6    6    0    0 -0.40076821776E+02 -0.65381128381E+01 -0.64044016189E+02  0.75832279226E+02  0.00000000000E+00 0.  1.
</event>
<event>
12    1  0.1615162E-001  0.2676361E+03  0.7818608E-02  0.1102669E+00
         21   -1    0    0  503  502  0.00000000000E+00  0.00000000000E+00  0.43718245622E+03  0.43718245622E+03  0.00000000000E+00 0.  1.
         21   -1    0    0  501  503 -0.00000000000E+00 -0.00000000000E+00 -0.24746426682E+03  0.24746426682E+03  0.00000000000E+00 0.  1.
          6    2    1    2  501    0 -0.20505966931E+03 -0.50139599414E+01 -0.10425564880E+03  0.28722517895E+03  0.17191409292E+03 0.  0.
         24    2    3    3    0    0 -0.59109246956E+02 -0.13196836750E+02  0.14099115927E+02  0.99080485721E+02  0.77136878371E+02 0.  0.
         -6    2    1    2    0  502  0.20505966931E+03  0.50139599414E+01  0.29397383819E+03  0.39742154409E+03  0.17160611409E+03 0.  0.
        -24    2    5    5    0    0  0.43460341757E+02 -0.37675136257E+02  0.87078764584E+02  0.13140582447E+03  0.79853379804E+02 0.  0.
          5    1    3    3  501    0 -0.14595042235E+03  0.81828768089E+01 -0.11835476472E+03  0.18814469323E+03  0.47000000000E+01 0. -1.
        -13    1    4    4    0    0 -0.17916744686E+02 -0.42171398770E+02 -0.29403381110E+01  0.45913856324E+02  0.00000000000E+00 0.  1.
         14    1    4    4    0    0 -0.41192502270E+02  0.28974562020E+02  0.17039454038E+02  0.53166629397E+02  0.00000000000E+00 0. -1.
         -5    1    5    5    0  502  0.16159932755E+03  0.42689096199E+02  0.20689507361E+03  0.26601571961E+03  0.47000000000E+01 0.  1.
         11    1    6    6    0    0  0.55325965667E+02 -0.53325114650E+02  0.57811668580E+02  0.96159863526E+02  0.00000000000E+00 0. -1.
        -12    1    6    6    0    0 -0.11865623910E+02  0.15649978393E+02  0.29267096004E+02  0.35245960946E+02  0.00000000000E+00 0.  1.
</event>
<event>
12    1  0.1615162E-001  0.2205178E+03  0.7818608E-02  0.1133698E+00
         21   -1    0    0  501  502  0.00000000000E+00  0.00000000000E+00  0.42220942751E+03  0.42220942751E+03  0.00000000000E+00 0. -1.
         21   -1    0    0  502  503 -0.00000000000E+00 -0.00000000000E+00 -0.12986153766E+03  0.12986153766E+03  0.00000000000E+00 0. -1.
         -6    2    1    2    0  503 -0.12245527230E+03  0.61567180341E+02  0.51275261176E+02  0.22535381151E+03  0.17137495892E+03 0.  0.
        -24    2    3    3    0    0 -0.11054125238E+03  0.72969617715E+02 -0.16678835968E+02  0.15526951393E+03  0.79287481988E+02 0.  0.
          6    2    1    2  501    0  0.12245527230E+03 -0.61567180341E+02  0.24107262867E+03  0.32671715365E+03  0.17274916725E+03 0.  0.
         24    2    5    5    0    0  0.10709097548E+03 -0.46862542623E+01  0.23090082451E+03  0.26674168393E+03  0.79658629048E+02 0.  0.
          5    1    5    5  501    0  0.15364296823E+02 -0.56880926079E+02  0.10171804169E+02  0.59975469723E+02  0.47000000000E+01 0. -1.
        -13    1    6    6    0    0  0.40536240431E+02  0.34341686553E+02  0.66335662340E+02  0.84987989279E+02  0.00000000000E+00 0.  1.
         14    1    6    6    0    0  0.66554735046E+02 -0.39027940815E+02  0.16456516217E+03  0.18175369465E+03  0.00000000000E+00 0. -1.
         -5    1    3    3    0  503 -0.11914019922E+02 -0.11402437374E+02  0.67954097144E+02  0.70084297581E+02  0.47000000000E+01 0.  1.
         13    1    4    4    0    0 -0.20581354056E+02  0.15224636406E+02  0.29294629807E+02  0.38904460207E+02  0.00000000000E+00 0. -1.
        -14    1    4    4    0    0 -0.89959898321E+02  0.57744981309E+02 -0.45973465775E+02  0.11636505372E+03  0.00000000000E+00 0.  1.
</event>
<event>
12    1  0.1615162E-001  0.1754900E+03  0.7818608E-02  0.1172366E+00
         21   -1    0    0  503  502  0.00000000000E+00  0.00000000000E+00  0.35438476105E+03  0.35438476105E+03  0.00000000000E+00 0. -1.
         21   -1    0    0  501  503 -0.00000000000E+00 -0.00000000000E+00 -0.20711220768E+03  0.20711220768E+03  0.00000000000E+00 0. -1.
          6    2    1    2  501    0 -0.41197083908E+01 -0.32077050377E+02 -0.14042682881E+03  0.22475857919E+03  0.17248424714E+03 0.  0.
         24    2    3    3    0    0  0.53923026245E+02 -0.19644283959E+02 -0.36871156322E+02  0.10530398519E+03  0.80223789961E+02 0.  0.
         -6    2    1    2    0  502  0.41197083908E+01  0.32077050377E+02  0.28769938219E+03  0.33673838954E+03  0.17197644990E+03 0.  0.
        -24    2    5    5    0    0  0.45313536557E+02  0.55005224458E+02  0.26028061404E+03  0.28199798862E+03  0.81841164635E+02 0.  0.
          5    1    3    3  501    0 -0.58042734635E+02 -0.12432766418E+02 -0.10355567249E+03  0.11945459401E+03  0.47000000000E+01 0. -1.
        -11    1    4    4    0    0 -0.26067626669E+01  0.25608254729E+02 -0.14354555641E+02  0.29472549762E+02  0.00000000000E+00 0.  1.
         12    1    4    4    0    0  0.56529788911E+02 -0.45252538688E+02 -0.22516600681E+02  0.75831435423E+02  0.00000000000E+00 0. -1.
         -5    1    5    5    0  502 -0.41193828167E+02 -0.22928174081E+02  0.27418768148E+02  0.54740400916E+02  0.47000000000E+01 0.  1.
         11    1    6    6    0    0  0.16375060513E+02 -0.21187556860E+02  0.72754165042E+02  0.77525632557E+02  0.00000000000E+00 0. -1.
        -12    1    6    6    0    0  0.28938476045E+02  0.76192781318E+02  0.18752644900E+03  0.20447235606E+03  0.00000000000E+00 0.  1.
</event>
<event>
12    1  0.1615162E-001  0.2178581E+03  0.7818608E-02  0.1136263E+00
         21   -1    0    0  503  502  0.00000000000E+00  0.00000000000E+00  0.12826139013E+03  0.12826139013E+03  0.00000000000E+00 0.  1.
         21   -1    0    0  501  503 -0.00000000000E+00 -0.00000000000E+00 -0.53835903722E+03  0.53835903722E+03  0.00000000000E+00 0.  1.
          6    2    1    2  501    0 -0.96161796757E+02 -0.90910877748E+02 -0.39647169102E+03  0.45238472819E+03  0.17306143901E+03 0.  0.
         24    2    3    3    0    0 -0.32027022431E+02 -0.75550300964E+02 -0.11080139893E+03  0.15916327198E+03  0.79513640354E+02 0.  0.
         -6    2    1    2    0  502  0.96161796757E+02  0.90910877748E+02 -0.13625956071E+02  0.21423569916E+03  0.16792673779E+03 0.  0.
        -24    2    5    5    0    0  0.15890475315E+02  0.68071564041E+02  0.39772983175E+02  0.11504569961E+03  0.82264073399E+02 0.  0.
          5    1    3    3  501    0 -0.64134774326E+02 -0.15360576784E+02 -0.28567029209E+03  0.29322145620E+03  0.47000000000E+01 0. -1.
        -11    1    4    4    0    0 -0.15339139927E+02 -0.51140230191E+02 -0.11730797793E+03  0.12888667132E+03  0.00000000000E+00 0.  1.
         12    1    4    4    0    0 -0.16687882505E+02 -0.24410070773E+02  0.65065789991E+01  0.30276600666E+02  0.00000000000E+00 0. -1.
         -5    1    5    5    0  502  0.80271321442E+02  0.22839313707E+02 -0.53398939246E+02  0.99189999543E+02  0.47000000000E+01 0.  1.
         11    1    6    6    0    0 -0.10040833128E+02  0.26218478597E+02 -0.22273673608E+02  0.35837738291E+02  0.00000000000E+00 0. -1.
        -12    1    6    6    0    0  0.25931308443E+02  0.41853085445E+02  0.62046656783E+02  0.79207961322E+02  0.00000000000E+00 0.  1.
</event>
<event>
12    1  0.1615162E-001  0.1803067E+03  0.7818608E-02  0.1167656E+00
         21   -1    0    0  501  502  0.00000000000E+00  0.00000000000E+00  0.25007476248E+03  0.25007476248E+03  0.00000000000E+00 0. -1.
         21   -1    0    0  502  503 -0.00000000000E+00 -0.00000000000E+00 -0.15607073905E+03  0.15607073905E+03  0.00000000000E+00 0. -1.
         -6    2    1    2    0  503  0.40877117728E+02 -0.37994570963E+02 -0.36765117693E+02  0.18341003008E+03  0.17080116826E+03 0.  0.
        -24    2    3    3    0    0 -0.62410940099E+01  0.27810242887E+02  0.19945508016E+02  0.84472754640E+02  0.76977023342E+02 0.  0.
          6    2    1    2  501    0 -0.40877117728E+02  0.37994570963E+02  0.13076914113E+03  0.22273547145E+03  0.17145260510E+03 0.  0.
         24    2    5    5    0    0 -0.92126346054E+02  0.12159952650E+02  0.92270496814E+02  0.15346681677E+03  0.80019317547E+02 0.  0.
          5    1    5    5  501    0  0.51249228327E+02  0.25834618312E+02  0.38498644316E+02  0.69268654683E+02  0.47000000000E+01 0. -1.
        -13    1    6    6    0    0 -0.87240915396E+02  0.13374862673E+02  0.33379908787E+02  0.94361446477E+02  0.00000000000E+00 0.  1.
         14    1    6    6    0    0 -0.48854306588E+01 -0.12149100224E+01  0.58890588027E+02  0.59105370291E+02  0.00000000000E+00 0. -1.
         -5    1    3    3    0  503  0.47118211737E+02 -0.65804813849E+02 -0.56710625709E+02  0.98937275439E+02  0.47000000000E+01 0.  1.
         11    1    4    4    0    0 -0.14741339377E+02 -0.16464883868E+02  0.30983432044E+02  0.38057490046E+02  0.00000000000E+00 0. -1.
        -12    1    4    4    0    0  0.85002453666E+01  0.44275126755E+02 -0.11037924028E+02  0.46415264594E+02  0.00000000000E+00 0.  1.
</event>
<event>
12    1  0.1615162E-001  0.3756026E+03  0.7818608E-02  0.1052577E+00
         21   -1    0    0  503  502  0.00000000000E+00  0.00000000000E+00  0.15866476662E+03  0.15866476662E+03  0.00000000000E+00 0. -1.
         21   -1    0    0  501  503 -0.00000000000E+00 -0.00000000000E+00 -0.12303234631E+04  0.12303234631E+04  0.00000000000E+00 0.  1.
          6    2    1    2  501    0 -0.17827651114E+03 -0.28256074107E+03 -0.90159579635E+03  0.97667923712E+03  0.17147671969E+03 0.  0.
         24    2    3    3    0    0 -0.55377923884E+02 -0.11966686779E+03 -0.54823548435E+03  0.56860562023E+03  0.73234768744E+02 0.  0.
         -6    2    1    2    0  502  0.17827651114E+03  0.28256074107E+03 -0.17006290011E+03  0.41230899260E+03  0.17162234285E+03 0.  0.
        -24    2    5    5    0    0  0.89102591309E+02  0.13780596475E+03 -0.17691792928E+02  0.18395624453E+03  0.81222808782E+02 0.  0.
          5    1    3    3  501    0 -0.12289858725E+03 -0.16289387329E+03 -0.35336031200E+03  0.40807361689E+03  0.47000000000E+01 0. -1.
        -11    1    4    4    0    0 -0.24872312196E+02 -0.11212940434E+03 -0.36340698798E+03  0.38112501118E+03  0.00000000000E+00 0.  1.
         12    1    4    4    0    0 -0.30505611688E+02 -0.75374634503E+01 -0.18482849637E+03  0.18748060905E+03  0.00000000000E+00 0. -1.
         -5    1    5    5    0  502  0.89173919826E+02  0.14475477632E+03 -0.15237110719E+03  0.22835274807E+03  0.47000000000E+01 0.  1.
         11    1    6    6    0    0  0.10385846791E+03  0.12500810471E+03 -0.95753592851E+01  0.16280446894E+03  0.00000000000E+00 0. -1.
        -12    1    6    6    0    0 -0.14755876599E+02  0.12797860037E+02 -0.81164336426E+01  0.21151775595E+02  0.00000000000E+00 0.  1.
</event>
<event>
12    1  0.1615162E-001  0.1772239E+03  0.7818608E-02  0.1170591E+00
         21   -1    0    0  503  502  0.00000000000E+00  0.00000000000E+00  0.69924277148E+02  0.69924277148E+02  0.00000000000E+00 0. -1.
         21   -1    0    0  501  503 -0.00000000000E+00 -0.00000000000E+00 -0.22811759097E+04  0.22811759097E+04  0.00000000000E+00 0. -1.
          6    2    1    2  501    0  0.37631661615E+02 -0.18996591037E+02 -0.21595002254E+04  0.21667601430E+04  0.17213739020E+03 0.  0.
         24    2    3    3    0    0 -0.43227177770E+00 -0.75040493188E+02 -0.12509982210E+04  0.12557235004E+04  0.78827013871E+02 0.  0.
         -6    2    1    2    0  502 -0.37631661615E+02  0.18996591037E+02 -0.51751407111E+02  0.18434004387E+03  0.17183140344E+03 0.  0.
        -24    2    5    5    0    0  0.24276609436E+02  0.21958729262E+02  0.20680709321E+02  0.88894196507E+02  0.80018415869E+02 0.  0.
          5    1    3    3  501    0  0.38063933393E+02  0.56043902150E+02 -0.90850200446E+03  0.91103664257E+03  0.47000000000E+01 0. -1.
        -13    1    4    4    0    0  0.25338039562E+01  0.67285478573E+01 -0.11737601518E+02  0.13764621613E+02  0.00000000000E+00 0.  1.
         14    1    4    4    0    0 -0.29660757339E+01 -0.81769041045E+02 -0.12392606194E+04  0.12419588788E+04  0.00000000000E+00 0. -1.
         -5    1    5    5    0  502 -0.61908271051E+02 -0.29621382245E+01 -0.72432116433E+02  0.95445847360E+02  0.47000000000E+01 0.  1.
         11    1    6    6    0    0  0.50237453841E+02 -0.30520282472E+01  0.13889566507E+02  0.52211461411E+02  0.00000000000E+00 0. -1.
        -12    1    6    6    0    0 -0.25960844406E+02  0.25010757509E+02  0.67911428141E+01  0.36682735096E+02  0.00000000000E+00 0.  1.
</event>
<event>
12    1  0.1615162E-001  0.2228469E+03  0.7818608E-02  0.1132039E+00
         21   -1    0    0  501  502  0.00000000000E+00  0.00000000000E+00  0.28597093097E+03  0.28597093097E+03  0.00000000000E+00 0. -1.
         21   -1    0    0  502  503 -0.00000000000E+00 -0.00000000000E+00 -0.18435325699E+03  0.18435325699E+03  0.00000000000E+00 0.  1.
         -6    2    1    2    0  503 -0.35572446014E+02 -0.13722834473E+03 -0.88413983765E+01  0.22160360580E+03  0.17009694373E+03 0.  0.
        -24    2    3    3    0    0 -0.44631950104E+02 -0.14091882498E+03  0.39515540682E+02  0.17204376506E+03  0.78660364462E+02 0.  0.
          6    2    1    2  501    0  0.35572446014E+02  0.13722834473E+03  0.11045907236E+03  0.24872058216E+03  0.17194098932E+03 0.  0.
         24    2    5    5    0    0  0.71214330241E+01  0.48599873244E+02 -0.12693506119E+02  0.94276049445E+02  0.79461851939E+02 0.  0.
          5    1    5    5  501    0  0.28451012990E+02  0.88628471483E+02  0.12315257848E+03  0.15444453271E+03  0.47000000000E+01 0. -1.
        -13    1    6    6    0    0 -0.25803891836E+02  0.48626045237E+02  0.76430604898E+01  0.55576519169E+02  0.00000000000E+00 0.  1.
         14    1    6    6    0    0  0.32925324860E+02 -0.26171992443E-01 -0.20336566609E+02  0.38699530276E+02  0.00000000000E+00 0. -1.
         -5    1    3    3    0  503  0.90595040901E+01  0.36904802552E+01 -0.48356939059E+02  0.49559840738E+02  0.47000000000E+01 0.  1.
         13    1    4    4    0    0 -0.44390868428E+02 -0.24253719672E+02  0.15777088050E+02  0.52987815817E+02  0.00000000000E+00 0. -1.
        -14    1    4    4    0    0 -0.24108167551E+00 -0.11666510531E+03  0.23738452632E+02  0.11905594925E+03  0.00000000000E+00 0.  1.
</event>
<event>
12    1  0.1615162E-001  0.2357645E+03  0.7818608E-02  0.1123513E+00
         21   -1    0    0  503  502  0.00000000000E+00  0.00000000000E+00  0.53516404657E+03  0.53516404657E+03  0.00000000000E+00 0. -1.
         21   -1    0    0  501  503 -0.00000000000E+00 -0.00000000000E+00 -0.11286429249E+03  0.11286429249E+03  0.00000000000E+00 0. -1.
          6    2    1    2  501    0 -0.14370125414E+03 -0.56998976086E+02  0.11113437483E+03  0.26064490749E+03  0.17800557524E+03 0.  0.
         24    2    3    3    0    0 -0.27882854754E+02 -0.17269083917E+01  0.10101914754E+03  0.13182988148E+03  0.79961326150E+02 0.  0.
         -6    2    1    2    0  502  0.14370125414E+03  0.56998976086E+02  0.31116537925E+03  0.38738343156E+03  0.17129826645E+03 0.  0.
        -24    2    5    5    0    0  0.17218070861E+03  0.53444957113E+02  0.24013816488E+03  0.31063276017E+03  0.79522409409E+02 0.  0.
          5    1    3    3  501    0 -0.11581839938E+03 -0.55272067694E+02  0.10115227291E+02  0.12881502601E+03  0.47000000000E+01 0. -1.
        -13    1    4    4    0    0 -0.30636970365E+02 -0.15118503763E+02  0.11019151656E+03  0.11536621443E+03  0.00000000000E+00 0.  1.
         14    1    4    4    0    0  0.27541156111E+01  0.13391595372E+02 -0.91723690208E+01  0.16463667054E+02  0.00000000000E+00 0. -1.
         -5    1    5    5    0  502 -0.28479454477E+02  0.35540189723E+01  0.71027214370E+02  0.76750671394E+02  0.47000000000E+01 0.  1.
         13    1    6    6    0    0  0.14666455629E+03  0.26900921298E+02  0.22689151215E+03  0.27150305694E+03  0.00000000000E+00 0. -1.
        -14    1    6    6    0    0  0.25516152324E+02  0.26544035815E+02  0.13246652732E+02  0.39129703236E+02  0.00000000000E+00 0.  1.
</event>
<event>
12    1  0.1615162E-001  0.2773932E+03  0.7818608E-02  0.1097247E+00
         21   -1    0    0  501  502  0.00000000000E+00  0.00000000000E+00  0.50304182591E+03  0.50304182591E+03  0.00000000000E+00 0.  1.
         21   -1    0    0  502  503 -0.00000000000E+00 -0.00000000000E+00 -0.15249598404E+03  0.15249598404E+03  0.00000000000E+00 0.  1.
         -6    2    1    2    0  503 -0.18603098436E+03  0.11234990948E+03  0.17031280238E+03  0.32473430537E+03  0.17092656063E+03 0.  0.
        -24    2    3    3    0    0 -0.19728438300E+03  0.87955829241E+02  0.91926267042E+02  0.24173882927E+03  0.57705002642E+02 0.  0.
          6    2    1    2  501    0  0.18603098436E+03 -0.11234990948E+03  0.18023303950E+03  0.33080350458E+03  0.17238613870E+03 0.  0.
         24    2    5    5    0    0  0.30728147315E+02 -0.32829291522E+02  0.10910714922E+03  0.14232676293E+03  0.79564791314E+02 0.  0.
          5    1    5    5  501    0  0.15530283704E+03 -0.79520617963E+02  0.71125890278E+02  0.18847674165E+03  0.47000000000E+01 0. -1.
        -13    1    6    6    0    0  0.21683009807E+02 -0.58594869684E+02  0.62915436084E+02  0.88667151557E+02  0.00000000000E+00 0.  1.
         14    1    6    6    0    0  0.90451375076E+01  0.25765578162E+02  0.46191713136E+02  0.53659611376E+02  0.00000000000E+00 0. -1.
         -5    1    3    3    0  503  0.11253398644E+02  0.24394080243E+02  0.78386535334E+02  0.82995476104E+02  0.47000000000E+01 0.  1.
         13    1    4    4    0    0 -0.12800197547E+03  0.75716847483E+02  0.39142700263E+02  0.15378458213E+03  0.00000000000E+00 0. -1.
        -14    1    4    4    0    0 -0.69282407537E+02  0.12238981758E+02  0.52783566779E+02  0.87954247143E+02  0.00000000000E+00 0.  1.
</event>
<event>
12    1  0.1615162E-001  0.1798443E+03  0.7818608E-02  0.1168137E+00
         21   -1    0    0  503  502  0.00000000000E+00  0.00000000000E+00  0.37232217372E+03  0.37232217372E+03  0.00000000000E+00 0. -1.
         21   -1    0    0  501  503 -0.00000000000E+00 -0.00000000000E+00 -0.10281280999E+03  0.10281280999E+03  0.00000000000E+00 0. -1.
          6    2    1    2  501    0  0.51223858606E+02  0.13862971180E+01  0.40383869409E+02  0.18432262088E+03  0.17238957668E+03 0.  0.
         24    2    3    3    0    0 -0.26667932558E+02  0.23490551735E+02 -0.11883243473E+02  0.87835988167E+02  0.79441580386E+02 0.  0.
         -6    2    1    2    0  502 -0.51223858606E+02 -0.13862971180E+01  0.22912549433E+03  0.29081236283E+03  0.17160283422E+03 0.  0.
        -24    2    5    5    0    0 -0.77808411404E+02 -0.17550691829E+02  0.79255743551E+02  0.13767497908E+03  0.79440237348E+02 0.  0.
          5    1    3    3  501    0  0.77891791165E+02 -0.22104254617E+02  0.52267112882E+02  0.96486632712E+02  0.47000000000E+01 0. -1.
        -11    1    4    4    0    0  0.15980406795E+02 -0.19792859725E+02  0.19610860815E+01  0.25514242219E+02  0.00000000000E+00 0.  1.
         12    1    4    4    0    0 -0.42648339353E+02  0.43283411460E+02 -0.13844329554E+02  0.62321745948E+02  0.00000000000E+00 0. -1.
         -5    1    5    5    0  502  0.26584552798E+02  0.16164394711E+02  0.14986975078E+03  0.15313738375E+03  0.47000000000E+01 0.  1.
         13    1    6    6    0    0 -0.80623150996E+02 -0.29292504358E+02  0.87904627043E+02  0.12282250097E+03  0.00000000000E+00 0. -1.
        -14    1    6    6    0    0  0.28147395920E+01  0.11741812529E+02 -0.86488834922E+01  0.14852478113E+02  0.00000000000E+00 0.  1.
</event>
<event>
12    1  0.1615162E-001  0.2086031E+03  0.7818608E-02  0.1144183E+00
         21   -1    0    0  501  502  0.00000000000E+00  0.00000000000E+00  0.28223872351E+03  0.28223872351E+03  0.00000000000E+00 0. -1.
         21   -1    0    0  502  503 -0.00000000000E+00 -0.00000000000E+00 -0.14940038854E+03  0.14940038854E+03  0.00000000000E+00 0.  1.
         -6    2    1    2    0  503  0.75561886196E+02  0.72027297233E+02  0.51098467031E+02  0.20759302657E+03  0.17200663114E+03 0.  0.
        -24    2    3    3    0    0  0.45034845604E+02  0.42935845334E+02  0.10059787778E+03  0.14239721040E+03  0.79280567492E+02 0.  0.
          6    2    1    2  501    0 -0.75561886196E+02 -0.72027297233E+02  0.81739867943E+02  0.22404608548E+03  0.18060374363E+03 0.  0.
         24    2    5    5    0    0 -0.46256676855E+02 -0.73742662445E+02  0.12439400487E+03  0.17205374787E+03  0.80938021299E+02 0.  0.
          5    1    5    5  501    0 -0.29305209341E+02  0.17153652120E+01 -0.42654136928E+02  0.51992337603E+02  0.47000000000E+01 0. -1.
        -13    1    6    6    0    0 -0.21597256523E+02  0.10053918821E+02  0.53762686593E+01  0.24421855738E+02  0.00000000000E+00 0.  1.
         14    1    6    6    0    0 -0.24659420332E+02 -0.83796581266E+02  0.11901773621E+03  0.14763189214E+03  0.00000000000E+00 0. -1.
         -5    1    3    3    0  503  0.30527040592E+02  0.29091451898E+02 -0.49499410754E+02  0.65195816168E+02  0.47000000000E+01 0.  1.
         13    1    4    4    0    0 -0.16617662032E+01  0.35076394074E+02  0.46787265900E+01  0.35426054969E+02  0.00000000000E+00 0. -1.
        -14    1    4    4    0    0  0.46696611808E+02  0.78594512600E+01  0.95919151195E+02  0.10697115543E+03  0.00000000000E+00 0.  1.
</event>
<event>
12    1  0.1615162E-001  0.2140949E+03  0.7818608E-02  0.1138489E+00
         21   -1    0    0  503  502  0.00000000000E+00  0.00000000000E+00  0.72303189871E+02  0.72303189871E+02  0.00000000000E+00 0.  1.
         21   -1    0    0  501  503 -0.00000000000E+00 -0.00000000000E+00 -0.84303168040E+03  0.84303168040E+03  0.00000000000E+00 0.  1.
          6    2    1    2  501    0  0.54107964101E+02  0.11145905536E+03 -0.61388824132E+03  0.64993803971E+03  0.17380992443E+03 0.  0.
         24    2    3    3    0    0  0.44199754448E+02  0.10787876362E+03 -0.62069685152E+03  0.63654258226E+03  0.79564009500E+02 0.  0.
         -6    2    1    2    0  502 -0.54107964101E+02 -0.11145905536E+03 -0.15684024921E+03  0.26539683056E+03  0.17460189317E+03 0.  0.
        -24    2    5    5    0    0 -0.80272583861E+02 -0.32020231269E+02 -0.75761310054E+02  0.14881639277E+03  0.94538667894E+02 0.  0.
          5    1    3    3  501    0  0.99082096527E+01  0.35802917444E+01  0.68086101997E+01  0.13395457452E+02  0.47000000000E+01 0. -1.
        -11    1    4    4    0    0  0.52736487795E+02  0.40100056975E+02 -0.40205678775E+03  0.40747860348E+03  0.00000000000E+00 0.  1.
         12    1    4    4    0    0 -0.85367333463E+01  0.67778706642E+02 -0.21864006377E+03  0.22906397878E+03  0.00000000000E+00 0. -1.
         -5    1    5    5    0  502  0.26164619760E+02 -0.79438824092E+02 -0.81078939158E+02  0.11658043779E+03  0.47000000000E+01 0.  1.
         13    1    6    6    0    0  0.14027815003E+00 -0.33212781259E+02 -0.57413723428E+02  0.66328305834E+02  0.00000000000E+00 0. -1.
        -14    1    6    6    0    0 -0.80412862011E+02  0.11925499904E+01 -0.18347586626E+02  0.82488086941E+02  0.00000000000E+00 0.  1.
</event>
<event>
12    1  0.1615162E-001  0.1797798E+03  0.7818608E-02  0.1168465E+00
         21   -1    0    0  501  502  0.00000000000E+00  0.00000000000E+00  0.81017267485E+02  0.81017267485E+02  0.00000000000E+00 0. -1.
         21   -1    0    0  502  503 -0.00000000000E+00 -0.00000000000E+00 -0.49016502816E+03  0.49016502816E+03  0.00000000000E+00 0. -1.
         -6    2    1    2    0  503 -0.33391322692E+02  0.41572666797E+02 -0.33134697104E+03  0.37697689726E+03  0.17169012434E+03 0.  0.
        -24    2    3    3    0    0  0.22995793042E+02  0.22918512407E+02 -0.76994285932E+02  0.11573972013E+03  0.80084318316E+02 0.  0.
          6    2    1    2  501    0  0.33391322692E+02 -0.41572666797E+02 -0.77800789644E+02  0.19420539839E+03  0.16976309033E+03 0.  0.
         24    2    5    5    0    0 -0.49335422249E+02 -0.21962126517E+02 -0.40946371249E+02  0.10142271804E+03  0.75456235829E+02 0.  0.
          5    1    5    5  501    0  0.82726744941E+02 -0.19610540280E+02 -0.36854418394E+02  0.92782680354E+02  0.47000000000E+01 0. -1.
        -13    1    6    6    0    0 -0.11113407123E+02 -0.27144016752E+02 -0.53370708611E+02  0.60899408872E+02  0.00000000000E+00 0.  1.
         14    1    6    6    0    0 -0.38222015126E+02  0.51818902349E+01  0.12424337361E+02  0.40523309164E+02  0.00000000000E+00 0. -1.
         -5    1    3    3    0  503 -0.56387115734E+02  0.18654154390E+02 -0.25435268510E+03  0.26123717713E+03  0.47000000000E+01 0.  1.
         13    1    4    4    0    0  0.45471383982E+01 -0.14336864740E+02 -0.72362943277E+02  0.73909523864E+02  0.00000000000E+00 0. -1.
        -14    1    4    4    0    0  0.18448654644E+02  0.37255377147E+02 -0.46313426556E+01  0.41830196262E+02  0.00000000000E+00 0.  1.
</event>
<event>
12    1  0.1615162E-001  0.2349175E+03  0.7818608E-02  0.1123266E+00
         21   -1    0    0  503  502  0.00000000000E+00  0.00000000000E+00  0.24391364640E+03  0.24391364640E+03  0.00000000000E+00 0. -1.
         21   -1    0    0  501  503 -0.00000000000E+00 -0.00000000000E+00 -0.38955193260E+03  0.38955193260E+03  0.00000000000E+00 0.  1.
          6    2    1    2  501    0  0.87058735837E+02  0.13369909733E+03 -0.27805311168E+03  0.36400519969E+03  0.17242847900E+03 0.  0.
         24    2    3    3    0    0  0.95531525845E+02  0.14935425873E+03 -0.18432519186E+03  0.26848616910E+03  0.81707280055E+02 0.  0.
         -6    2    1    2    0  502 -0.87058735837E+02 -0.13369909733E+03  0.13241482549E+03  0.26946037932E+03  0.17210618205E+03 0.  0.
        -24    2    5    5    0    0 -0.27258818707E+02 -0.22332272886E+02  0.11004219169E+03  0.14100328758E+03  0.80813795514E+02 0.  0.
          5    1    3    3  501    0 -0.84727900083E+01 -0.15655161403E+02 -0.93727919823E+02  0.95519030583E+02  0.47000000000E+01 0. -1.
        -13    1    4    4    0    0  0.28805242368E+02  0.23409289820E+02 -0.90582518860E+02  0.97892438732E+02  0.00000000000E+00 0.  1.
         14    1    4    4    0    0  0.66726283477E+02  0.12594496891E+03 -0.93742672999E+02  0.17059373037E+03  0.00000000000E+00 0. -1.
         -5    1    5    5    0  502 -0.59799917130E+02 -0.11136682444E+03  0.22372633792E+02  0.12845709174E+03  0.47000000000E+01 0.  1.
         11    1    6    6    0    0 -0.17200346553E+02 -0.51212509681E+02  0.88171164187E+02  0.10340564425E+03  0.00000000000E+00 0. -1.
        -12    1    6    6    0    0 -0.10058472155E+02  0.28880236794E+02  0.21871027507E+02  0.37597643325E+02  0.00000000000E+00 0.  1.
</event>
<event>
12    1  0.1615162E-001  0.3696546E+03  0.7818608E-02  0.1055731E+00
         21   -1    0    0  503  502  0.00000000000E+00  0.00000000000E+00  0.17794455685E+03  0.17794455685E+03  0.00000000000E+00 0. -1.
         21   -1    0    0  501  503 -0.00000000000E+00 -0.00000000000E+00 -0.90277635476E+03  0.90277635476E+03  0.00000000000E+00 0.  1.
          6    2    1    2  501    0 -0.20212492774E+03 -0.25720568363E+03 -0.58952058454E+03  0.69582975287E+03  0.17214899149E+03 0.  0.
         24    2    3    3    0    0 -0.12729275139E+03 -0.17417507225E+03 -0.50722464625E+03  0.55694617392E+03  0.79823546223E+02 0.  0.
         -6    2    1    2    0  502  0.20212492774E+03  0.25720568363E+03 -0.13531121337E+03  0.38489115874E+03  0.15107226587E+03 0.  0.
        -24    2    5    5    0    0  0.20449101920E+03  0.22076966684E+03 -0.80889343732E+02  0.31918718928E+03  0.69148775444E+02 0.  0.
          5    1    3    3  501    0 -0.74832176343E+02 -0.83030611374E+02 -0.82295938298E+02  0.13888357895E+03  0.47000000000E+01 0. -1.
        -13    1    4    4    0    0 -0.77607925565E+02 -0.13551524885E+03 -0.27403824976E+03  0.31541137442E+03  0.00000000000E+00 0.  1.
         14    1    4    4    0    0 -0.49684825829E+02 -0.38659823403E+02 -0.23318639649E+03  0.24153479950E+03  0.00000000000E+00 0. -1.
         -5    1    5    5    0  502 -0.23660914595E+01  0.36436016790E+02 -0.54421869636E+02  0.65703969461E+02  0.47000000000E+01 0.  1.
         13    1    6    6    0    0  0.49008841445E+02  0.55490624966E+02  0.10072784595E+02  0.74716376976E+02  0.00000000000E+00 0. -1.
        -14    1    6    6    0    0  0.15548217775E+03  0.16527904187E+03 -0.90962128327E+02  0.24447081231E+03  0.00000000000E+00 0.  1.
</event>
<event>
12    1  0.1615162E-001  0.2687445E+03  0.7818608E-02  0.1102016E+00
         21   -1    0    0  503  502  0.00000000000E+00  0.00000000000E+00  0.15275194128E+04  0.15275194128E+04  0.00000000000E+00 0.  1.
         21   -1    0    0  501  503 -0.00000000000E+00 -0.00000000000E+00 -0.62401068396E+02  0.62401068396E+02  0.00000000000E+00 0. -1.
          6    2    1    2  501    0  0.18016153745E+03 -0.10057618479E+03  0.11242197284E+04  0.11558951520E+04  0.17219133622E+03 0.  0.
         24    2    3    3    0    0  0.16467837687E+03 -0.10017103699E+03  0.68557769049E+03  0.71695458678E+03  0.82788316549E+02 0.  0.
         -6    2    1    2    0  502 -0.18016153745E+03  0.10057618479E+03  0.34089861606E+03  0.43402532921E+03  0.17202433387E+03 0.  0.
        -24    2    5    5    0    0 -0.11386647784E+03  0.73405635196E+02  0.10958400512E+03  0.19182332070E+03  0.80209538902E+02 0.  0.
          5    1    3    3  501    0  0.15483160581E+02 -0.40514779648E+00  0.43864203787E+03  0.43894056522E+03  0.47000000000E+01 0. -1.
        -13    1    4    4    0    0  0.21280318222E+02 -0.28302977584E+02  0.25545042845E+03  0.25789306287E+03  0.00000000000E+00 0.  1.
         14    1    4    4    0    0  0.14339805864E+03 -0.71868059405E+02  0.43012726204E+03  0.45906152391E+03  0.00000000000E+00 0. -1.
         -5    1    5    5    0  502 -0.66295059605E+02  0.27170549590E+02  0.23131461094E+03  0.24220200851E+03  0.47000000000E+01 0.  1.
         11    1    6    6    0    0 -0.11348110995E+03  0.35126516127E+02  0.88365257808E+02  0.14805489940E+03  0.00000000000E+00 0. -1.
        -12    1    6    6    0    0 -0.38536789394E+00  0.38279119068E+02  0.21218747314E+02  0.43768421295E+02  0.00000000000E+00 0.  1.
</event>
<event>
12    1  0.1615162E-001  0.2382785E+03  0.7818608E-02  0.1121018E+00
         21   -1    0    0  503  502  0.00000000000E+00  0.00000000000E+00  0.70884103569E+03  0.70884103569E+03  0.00000000000E+00 0. -1.
         21   -1    0    0  501  503 -0.00000000000E+00 -0.00000000000E+00 -0.13374347915E+03  0.13374347915E+03  0.00000000000E+00 0. -1.
          6    2    1    2  501    0 -0.50653864574E+02  0.15661502820E+03  0.20212976306E+02  0.23870243953E+03  0.17168636862E+03 0.  0.
         24    2    3    3    0    0 -0.37894416926E+02  0.12806506363E+03 -0.48809363878E+02  0.16278091803E+03  0.79237780868E+02 0.  0.
         -6    2    1    2    0  502  0.50653864574E+02 -0.15661502820E+03  0.55488458022E+03  0.60388207531E+03  0.17228633858E+03 0.  0.
        -24    2    5    5    0    0 -0.10111600785E+02 -0.15934088867E+03  0.41453186182E+03  0.45084336237E+03  0.77014996313E+02 0.  0.
          5    1    3    3  501    0 -0.12759447647E+02  0.28549964572E+02  0.69022340184E+02  0.75921521494E+02  0.47000000000E+01 0. -1.
        -11    1    4    4    0    0 -0.43908222375E+02  0.22474986787E+02 -0.19429849989E+02  0.53014866724E+02  0.00000000000E+00 0.  1.
         12    1    4    4    0    0  0.60138054487E+01  0.10559007684E+03 -0.29379513890E+02  0.10976605131E+03  0.00000000000E+00 0. -1.
         -5    1    5    5    0  502  0.60765465359E+02  0.27258604737E+01  0.14035271840E+03  0.15303871294E+03  0.47000000000E+01 0.  1.
         11    1    6    6    0    0 -0.14667522337E+02 -0.11135814424E+03  0.36432407889E+03  0.38124507467E+03  0.00000000000E+00 0. -1.
        -12    1    6    6    0    0  0.45559215521E+01 -0.47982744430E+02  0.50207782927E+02  0.69598287699E+02  0.00000000000E+00 0.  1.
</event>
<event>
12    1  0.1615162E-001  0.2074537E+03  0.7818608E-02  0.1147032E+00
         21   -1    0    0  501  502  0.00000000000E+00  0.00000000000E+00  0.63153286197E+03  0.63153286197E+03  0.00000000000E+00 0. -1.
         21   -1    0    0  502  503 -0.00000000000E+00 -0.00000000000E+00 -0.20442651446E+03  0.20442651446E+03  0.00000000000E+00 0. -1.
         -6    2    1    2    0  503 -0.83587145603E+02  0.15828163272E+01 -0.13146266266E+03  0.24560018693E+03  0.18986232888E+03 0.  0.
        -24    2    3    3    0    0  0.17496062428E+02  0.48693000564E+02 -0.65771450885E+02  0.11608335517E+03  0.80450861347E+02 0.  0.
          6    2    1    2  501    0  0.83587145603E+02 -0.15828163272E+01  0.55856901017E+03  0.59035918949E+03  0.17185842219E+03 0.  0.
         24    2    5    5    0    0  0.18388086942E+02 -0.29398076843E+02  0.13406627323E+03  0.15995325362E+03  0.80055662267E+02 0.  0.
          5    1    5    5  501    0  0.65199058661E+02  0.27815260516E+02  0.42450273694E+03  0.43040593588E+03  0.47000000000E+01 0. -1.
        -11    1    6    6    0    0  0.26120084061E+02  0.21777871867E+02  0.39274230253E+02  0.51951897524E+02  0.00000000000E+00 0.  1.
         12    1    6    6    0    0 -0.77319971194E+01 -0.51175948710E+02  0.94792042979E+02  0.10800135609E+03  0.00000000000E+00 0. -1.
         -5    1    3    3    0  503 -0.10108320803E+03 -0.47110184237E+02 -0.65691211778E+02  0.12951683176E+03  0.47000000000E+01 0.  1.
         13    1    4    4    0    0  0.32562197393E+02  0.28036898643E+02 -0.76985448096E+02  0.88165319730E+02  0.00000000000E+00 0. -1.
        -14    1    4    4    0    0 -0.15066134965E+02  0.20656101921E+02  0.11213997211E+02  0.27918035439E+02  0.00000000000E+00 0.  1.
</event>
<event>
12    1  0.1615162E-001  0.2269171E+03  0.7818608E-02  0.1129000E+00
         21   -1    0    0  503  502  0.00000000000E+00  0.00000000000E+00  0.60420747729E+03  0.60420747729E+03  0.00000000000E+00 0. -1.
         21   -1    0    0  501  503 -0.00000000000E+00 -0.00000000000E+00 -0.96544706106E+02  0.96544706106E+02  0.00000000000E+00 0.  1.
          6    2    1    2  501    0 -0.11846132582E+03  0.87961917469E+02  0.13242896925E+03  0.26273330007E+03  0.17239771005E+03 0.  0.
         24    2    3    3    0    0 -0.11767762072E+03  0.24198116840E+02  0.13618064205E+03  0.19868174651E+03  0.80595892275E+02 0.  0.
         -6    2    1    2    0  502  0.11846132582E+03 -0.87961917469E+02  0.37523380193E+03  0.43801888332E+03  0.17114248857E+03 0.  0.
        -24    2    5    5    0    0  0.96400205997E+02 -0.78862712102E+02  0.38420944954E+03  0.41209320500E+03  0.81802086837E+02 0.  0.
          5    1    3    3  501    0 -0.78370510462E+00  0.63763800629E+02 -0.37516727997E+01  0.64051553558E+02  0.47000000000E+01 0. -1.
        -11    1    4    4    0    0 -0.63348174157E+02  0.45309830008E+02  0.43535436614E+02  0.89226151467E+02  0.00000000000E+00 0.  1.
         12    1    4    4    0    0 -0.54329446563E+02 -0.21111713168E+02  0.92645205437E+02  0.10945559505E+03  0.00000000000E+00 0. -1.
         -5    1    5    5    0  502  0.22061119828E+02 -0.90992053669E+01 -0.89756476147E+01  0.25925678322E+02  0.47000000000E+01 0.  1.
         11    1    6    6    0    0  0.14981245012E+00 -0.28230613578E+01  0.12803176639E+03  0.12806297405E+03  0.00000000000E+00 0. -1.
        -12    1    6    6    0    0  0.96250393547E+02 -0.76039650744E+02  0.25617768316E+03  0.28403023094E+03  0.00000000000E+00 0.  1.
</event>
<event>
12    1  0.1615162E-001  0.2026144E+03  0.7818608E-02  0.1147638E+00
         21   -1    0    0  503  502  0.00000000000E+00  0.00000000000E+00  0.22461889814E+03  0.22461889814E+03  0.00000000000E+00 0. -1.
         21   -1    0    0  501  503 -0.00000000000E+00 -0.00000000000E+00 -0.26354945337E+03  0.26354945337E+03  0.00000000000E+00 0.  1.
          6    2    1    2  501    0 -0.86942886061E+02 -0.61698006927E+02 -0.15489846418E+03  0.25471350964E+03  0.17181306205E+03 0.  0.
         24    2    3    3    0    0 -0.10000582218E+03  0.69317176518E+01 -0.94593047966E+02  0.16230402625E+03  0.85706120160E+02 0.  0.
         -6    2    1    2    0  502  0.86942886061E+02  0.61698006927E+02  0.11596790895E+03  0.23345484187E+03  0.17229886183E+03 0.  0.
        -24    2    5    5    0    0  0.12620313218E+03  0.63309179709E+02  0.81280414327E+02  0.18083093964E+03  0.78473181213E+02 0.  0.
          5    1    3    3  501    0  0.13062936119E+02 -0.68629724579E+02 -0.60305416213E+02  0.92409483390E+02  0.47000000000E+01 0. -1.
        -11    1    4    4    0    0 -0.47842836594E+02  0.97534825037E+01 -0.98480511626E+02  0.10992032844E+03  0.00000000000E+00 0.  1.
         12    1    4    4    0    0 -0.52162985586E+02 -0.28217648519E+01  0.38874636604E+01  0.52383697806E+02  0.00000000000E+00 0. -1.
         -5    1    5    5    0  502 -0.39260246116E+02 -0.16111727817E+01  0.34687494622E+02  0.52623902231E+02  0.47000000000E+01 0.  1.
         11    1    6    6    0    0  0.64501783537E+02 -0.17981861690E+01  0.61152533748E+02  0.88900764546E+02  0.00000000000E+00 0. -1.
        -12    1    6    6    0    0  0.61701348640E+02  0.65107365878E+02  0.20127880579E+02  0.91930175090E+02  0.00000000000E+00 0.  1.
</event>
<event>
12    1  0.1615162E-001  0.3126588E+03  0.7818608E-02  0.1079269E+00
         21   -1    0    0  503  502  0.00000000000E+00  0.00000000000E+00  0.45535573633E+03  0.45535573633E+03  0.00000000000E+00 0.  1.
         21   -1    0    0  501  503 -0.00000000000E+00 -0.00000000000E+00 -0.29195828806E+03  0.29195828806E+03  0.00000000000E+00 0. -1.
          6    2    1    2  501    0 -0.52908303216E+02 -0.25424438620E+03 -0.11205438759E+03  0.33062561779E+03  0.17122387947E+03 0.  0.
         24    2    3    3    0    0 -0.43915181105E+02 -0.51575506894E+02 -0.14951418526E+02  0.10566644931E+03  0.79707449784E+02 0.  0.
         -6    2    1    2    0  502  0.52908303216E+02  0.25424438620E+03  0.27545183586E+03  0.41668840660E+03  0.17411495587E+03 0.  0.
        -24    2    5    5    0    0  0.37179363839E+01  0.20543982980E+03  0.26789271222E+03  0.34682563208E+03  0.79386189513E+02 0.  0.
          5    1    3    3  501    0 -0.89931221110E+01 -0.20266887930E+03 -0.97102969066E+02  0.22495916848E+03  0.47000000000E+01 0. -1.
        -13    1    4    4    0    0 -0.18548136034E+02 -0.29532935043E+01 -0.40892109406E+02  0.44999110042E+02  0.00000000000E+00 0.  1.
         14    1    4    4    0    0 -0.25367045071E+02 -0.48622213390E+02  0.25940690880E+02  0.60667339268E+02  0.00000000000E+00 0. -1.
         -5    1    5    5    0  502  0.49190366832E+02  0.48804556396E+02  0.75591236391E+01  0.69862774525E+02  0.47000000000E+01 0.  1.
         13    1    6    6    0    0 -0.26096680822E+02  0.21177199304E+02  0.39775015933E+02  0.52072664737E+02  0.00000000000E+00 0. -1.
        -14    1    6    6    0    0  0.29814617206E+02  0.18426263050E+03  0.22811769629E+03  0.29475296734E+03  0.00000000000E+00 0.  1.
</event>
<event>
12    1  0.1615162E-001  0.1900543E+03  0.7818608E-02  0.1158487E+00
         21   -1    0    0  503  502  0.00000000000E+00  0.00000000000E+00  0.28885375813E+03  0.28885375813E+03  0.00000000000E+00 0. -1.
         21   -1    0    0  501  503 -0.00000000000E+00 -0.00000000000E+00 -0.19774831962E+03  0.19774831962E+03  0.00000000000E+00 0. -1.
          6    2    1    2  501    0 -0.75713091905E+02 -0.15386014291E+01 -0.10216402381E+03  0.21577333735E+03  0.17431524825E+03 0.  0.
         24    2    3    3    0    0 -0.11934839783E+03 -0.88851787486E+01 -0.53485511640E+02  0.14982108441E+03  0.72544268646E+02 0.  0.
         -6    2    1    2    0  502  0.75713091905E+02  0.15386014291E+01  0.19326946231E+03  0.27082874040E+03  0.17395482742E+03 0.  0.
        -24    2    5    5    0    0  0.93692790801E+02 -0.10097108119E+02  0.20952751973E+03  0.24353270149E+03  0.80784308686E+02 0.  0.
          5    1    3    3  501    0  0.43635305921E+02  0.73465773195E+01 -0.48678512170E+02  0.65952252943E+02  0.47000000000E+01 0. -1.
        -13    1    4    4    0    0 -0.55932041202E+02  0.10612989665E+02  0.10221853404E+02  0.57840427641E+02  0.00000000000E+00 0.  1.
         14    1    4    4    0    0 -0.63416356623E+02 -0.19498168413E+02 -0.63707365043E+02  0.91980656769E+02  0.00000000000E+00 0. -1.
         -5    1    5    5    0  502 -0.17979698896E+02  0.11635709548E+02 -0.16258057418E+02  0.27296038909E+02  0.47000000000E+01 0.  1.
         13    1    6    6    0    0  0.92895207252E+02  0.13956976395E+02  0.12962494489E+03  0.16008417492E+03  0.00000000000E+00 0. -1.
        -14    1    6    6    0    0  0.79758354888E+00 -0.24054084514E+02  0.79902574838E+02  0.83448526573E+02  0.00000000000E+00 0.  1.
</event>
<event>
12    1  0.1615162E-001  0.2346856E+03  0.7818608E-02  0.1123527E+00
         21   -1    0    0  503  502  0.00000000000E+00  0.00000000000E+00  0.10756320670E+03  0.10756320670E+03  0.00000000000E+00 0. -1.
         21   -1    0    0  501  503 -0.00000000000E+00 -0.00000000000E+00 -0.60498887978E+03  0.60498887978E+03  0.00000000000E+00 0.  1.
          6    2    1    2  501    0 -0.13234405840E+03 -0.88572361369E+02 -0.38933820400E+03  0.45417204420E+03  0.17125418433E+03 0.  0.
         24    2    3    3    0    0 -0.12816489876E+03 -0.31102072676E+02 -0.18000369741E+03  0.23700085572E+03  0.79840430443E+02 0.  0.
         -6    2    1    2    0  502  0.13234405840E+03  0.88572361369E+02 -0.10808746909E+03  0.25838004227E+03  0.17238715810E+03 0.  0.
        -24    2    5    5    0    0 -0.41002082465E+01  0.38322599519E+02 -0.30317328401E+02  0.93418345966E+02  0.79513606509E+02 0.  0.
          5    1    3    3  501    0 -0.41791596399E+01 -0.57470288693E+02 -0.20933450659E+03  0.21717118848E+03  0.47000000000E+01 0. -1.
        -13    1    4    4    0    0 -0.44143375019E+02  0.12148307701E+02 -0.11075291265E+03  0.11984334190E+03  0.00000000000E+00 0.  1.
         14    1    4    4    0    0 -0.84021523738E+02 -0.43250380376E+02 -0.69250784755E+02  0.11715751381E+03  0.00000000000E+00 0. -1.
         -5    1    5    5    0  502  0.13644426664E+03  0.50249761850E+02 -0.77770140686E+02  0.16496169631E+03  0.47000000000E+01 0.  1.
         11    1    6    6    0    0 -0.35568944388E+02 -0.35780912167E+01 -0.91347460657E+01  0.36897101882E+02  0.00000000000E+00 0. -1.
        -12    1    6    6    0    0  0.31468736141E+02  0.41900690736E+02 -0.21182582335E+02  0.56521244084E+02  0.00000000000E+00 0.  1.
</event>
<event>
12    1  0.1615162E-001  0.1896852E+03  0.7818608E-02  0.1158962E+00
         21   -1    0    0  501  502  0.00000000000E+00  0.00000000000E+00  0.77520781962E+02  0.77520781962E+02  0.00000000000E+00 0. -1.
         21   -1    0    0  502  503 -0.00000000000E+00 -0.00000000000E+00 -0.52173424835E+03  0.52173424835E+03  0.00000000000E+00 0. -1.
         -6    2    1    2    0  503  0.79337424888E+02  0.66713786278E+01 -0.32415169783E+03  0.37557260207E+03  0.17216713375E+03 0.  0.
        -24    2    3    3    0    0  0.54436582172E+02 -0.49777210243E+02 -0.21505502634E+03  0.25015063876E+03  0.10433391383E+03 0.  0.
          6    2    1    2  501    0 -0.79337424888E+02 -0.66713786278E+01 -0.12006176857E+03  0.22368242824E+03  0.17111419039E+03 0.  0.
         24    2    5    5    0    0 -0.37605076945E+02 -0.27964184056E+02 -0.14247597769E+03  0.17153399396E+03  0.83236827562E+02 0.  0.
          5    1    5    5  501    0 -0.41732347943E+02  0.21292805428E+02  0.22414209125E+02  0.52148434286E+02  0.47000000000E+01 0. -1.
        -13    1    6    6    0    0  0.86647012812E+00  0.26883049288E+02 -0.56166990339E+02  0.62275034429E+02  0.00000000000E+00 0.  1.
         14    1    6    6    0    0 -0.38471547073E+02 -0.54847233344E+02 -0.86308987351E+02  0.10925895953E+03  0.00000000000E+00 0. -1.
         -5    1    3    3    0  503  0.24900842716E+02  0.56448588871E+02 -0.10909667148E+03  0.12542196332E+03  0.47000000000E+01 0.  1.
         13    1    4    4    0    0  0.73054934523E+02 -0.10105635830E+02 -0.83090384529E+02  0.11109977198E+03  0.00000000000E+00 0. -1.
        -14    1    4    4    0    0 -0.18618352352E+02 -0.39671574413E+02 -0.13196464181E+03  0.13905086677E+03  0.00000000000E+00 0.  1.
</event>
<event>
12    1  0.1615162E-001  0.1794639E+03  0.7818608E-02  0.1169035E+00
         21   -1    0    0  501  502  0.00000000000E+00  0.00000000000E+00  0.23392727560E+03  0.23392727560E+03  0.00000000000E+00 0. -1.
         21   -1    0    0  502  503 -0.00000000000E+00 -0.00000000000E+00 -0.22099334435E+03  0.22099334435E+03  0.00000000000E+00 0. -1.
         -6    2    1    2    0  503  0.47034137253E+02  0.24010224634E+02 -0.13500529396E+03  0.22457450028E+03  0.17151844165E+03 0.  0.
        -24    2    3    3    0    0 -0.11793051413E+02  0.37717824511E+02 -0.16405714701E+02  0.91396098801E+02  0.80761309139E+02 0.  0.
          6    2    1    2  501    0 -0.47034137253E+02 -0.24010224634E+02  0.14793922520E+03  0.23034611967E+03  0.16847735615E+03 0.  0.
         24    2    5    5    0    0 -0.54193793213E+02 -0.36795877737E+02  0.23890731401E+02  0.10534671001E+03  0.78969984312E+02 0.  0.
          5    1    5    5  501    0  0.71596559598E+01  0.12785653103E+02  0.12404849380E+03  0.12499940965E+03  0.47000000000E+01 0. -1.
        -11    1    6    6    0    0  0.83289700876E+01 -0.35404208420E+02 -0.45330771122E+01  0.36652128242E+02  0.00000000000E+00 0.  1.
         12    1    6    6    0    0 -0.62522763301E+02 -0.13916693176E+01  0.28423808513E+02  0.68694581771E+02  0.00000000000E+00 0. -1.
         -5    1    3    3    0  503  0.58827188666E+02 -0.13707599876E+02 -0.11859957926E+03  0.13317840148E+03  0.47000000000E+01 0.  1.
         11    1    4    4    0    0 -0.22726258950E+02 -0.19868269704E+02  0.11506493226E+01  0.30208524968E+02  0.00000000000E+00 0. -1.
        -12    1    4    4    0    0  0.10933207537E+02  0.57586094215E+02 -0.17556364023E+02  0.61187573834E+02  0.00000000000E+00 0.  1.
</event>
<event>
12    1  0.1615162E-001  0.1758937E+03  0.7818608E-02  0.1172006E+00
         21   -1    0    0  503  502  0.00000000000E+00  0.00000000000E+00  0.12910020772E+04  0.12910020772E+04  0.00000000000E+00 0. -1.
         21   -1    0    0  501  503 -0.00000000000E+00 -0.00000000000E+00 -0.38191775575E+02  0.38191775575E+02  0.00000000000E+00 0. -1.
          6    2    1    2  501    0 -0.28316206676E+02  0.20461253563E+02  0.22022240328E+03  0.28184483237E+03  0.17238947814E+03 0.  0.
         24    2    3    3    0    0 -0.77464471529E+01 -0.54755532238E+02  0.13709654840E+03  0.16777170836E+03  0.79332885923E+02 0.  0.
         -6    2    1    2    0  502  0.28316206676E+02 -0.20461253563E+02  0.10325878984E+04  0.10473490204E+04  0.17170245271E+03 0.  0.
        -24    2    5    5    0    0  0.81365379823E+02  0.89780703858E+01  0.63614035082E+03  0.64625846142E+03  0.79211881875E+02 0.  0.
          5    1    3    3  501    0 -0.20569759523E+02  0.75216785801E+02  0.83125854875E+02  0.11407312401E+03  0.47000000000E+01 0. -1.
        -13    1    4    4    0    0  0.51029540346E+01  0.19779069527E+02  0.37613048535E+02  0.42801789114E+02  0.00000000000E+00 0.  1.
         14    1    4    4    0    0 -0.12849401187E+02 -0.74534601765E+02  0.99483499868E+02  0.12496991925E+03  0.00000000000E+00 0. -1.
         -5    1    5    5    0  502 -0.53049173147E+02 -0.29439323949E+02  0.39644754754E+03  0.40109055900E+03  0.47000000000E+01 0.  1.
         13    1    6    6    0    0  0.20646177764E+02 -0.17939037486E+02  0.55934979040E+02  0.62263918945E+02  0.00000000000E+00 0. -1.
        -14    1    6    6    0    0  0.60719202058E+02  0.26917107871E+02  0.58020537178E+03  0.58399454248E+03  0.00000000000E+00 0.  1.
</event>
<event>
12    1  0.1615162E-001  0.1779705E+03  0.7818608E-02  0.1169941E+00
         21   -1    0    0  503  502  0.00000000000E+00  0.00000000000E+00  0.93750388531E+03  0.93750388531E+03  0.00000000000E+00 0.  1.
         21   -1    0    0  501  503 -0.00000000000E+00 -0.00000000000E+00 -0.12465996317E+03  0.12465996317E+03  0.00000000000E+00 0.  1.
          6    2    1    2  501    0 -0.22077684740E+02  0.40452740584E+02 -0.47525129156E+02  0.18358066845E+03  0.17122901490E+03 0.  0.
         24    2    3    3    0    0 -0.12834514544E+02  0.52587635166E+01  0.41583262156E+02  0.87214452278E+02  0.75397703130E+02 0.  0.
         -6    2    1    2    0  502  0.22077684740E+02 -0.40452740584E+02  0.86036905129E+03  0.87858318003E+03  0.17190012053E+03 0.  0.
        -24    2    5    5    0    0 -0.43925504119E+02  0.14890564859E+02  0.39098519557E+03  0.40133838288E+03  0.77793930268E+02 0.  0.
          5    1    3    3  501    0 -0.92431701961E+01  0.35193977068E+02 -0.89108391311E+02  0.96366216171E+02  0.47000000000E+01 0. -1.
        -13    1    4    4    0    0 -0.20572267604E+01 -0.14929847158E+02 -0.17947738228E+02  0.23436164909E+02  0.00000000000E+00 0.  1.
         14    1    4    4    0    0 -0.10777287783E+02  0.20188610675E+02  0.59531000384E+02  0.63778287369E+02  0.00000000000E+00 0. -1.
         -5    1    5    5    0  502  0.66003188858E+02 -0.55343305444E+02  0.46938385572E+03  0.47724479715E+03  0.47000000000E+01 0.  1.
         13    1    6    6    0    0 -0.26109674619E+02  0.25810179749E+02  0.64746040180E+02  0.74430707416E+02  0.00000000000E+00 0. -1.
        -14    1    6    6    0    0 -0.17815829499E+02 -0.10919614889E+02  0.32623915539E+03  0.32690767547E+03  0.00000000000E+00 0.  1.
</event>
<event>
12    1  0.1615162E-001  0.3901897E+03  0.7818608E-02  0.1047345E+00
         21   -1    0    0  503  502  0.00000000000E+00  0.00000000000E+00  0.20550123724E+03  0.20550123724E+03  0.00000000000E+00 0. -1.
         21   -1    0    0  501  503 -0.00000000000E+00 -0.00000000000E+00 -0.74360656794E+03  0.74360656794E+03  0.00000000000E+00 0.  1.
          6    2    1    2  501    0 -0.28234781837E+03  0.20724635245E+03 -0.30822325901E+03  0.49623499294E+03  0.16904511139E+03 0.  0.
         24    2    3    3    0    0 -0.56945825677E+02  0.30349815205E+02 -0.79060736850E+02  0.12930721427E+03  0.79409175830E+02 0.  0.
         -6    2    1    2    0  502  0.28234781837E+03 -0.20724635245E+03 -0.22988207169E+03  0.45287281224E+03  0.17197870810E+03 0.  0.
        -24    2    5    5    0    0  0.47628008387E+02 -0.81004449118E+02 -0.84453615214E+02  0.14922509974E+03  0.79407614932E+02 0.  0.
          5    1    3    3  501    0 -0.22540199269E+03  0.17689653724E+03 -0.22916252216E+03  0.36692777867E+03  0.47000000000E+01 0.  1.
        -13    1    4    4    0    0 -0.49333943838E+02 -0.17694212711E+02 -0.51105762602E+02  0.73203293295E+02  0.00000000000E+00 0.  1.
         14    1    4    4    0    0 -0.76118818398E+01  0.48044027917E+02 -0.27954974248E+02  0.56103920976E+02  0.00000000000E+00 0. -1.
         -5    1    5    5    0  502  0.23471980998E+03 -0.12624190333E+03 -0.14542845647E+03  0.30364771250E+03  0.47000000000E+01 0.  1.
         11    1    6    6    0    0  0.48179406920E+02 -0.16512274273E+02 -0.12194629784E+02  0.52370024331E+02  0.00000000000E+00 0. -1.
        -12    1    6    6    0    0 -0.55139853320E+00 -0.64492174845E+02 -0.72258985430E+02  0.96855075406E+02  0.00000000000E+00 0.  1.
</event>
<event>
12    1  0.1615162E-001  0.1729455E+03  0.7818608E-02  0.1175456E+00
         21   -1    0    0  503  502  0.00000000000E+00  0.00000000000E+00  0.21052333474E+03  0.21052333474E+03  0.00000000000E+00 0.  1.
         21   -1    0    0  501  503 -0.00000000000E+00 -0.00000000000E+00 -0.16131529865E+03  0.16131529865E+03  0.00000000000E+00 0.  1.
          6    2    1    2  501    0 -0.20867913075E+02 -0.33489581376E+01 -0.42790942291E+02  0.17816061243E+03  0.17164921719E+03 0.  0.
         24    2    3    3    0    0 -0.29249841803E+02  0.30654399686E+02 -0.84224645912E+02  0.12370579751E+03  0.80088000923E+02 0.  0.
         -6    2    1    2    0  502  0.20867913075E+02  0.33489581376E+01  0.91998978375E+02  0.19367802096E+03  0.16911735116E+03 0.  0.
        -24    2    5    5    0    0 -0.38863965693E+02 -0.44054502956E+00  0.99055724647E+02  0.13322849372E+03  0.80169776378E+02 0.  0.
          5    1    3    3  501    0  0.83819287281E+01 -0.34003357824E+02  0.41433703621E+02  0.54454814923E+02  0.47000000000E+01 0. -1.
        -11    1    4    4    0    0 -0.53859250884E+02  0.10267799836E+02 -0.35101421051E+02  0.65102660307E+02  0.00000000000E+00 0.  1.
         12    1    4    4    0    0  0.24609409081E+02  0.20386599850E+02 -0.49123224861E+02  0.58603137198E+02  0.00000000000E+00 0. -1.
         -5    1    5    5    0  502  0.59731878769E+02  0.37895031672E+01 -0.70567462721E+01  0.60449527239E+02  0.47000000000E+01 0.  1.
         13    1    6    6    0    0 -0.14423554810E+02 -0.58121556950E+01 -0.11839707658E+02  0.19544788682E+02  0.00000000000E+00 0. -1.
        -14    1    6    6    0    0 -0.24440410883E+02  0.53716106654E+01  0.11089543231E+03  0.11368370504E+03  0.00000000000E+00 0.  1.
</event>
<event>
12    1  0.1615162E-001  0.1744027E+03  0.7818608E-02  0.1173469E+00
         21   -1    0    0  503  502  0.00000000000E+00  0.00000000000E+00  0.32839414921E+03  0.32839414921E+03  0.00000000000E+00 0.  1.
         21   -1    0    0  501  503 -0.00000000000E+00 -0.00000000000E+00 -0.93778788790E+02  0.93778788790E+02  0.00000000000E+00 0.  1.
          6    2    1    2  501    0 -0.21531627042E+02  0.10320070672E+02  0.91299613685E+02  0.19685507588E+03  0.17276048917E+03 0.  0.
         24    2    3    3    0    0 -0.59590014283E+02 -0.28904709595E+02  0.18286900551E+02  0.10553163691E+03  0.80100334690E+02 0.  0.
         -6    2    1    2    0  502  0.21531627042E+02 -0.10320070672E+02  0.14331574673E+03  0.22531786212E+03  0.17221678462E+03 0.  0.
        -24    2    5    5    0    0  0.46412519239E+02  0.32418019746E+02  0.35795455761E+02  0.10687671159E+03  0.83284253492E+02 0.  0.
          5    1    3    3  501    0  0.38058387241E+02  0.39224780267E+02  0.73012713134E+02  0.91323438971E+02  0.47000000000E+01 0. -1.
        -11    1    4    4    0    0  0.11969816553E+02 -0.26934763940E+02 -0.57237989637E+01  0.30025320838E+02  0.00000000000E+00 0.  1.
         12    1    4    4    0    0 -0.71559830836E+02 -0.19699456544E+01  0.24010699515E+02  0.75506316069E+02  0.00000000000E+00 0. -1.
         -5    1    5    5    0  502 -0.24880892198E+02 -0.42738090418E+02  0.10752029097E+03  0.11844115053E+03  0.47000000000E+01 0.  1.
         13    1    6    6    0    0  0.56980317228E+02  0.15706551917E+02 -0.72100594750E+01  0.59543574651E+02  0.00000000000E+00 0. -1.
        -14    1    6    6    0    0 -0.10567797989E+02  0.16711467829E+02  0.43005515236E+02  0.47333136935E+02  0.00000000000E+00 0.  1.
</event>
<event>
12    1  0.1615162E-001  0.1800312E+03  0.7818608E-02  0.1168015E+00
         21   -1    0    0  503  502  0.00000000000E+00  0.00000000000E+00  0.43173774679E+02  0.43173774679E+02  0.00000000000E+00 0.  1.
         21   -1    0    0  501  503 -0.00000000000E+00 -0.00000000000E+00 -0.97386794081E+03  0.97386794081E+03  0.00000000000E+00 0.  1.
          6    2    1    2  501    0  0.52831576295E+02 -0.86563653335E+01 -0.71201541384E+03  0.73442303070E+03  0.17188696972E+03 0.  0.
         24    2    3    3    0    0 -0.13880007630E+02 -0.55612700878E+02 -0.42390377548E+03  0.43494725700E+03  0.78735496379E+02 0.  0.
         -6    2    1    2    0  502 -0.52831576295E+02  0.86563653335E+01 -0.21867875230E+03  0.28261868480E+03  0.17084149430E+03 0.  0.
        -24    2    5    5    0    0 -0.53601153601E+01 -0.21739511742E+01 -0.21208821272E+02  0.79179998657E+02  0.76067083467E+02 0.  0.
          5    1    3    3  501    0  0.66711583925E+02  0.46956335544E+02 -0.28811163835E+03  0.29947577370E+03  0.47000000000E+01 0. -1.
        -13    1    4    4    0    0 -0.14528038972E+02 -0.38368700273E+02 -0.73951326324E+02  0.84569614768E+02  0.00000000000E+00 0.  1.
         14    1    4    4    0    0  0.64803134197E+00 -0.17244000605E+02 -0.34995244916E+03  0.35037764223E+03  0.00000000000E+00 0. -1.
         -5    1    5    5    0  502 -0.47471460935E+02  0.10830316508E+02 -0.19746993102E+03  0.20343868614E+03  0.47000000000E+01 0.  1.
         13    1    6    6    0    0  0.38887886976E+01 -0.11214543682E+02 -0.47991733554E+02  0.49437790779E+02  0.00000000000E+00 0. -1.
        -14    1    6    6    0    0 -0.92489040577E+01  0.90405925081E+01  0.26782912282E+02  0.29742207878E+02  0.00000000000E+00 0.  1.
</event>
<event>
12    1  0.1615162E-001  0.1872673E+03  0.7818608E-02  0.1162155E+00
         21   -1    0    0  503  502  0.00000000000E+00  0.00000000000E+00  0.21111368984E+03  0.21111368984E+03  0.00000000000E+00 0. -1.
         21   -1    0    0  501  503 -0.00000000000E+00 -0.00000000000E+00 -0.16190676446E+03  0.16190676446E+03  0.00000000000E+00 0. -1.
          6    2    1    2  501    0  0.60973789047E+02  0.35449349474E+02  0.32864267101E+02  0.18504138935E+03  0.16788626028E+03 0.  0.
         24    2    3    3    0    0 -0.10003913166E+02 -0.23293380700E+02  0.37448029731E+02  0.92674493547E+02  0.80892193445E+02 0.  0.
         -6    2    1    2    0  502 -0.60973789047E+02 -0.35449349474E+02  0.16342658277E+02  0.18797906495E+03  0.17347791516E+03 0.  0.
        -24    2    5    5    0    0 -0.10252992322E+03  0.21285002577E+01  0.11822086511E+02  0.13157398852E+03  0.81578410485E+02 0.  0.
          5    1    3    3  501    0  0.70977702213E+02  0.58742730174E+02 -0.45837626304E+01  0.92366895799E+02  0.47000000000E+01 0. -1.
        -11    1    4    4    0    0 -0.23162418692E+02 -0.48069149703E+02  0.11764962938E+02  0.54640233764E+02  0.00000000000E+00 0.  1.
         12    1    4    4    0    0  0.13158505525E+02  0.24775769003E+02  0.25683066793E+02  0.38034259783E+02  0.00000000000E+00 0. -1.
         -5    1    5    5    0  502  0.41556134170E+02 -0.37577849732E+02  0.45205717665E+01  0.56405076427E+02  0.47000000000E+01 0.  1.
         13    1    6    6    0    0 -0.24556136251E+02 -0.15998003490E+02 -0.29415726178E+02  0.41523787036E+02  0.00000000000E+00 0. -1.
        -14    1    6    6    0    0 -0.77973786966E+02  0.18126503747E+02  0.41237812688E+02  0.90050201484E+02  0.00000000000E+00 0.  1.
</event>
<event>
12    1  0.1615162E-001  0.1969008E+03  0.7818608E-02  0.1155218E+00
         21   -1    0    0  503  502  0.00000000000E+00  0.00000000000E+00  0.15362191677E+03  0.15362191677E+03  0.00000000000E+00 0.  1.
         21   -1    0    0  501  503 -0.00000000000E+00 -0.00000000000E+00 -0.24443389142E+03  0.24443389142E+03  0.00000000000E+00 0. -1.
          6    2    1    2  501    0  0.81761748567E+02 -0.48397530225E+02 -0.77207518861E+01  0.18434087569E+03  0.15778036627E+03 0.  0.
         24    2    3    3    0    0  0.41894399034E+02 -0.50027636297E+02  0.58285681102E+02  0.10706861676E+03  0.61713556117E+02 0.  0.
         -6    2    1    2    0  502 -0.81761748567E+02  0.48397530225E+02 -0.83091222763E+02  0.21371493251E+03  0.17246047842E+03 0.  0.
        -24    2    5    5    0    0 -0.55340059638E+01 -0.95504474679E+01 -0.85791594347E+02  0.11780862997E+03  0.79980243594E+02 0.  0.
          5    1    3    3  501    0  0.39867349533E+02  0.16301060723E+01 -0.66006432988E+02  0.77272258932E+02  0.47000000000E+01 0. -1.
        -13    1    4    4    0    0  0.52750054961E+02 -0.49536529518E+02  0.62297304478E+02  0.95485026052E+02  0.00000000000E+00 0.  1.
         14    1    4    4    0    0 -0.10855655927E+02 -0.49110677886E+00 -0.40116233759E+01  0.11583590703E+02  0.00000000000E+00 0. -1.
         -5    1    5    5    0  502 -0.76227742603E+02  0.57947977693E+02  0.27003715843E+01  0.95906302544E+02  0.47000000000E+01 0.  1.
         13    1    6    6    0    0 -0.29277304671E+02  0.83742465125E+01 -0.82423740002E+02  0.87869001869E+02  0.00000000000E+00 0. -1.
        -14    1    6    6    0    0  0.23743298707E+02 -0.17924693980E+02 -0.33678543452E+01  0.29939628099E+02  0.00000000000E+00 0.  1.
</event>
<event>
12    1  0.1615162E-001  0.2362773E+03  0.7818608E-02  0.1122740E+00
         21   -1    0    0  501  502  0.00000000000E+00  0.00000000000E+00  0.14553732026E+03  0.14553732026E+03  0.00000000000E+00 0. -1.
         21   -1    0    0  502  503 -0.00000000000E+00 -0.00000000000E+00 -0.47663114758E+03  0.47663114758E+03  0.00000000000E+00 0. -1.
         -6    2    1    2    0  503  0.59182891003E+02  0.14734062590E+03 -0.30677491205E+03  0.38721801798E+03  0.17497163245E+03 0.  0.
        -24    2    3    3    0    0  0.77530635860E+02  0.97215932163E+02 -0.29899942975E+03  0.33307309405E+03  0.77942863847E+02 0.  0.
          6    2    1    2  501    0 -0.59182891003E+02 -0.14734062590E+03 -0.24318915272E+02  0.23495044986E+03  0.17145970263E+03 0.  0.
         24    2    5    5    0    0  0.35490024925E+02 -0.73779791343E+02 -0.60424100893E+01  0.11358209307E+03  0.78494469013E+02 0.  0.
          5    1    5    5  501    0 -0.94672915928E+02 -0.73560834553E+02 -0.18276505183E+02  0.12136835680E+03  0.47000000000E+01 0. -1.
        -13    1    6    6    0    0  0.26495886971E+02 -0.82425946053E+02 -0.25687596191E+02  0.90310139005E+02  0.00000000000E+00 0.  1.
         14    1    6    6    0    0  0.89941379536E+01  0.86461547094E+01  0.19645186102E+02  0.23271954060E+02  0.00000000000E+00 0. -1.
         -5    1    3    3    0  503 -0.18347744858E+02  0.50124693734E+02 -0.77754822985E+01  0.54144923938E+02  0.47000000000E+01 0.  1.
         11    1    4    4    0    0 -0.80683647538E+01  0.43853574689E+02 -0.11306417924E+03  0.12153906018E+03  0.00000000000E+00 0. -1.
        -12    1    4    4    0    0  0.85599000614E+02  0.53362357473E+02 -0.18593525051E+03  0.21153403387E+03  0.00000000000E+00 0.  1.
</event>
<event>
12    1  0.1615162E-001  0.2402786E+03  0.7818608E-02  0.1119668E+00
         21   -1    0    0  503  502  0.00000000000E+00  0.00000000000E+00  0.26747360169E+03  0.26747360169E+03  0.00000000000E+00 0.  1.
         21   -1    0    0  501  503 -0.00000000000E+00 -0.00000000000E+00 -0.30789479599E+03  0.30789479599E+03  0.00000000000E+00 0. -1.
          6    2    1    2  501    0 -0.13463661250E+03 -0.98120730182E+02  0.13737521450E+03  0.27646142771E+03  0.17263915064E+03 0.  0.
         24    2    3    3    0    0 -0.96980631416E+02 -0.12772694468E+03  0.14372435353E+03  0.22791348836E+03  0.74622068536E+02 0.  0.
         -6    2    1    2    0  502  0.13463661250E+03  0.98120730182E+02 -0.17779640879E+03  0.29890696997E+03  0.17314479085E+03 0.  0.
        -24    2    5    5    0    0  0.23918581566E+02  0.94849615280E+02 -0.11890018512E+03  0.17336798108E+03  0.79690995606E+02 0.  0.
          5    1    3    3  501    0 -0.37655981086E+02  0.29606214501E+02 -0.63491390251E+01  0.48547939349E+02  0.47000000000E+01 0. -1.
        -11    1    4    4    0    0 -0.74769619819E+02 -0.94885238757E+02  0.59151840032E+02  0.13450890216E+03  0.00000000000E+00 0.  1.
         12    1    4    4    0    0 -0.22211011598E+02 -0.32841705926E+02  0.84572513493E+02  0.93404586198E+02  0.00000000000E+00 0. -1.
         -5    1    5    5    0  502  0.11071803094E+03  0.32711149025E+01 -0.58896223679E+02  0.12553898889E+03  0.47000000000E+01 0.  1.
         13    1    6    6    0    0  0.18697306466E+02  0.22645883586E+02 -0.91276407221E+02  0.95884346103E+02  0.00000000000E+00 0. -1.
        -14    1    6    6    0    0  0.52212750997E+01  0.72203731694E+02 -0.27623777895E+02  0.77483634978E+02  0.00000000000E+00 0.  1.
</event>
<event>
12    1  0.1615162E-001  0.2198282E+03  0.7818608E-02  0.1135735E+00
         21   -1    0    0  503  502  0.00000000000E+00  0.00000000000E+00  0.93916242217E+02  0.93916242217E+02  0.00000000000E+00 0. -1.
         21   -1    0    0  501  503 -0.00000000000E+00 -0.00000000000E+00 -0.49435180918E+03  0.49435180918E+03  0.00000000000E+00 0. -1.
          6    2    1    2  501    0  0.62912048563E+02 -0.10125567893E+03 -0.20730408174E+03  0.29565191267E+03  0.17385175521E+03 0.  0.
         24    2    3    3    0    0  0.16358814180E+02 -0.13212435599E+03 -0.15564740873E+03  0.21942474742E+03  0.78718788658E+02 0.  0.
         -6    2    1    2    0  502 -0.62912048563E+02  0.10125567893E+03 -0.19313148522E+03  0.29261613873E+03  0.18469920327E+03 0.  0.
        -24    2    5    5    0    0 -0.10703413519E+03  0.87525946875E+02 -0.18578842373E+03  0.24559194684E+03  0.81737191581E+02 0.  0.
          5    1    3    3  501    0  0.46553234384E+02  0.30868677064E+02 -0.51656673006E+02  0.76227165245E+02  0.47000000000E+01 0. -1.
        -13    1    4    4    0    0  0.42637211979E+02 -0.67448199064E+02 -0.11045563247E+03  0.13626312101E+03  0.00000000000E+00 0.  1.
         14    1    4    4    0    0 -0.26278397799E+02 -0.64676156931E+02 -0.45191776261E+02  0.83161626414E+02  0.00000000000E+00 0. -1.
         -5    1    5    5    0  502  0.44122086628E+02  0.13729732055E+02 -0.73430614946E+01  0.47024191889E+02  0.47000000000E+01 0.  1.
         13    1    6    6    0    0 -0.12972999976E+02  0.38051995215E+01 -0.79986330738E+02  0.81120844280E+02  0.00000000000E+00 0. -1.
        -14    1    6    6    0    0 -0.94061135216E+02  0.83720747354E+02 -0.10580209299E+03  0.16447110256E+03  0.00000000000E+00 0.  1.
</event>
<event>
12    1  0.1615162E-001  0.2107198E+03  0.7818608E-02  0.1141196E+00
         21   -1    0    0  503  502  0.00000000000E+00  0.00000000000E+00  0.46830804412E+03  0.46830804412E+03  0.00000000000E+00 0.  1.
         21   -1    0    0  501  503 -0.00000000000E+00 -0.00000000000E+00 -0.12923640457E+03  0.12923640457E+03  0.00000000000E+00 0.  1.
          6    2    1    2  501    0  0.51863343011E+02  0.11041531412E+03  0.14036823385E+02  0.21018094964E+03  0.17058033662E+03 0.  0.
         24    2    3    3    0    0  0.89752453545E+02  0.11938177979E+03  0.16026322731E+01  0.16903874124E+03  0.79145532691E+02 0.  0.
         -6    2    1    2    0  502 -0.51863343011E+02 -0.11041531412E+03  0.32503481616E+03  0.38736349905E+03  0.17181822005E+03 0.  0.
        -24    2    5    5    0    0 -0.17993314617E+02  0.38885200065E+01  0.79958941901E+02  0.11478906983E+03  0.80275888066E+02 0.  0.
          5    1    3    3  501    0 -0.37889110534E+02 -0.89664656754E+01  0.12434191112E+02  0.41142208405E+02  0.47000000000E+01 0. -1.
        -13    1    4    4    0    0  0.59070960999E+02  0.16988078478E+02 -0.66775000784E+01  0.61826873211E+02  0.00000000000E+00 0.  1.
         14    1    4    4    0    0  0.30681492546E+02  0.10239370132E+03  0.82801323515E+01  0.10721186803E+03  0.00000000000E+00 0. -1.
         -5    1    5    5    0  502 -0.33870028394E+02 -0.11430383413E+03  0.24507587426E+03  0.27257442921E+03  0.47000000000E+01 0.  1.
         13    1    6    6    0    0 -0.31179202848E+01 -0.33528650833E+02  0.62307116343E+02  0.70824209142E+02  0.00000000000E+00 0. -1.
        -14    1    6    6    0    0 -0.14875394332E+02  0.37417170840E+02  0.17651825558E+02  0.43964860692E+02  0.00000000000E+00 0.  1.
</event>
<event>
12    1  0.1615162E-001  0.1989216E+03  0.7818608E-02  0.1151045E+00
         21   -1    0    0  503  502  0.00000000000E+00  0.00000000000E+00  0.30100947219E+03  0.30100947219E+03  0.00000000000E+00 0. -1.
         21   -1    0    0  501  503 -0.00000000000E+00 -0.00000000000E+00 -0.15748955998E+03  0.15748955998E+03  0.00000000000E+00 0. -1.
          6    2    1    2  501    0  0.51877199062E+02 -0.77067967450E+02 -0.23866038041E+02  0.19852239761E+03  0.17381265544E+03 0.  0.
         24    2    3    3    0    0 -0.15972374911E+02 -0.79422445576E+01  0.30044741653E+02  0.87570189787E+02  0.80297295281E+02 0.  0.
         -6    2    1    2    0  502 -0.51877199062E+02  0.77067967450E+02  0.16738595025E+03  0.25997663455E+03  0.17589507890E+03 0.  0.
        -24    2    5    5    0    0 -0.77207145181E+02  0.67216740430E+02  0.18606226536E+03  0.22666676229E+03  0.79244060180E+02 0.  0.
          5    1    3    3  501    0  0.67849573973E+02 -0.69125722893E+02 -0.53910779693E+02  0.11095220782E+03  0.47000000000E+01 0. -1.
        -11    1    4    4    0    0 -0.32301926176E+02 -0.35544063232E+02  0.80924185110E+01  0.48706078708E+02  0.00000000000E+00 0.  1.
         12    1    4    4    0    0  0.16329551265E+02  0.27601818674E+02  0.21952323142E+02  0.38864111079E+02  0.00000000000E+00 0. -1.
         -5    1    5    5    0  502  0.25329946119E+02  0.98512270201E+01 -0.18676315109E+02  0.33309872264E+02  0.47000000000E+01 0.  1.
         11    1    6    6    0    0 -0.68662990768E+02  0.28410754692E+02  0.63237317132E+02  0.97574256653E+02  0.00000000000E+00 0. -1.
        -12    1    6    6    0    0 -0.85441544137E+01  0.38805985738E+02  0.12282494823E+03  0.12909250564E+03  0.00000000000E+00 0.  1.
</event>
<event>
12    1  0.1615162E-001  0.2142785E+03  0.7818608E-02  0.1138422E+00
         21   -1    0    0  503  502  0.00000000000E+00  0.00000000000E+00  0.16180229946E+03  0.16180229946E+03  0.00000000000E+00 0. -1.
         21   -1    0    0  501  503 -0.00000000000E+00 -0.00000000000E+00 -0.28241736374E+03  0.28241736374E+03  0.00000000000E+00 0. -1.
          6    2    1    2  501    0  0.61759216863E+01  0.12655699971E+03 -0.61765498593E+02  0.22200683361E+03  0.17151455089E+03 0.  0.
         24    2    3    3    0    0  0.31595422051E+02  0.59407381501E+02  0.28059476536E+02  0.10691626761E+03  0.78206434423E+02 0.  0.
         -6    2    1    2    0  502 -0.61759216863E+01 -0.12655699971E+03 -0.58849565691E+02  0.22221282960E+03  0.17280177682E+03 0.  0.
        -24    2    5    5    0    0  0.28978729273E+01 -0.11984063282E+03 -0.10307649519E+03  0.17632650674E+03  0.78077513879E+02 0.  0.
          5    1    3    3  501    0 -0.25419500365E+02  0.67149618206E+02 -0.89824975130E+02  0.11509056599E+03  0.47000000000E+01 0. -1.
        -11    1    4    4    0    0  0.54475071885E+01 -0.14913576504E+02  0.23025627706E+02  0.27969083466E+02  0.00000000000E+00 0.  1.
         12    1    4    4    0    0  0.26147914863E+02  0.74320958004E+02  0.50338488305E+01  0.78947184145E+02  0.00000000000E+00 0. -1.
         -5    1    5    5    0  502 -0.90737946136E+01 -0.67163668824E+01  0.44226929500E+02  0.45886322862E+02  0.47000000000E+01 0.  1.
         11    1    6    6    0    0  0.14625207147E+02 -0.53431321518E+02 -0.27798388330E+01  0.55466479130E+02  0.00000000000E+00 0. -1.
        -12    1    6    6    0    0 -0.11727334219E+02 -0.66409311307E+02 -0.10029665636E+03  0.12086002760E+03  0.00000000000E+00 0.  1.
</event>
<event>
12    1  0.1615162E-001  0.2141371E+03  0.7818608E-02  0.1138561E+00
         21   -1    0    0  501  502  0.00000000000E+00  0.00000000000E+00  0.11589482073E+04  0.11589482073E+04  0.00000000000E+00 0. -1.
         21   -1    0    0  502  503 -0.00000000000E+00 -0.00000000000E+00 -0.43205840758E+02  0.43205840758E+02  0.00000000000E+00 0. -1.
         -6    2    1    2    0  503 -0.38436304722E+02 -0.12067077669E+03  0.37964479957E+03  0.43587254982E+03  0.17267286985E+03 0.  0.
        -24    2    3    3    0    0 -0.67041887012E+02 -0.13727595152E+03  0.35403100407E+03  0.39377542771E+03  0.79886382770E+02 0.  0.
          6    2    1    2  501    0  0.38436304722E+02  0.12067077669E+03  0.73609756699E+03  0.76628149826E+03  0.17119848297E+03 0.  0.
         24    2    5    5    0    0  0.57281947203E+02 -0.13647249618E+01  0.29146124621E+03  0.30479328642E+03  0.68309629304E+02 0.  0.
          5    1    5    5  501    0 -0.18845642481E+02  0.12203550165E+03  0.44463632079E+03  0.46148821184E+03  0.47000000000E+01 0. -1.
        -11    1    6    6    0    0  0.69886763031E+02 -0.46744332127E+01  0.19001663638E+03  0.20251501691E+03  0.00000000000E+00 0.  1.
         12    1    6    6    0    0 -0.12604815828E+02  0.33097082509E+01  0.10144460983E+03  0.10227826951E+03  0.00000000000E+00 0. -1.
         -5    1    3    3    0  503  0.28605582290E+02  0.16605174837E+02  0.25613795503E+02  0.42097122106E+02  0.47000000000E+01 0.  1.
         13    1    4    4    0    0 -0.25134112871E+02 -0.11443755129E+03  0.19261254238E+03  0.22544903694E+03  0.00000000000E+00 0. -1.
        -14    1    4    4    0    0 -0.41907774141E+02 -0.22838400233E+02  0.16141846168E+03  0.16832639077E+03  0.00000000000E+00 0.  1.
</event>
<event>
12    1  0.1615162E-001  0.2675569E+03  0.7818608E-02  0.1102773E+00
         21   -1    0    0  503  502  0.00000000000E+00  0.00000000000E+00  0.15843447479E+04  0.15843447479E+04  0.00000000000E+00 0. -1.
         21   -1    0    0  501  503 -0.00000000000E+00 -0.00000000000E+00 -0.45737713962E+02  0.45737713962E+02  0.00000000000E+00 0. -1.
          6    2    1    2  501    0  0.37668702219E+02 -0.20131817750E+03  0.67258361573E+03  0.72384763875E+03  0.17215906676E+03 0.  0.
         24    2    3    3    0    0 -0.12891083155E+02 -0.10745431462E+03  0.21222208240E+03  0.25127854538E+03  0.79938009433E+02 0.  0.
         -6    2    1    2    0  502 -0.37668702219E+02  0.20131817750E+03  0.86602341818E+03  0.90623482308E+03  0.17122223572E+03 0.  0.
        -24    2    5    5    0    0  0.29619905495E+02  0.15414209652E+03  0.46870343603E+03  0.50047800236E+03  0.78474168854E+02 0.  0.
          5    1    3    3  501    0  0.50559785374E+02 -0.93863862878E+02  0.46036153332E+03  0.47256909338E+03  0.47000000000E+01 0. -1.
        -13    1    4    4    0    0  0.30055137662E+02 -0.23994164431E+02  0.83883115884E+02  0.92278970286E+02  0.00000000000E+00 0.  1.
         14    1    4    4    0    0 -0.42946220817E+02 -0.83460150188E+02  0.12833896652E+03  0.15899957509E+03  0.00000000000E+00 0. -1.
         -5    1    5    5    0  502 -0.67288607714E+02  0.47176080979E+02  0.39731998215E+03  0.40575682072E+03  0.47000000000E+01 0.  1.
         13    1    6    6    0    0 -0.14437273656E+02  0.14100132410E+02  0.12669037250E+03  0.12828756405E+03  0.00000000000E+00 0. -1.
        -14    1    6    6    0    0  0.44057179150E+02  0.14004196411E+03  0.34201306353E+03  0.37219043831E+03  0.00000000000E+00 0.  1.
</event>
<event>
12    1  0.1615162E-001  0.1807858E+03  0.7818608E-02  0.1167157E+00
         21   -1    0    0  501  502  0.00000000000E+00  0.00000000000E+00  0.63009170366E+03  0.63009170366E+03  0.00000000000E+00 0.  1.
         21   -1    0    0  502  503 -0.00000000000E+00 -0.00000000000E+00 -0.51756448578E+02  0.51756448578E+02  0.00000000000E+00 0.  1.
         -6    2    1    2    0  503  0.52777852148E+02  0.12623900593E+02  0.28218558708E+03  0.33487823202E+03  0.17195889096E+03 0.  0.
        -24    2    3    3    0    0  0.98041448693E+02  0.15251669783E+02  0.24470755843E+03  0.27586644527E+03  0.79848402500E+02 0.  0.
          6    2    1    2  501    0 -0.52777852148E+02 -0.12623900593E+02  0.29614966801E+03  0.34696992023E+03  0.17244893487E+03 0.  0.
         24    2    5    5    0    0 -0.39471822358E+02  0.57789565213E+02  0.19800236727E+03  0.22535540943E+03  0.81746342454E+02 0.  0.
          5    1    5    5  501    0 -0.13306029789E+02 -0.70413465806E+02  0.98147300736E+02  0.12161451080E+03  0.47000000000E+01 0. -1.
        -11    1    6    6    0    0 -0.24104410923E+02  0.32062154796E+02  0.19020687539E+03  0.19439048290E+03  0.00000000000E+00 0.  1.
         12    1    6    6    0    0 -0.15367411435E+02  0.25727410416E+02  0.77954918777E+01  0.30964926523E+02  0.00000000000E+00 0. -1.
         -5    1    3    3    0  503 -0.45263596546E+02 -0.26277691901E+01  0.37478028649E+02  0.59011786743E+02  0.47000000000E+01 0.  1.
         13    1    4    4    0    0  0.41785699267E+02 -0.93199919364E+00  0.19390447405E+03  0.19835790466E+03  0.00000000000E+00 0. -1.
        -14    1    4    4    0    0  0.56255749427E+02  0.16183668977E+02  0.50803084382E+02  0.77508540612E+02  0.00000000000E+00 0.  1.
</event>
<event>
12    1  0.1615162E-001  0.4254018E+03  0.7818608E-02  0.1035530E+00
         21   -1    0    0  501  502  0.00000000000E+00  0.00000000000E+00  0.17806449671E+04  0.17806449671E+04  0.00000000000E+00 0. -1.
         21   -1    0    0  502  503 -0.00000000000E+00 -0.00000000000E+00 -0.13779918915E+03  0.13779918915E+03  0.00000000000E+00 0.  1.
         -6    2    1    2    0  503  0.21171751308E+03  0.32517866594E+03  0.32765823507E+03  0.53696056675E+03  0.17435957419E+03 0.  0.
        -24    2    3    3    0    0  0.22170023000E+03  0.32179086977E+03  0.33693244852E+03  0.52215405348E+03  0.80131297582E+02 0.  0.
          6    2    1    2  501    0 -0.21171751308E+03 -0.32517866594E+03  0.13151875429E+04  0.13814835895E+04  0.16796774984E+03 0.  0.
         24    2    5    5    0    0 -0.11465101382E+03 -0.19506068278E+03  0.56568484240E+03  0.61458791026E+03  0.80780155815E+02 0.  0.
          5    1    5    5  501    0 -0.97066499261E+02 -0.13011798315E+03  0.74950270046E+03  0.76689567922E+03  0.47000000000E+01 0. -1.
        -11    1    6    6    0    0 -0.33472609554E+02 -0.53187055807E+02  0.77571590778E+02  0.99833011533E+02  0.00000000000E+00 0.  1.
         12    1    6    6    0    0 -0.81178404262E+02 -0.14187362698E+03  0.48811325162E+03  0.51475489872E+03  0.00000000000E+00 0. -1.
         -5    1    3    3    0  503 -0.99827169236E+01  0.33877961638E+01 -0.92742134493E+01  0.14806513267E+02  0.47000000000E+01 0.  1.
         11    1    4    4    0    0  0.70097886713E+02  0.16591488913E+03  0.13143569414E+03  0.22297265718E+03  0.00000000000E+00 0. -1.
        -12    1    4    4    0    0  0.15160234329E+03  0.15587598064E+03  0.20549675438E+03  0.29918139630E+03  0.00000000000E+00 0.  1.
</event>
<event>
12    1  0.1615162E-001  0.2055845E+03  0.7818608E-02  0.1145493E+00
         21   -1    0    0  501  502  0.00000000000E+00  0.00000000000E+00  0.71533462798E+03  0.71533462798E+03  0.00000000000E+00 0. -1.
         21   -1    0    0  502  503 -0.00000000000E+00 -0.00000000000E+00 -0.13370749008E+03  0.13370749008E+03  0.00000000000E+00 0.  1.
         -6    2    1    2    0  503  0.92146240627E+02  0.60287302626E+02  0.60967554775E+03  0.64340444224E+03  0.17360735656E+03 0.  0.
        -24    2    3    3    0    0  0.92895452234E+02  0.90360393146E+02  0.58195301747E+03  0.60222701181E+03  0.84932287834E+02 0.  0.
          6    2    1    2  501    0 -0.92146240627E+02 -0.60287302626E+02 -0.28048409846E+02  0.20563767583E+03  0.17139034952E+03 0.  0.
         24    2    5    5    0    0 -0.11686029542E+03 -0.42792573721E+02  0.19282693659E+02  0.14925351668E+03  0.80107783369E+02 0.  0.
          5    1    5    5  501    0  0.24714054794E+02 -0.17494728905E+02 -0.47331103505E+02  0.56384159148E+02  0.47000000000E+01 0. -1.
        -11    1    6    6    0    0 -0.46629725380E+02  0.20304138261E+02 -0.67856744696E+01  0.51309206752E+02  0.00000000000E+00 0.  1.
         12    1    6    6    0    0 -0.70230570042E+02 -0.63096711982E+02  0.26068368129E+02  0.97944309933E+02  0.00000000000E+00 0. -1.
         -5    1    3    3    0  503 -0.74921160700E+00 -0.30073090520E+02  0.27722530273E+02  0.41177430423E+02  0.47000000000E+01 0.  1.
         13    1    4    4    0    0  0.15215982924E+02  0.14393977946E+02  0.28927811228E+03  0.29003540988E+03  0.00000000000E+00 0. -1.
        -14    1    4    4    0    0  0.77679469311E+02  0.75966415200E+02  0.29267490519E+03  0.31219160193E+03  0.00000000000E+00 0.  1.
</event>
<event>
12    1  0.1615162E-001  0.2079889E+03  0.7818608E-02  0.1143911E+00
         21   -1    0    0  501  502  0.00000000000E+00  0.00000000000E+00  0.35624674154E+03  0.35624674154E+03  0.00000000000E+00 0. -1.
         21   -1    0    0  502  503 -0.00000000000E+00 -0.00000000000E+00 -0.12452079581E+03  0.12452079581E+03  0.00000000000E+00 0.  1.
         -6    2    1    2    0  503 -0.34003156529E+02 -0.11027722938E+03  0.16410632085E+03  0.26206268134E+03  0.16860807346E+03 0.  0.
        -24    2    3    3    0    0 -0.84696589137E+02 -0.64427906875E+02  0.79467562977E+02  0.15316918375E+03  0.76297037220E+02 0.  0.
          6    2    1    2  501    0  0.34003156529E+02  0.11027722938E+03  0.67619624883E+02  0.21870485601E+03  0.17303791029E+03 0.  0.
         24    2    5    5    0    0 -0.22143552117E+02 -0.82360256536E+01  0.58892161172E+02  0.87190206128E+02  0.59796959607E+02 0.  0.
          5    1    5    5  501    0  0.56146708646E+02  0.11851325503E+03  0.87274637113E+01  0.13151464988E+03  0.47000000000E+01 0. -1.
        -11    1    6    6    0    0 -0.11397034790E+02  0.25838741037E+02  0.21684831337E+02  0.35605685648E+02  0.00000000000E+00 0.  1.
         12    1    6    6    0    0 -0.10746517327E+02 -0.34074766691E+02  0.37207329835E+02  0.51584520480E+02  0.00000000000E+00 0. -1.
         -5    1    3    3    0  503  0.50693432608E+02 -0.45849322503E+02  0.84638757873E+02  0.10889349759E+03  0.47000000000E+01 0.  1.
         11    1    4    4    0    0 -0.47332234335E+02 -0.22249300683E+02 -0.40092197634E+01  0.52454224150E+02  0.00000000000E+00 0. -1.
        -12    1    4    4    0    0 -0.37364354802E+02 -0.42178606191E+02  0.83476782740E+02  0.10071495960E+03  0.00000000000E+00 0.  1.
</event>
<event>
12    1  0.1615162E-001  0.1912431E+03  0.7818608E-02  0.1158882E+00
         21   -1    0    0  503  502  0.00000000000E+00  0.00000000000E+00  0.14084372003E+03  0.14084372003E+03  0.00000000000E+00 0.  1.
         21   -1    0    0  501  503 -0.00000000000E+00 -0.00000000000E+00 -0.34442991735E+03  0.34442991735E+03  0.00000000000E+00 0.  1.
          6    2    1    2  501    0 -0.74384404006E+02 -0.57670075863E+01 -0.22974799234E+03  0.29892820387E+03  0.17608984396E+03 0.  0.
         24    2    3    3    0    0 -0.83968324442E+02 -0.38576717786E+02 -0.23421846616E+03  0.26413734658E+03  0.79821083085E+02 0.  0.
         -6    2    1    2    0  502  0.74384404006E+02  0.57670075863E+01  0.26161795028E+02  0.18634543351E+03  0.16874206096E+03 0.  0.
        -24    2    5    5    0    0  0.96843471545E+02 -0.14385581167E+02 -0.21418726741E+02  0.12980754710E+03  0.82496269629E+02 0.  0.
          5    1    3    3  501    0  0.95839204356E+01  0.32809710200E+02  0.44704738194E+01  0.34790857283E+02  0.47000000000E+01 0. -1.
        -13    1    4    4    0    0 -0.51064170112E+02  0.93134507625E+01 -0.16899096189E+03  0.17678301681E+03  0.00000000000E+00 0.  1.
         14    1    4    4    0    0 -0.32904154330E+02 -0.47890168549E+02 -0.65227504274E+02  0.87354329771E+02  0.00000000000E+00 0. -1.
         -5    1    5    5    0  502 -0.22459067539E+02  0.20152588753E+02  0.47580521769E+02  0.56537886413E+02  0.47000000000E+01 0.  1.
         13    1    6    6    0    0  0.44627456171E+02 -0.35196644182E+02  0.19709809763E+02  0.60157212426E+02  0.00000000000E+00 0. -1.
        -14    1    6    6    0    0  0.52216015374E+02  0.20811063016E+02 -0.41128536504E+02  0.69650334675E+02  0.00000000000E+00 0.  1.
</event>
<event>
12    1  0.1615162E-001  0.1727644E+03  0.7818608E-02  0.1175577E+00
         21   -1    0    0  501  502  0.00000000000E+00  0.00000000000E+00  0.43665396865E+03  0.43665396865E+03  0.00000000000E+00 0.  1.
         21   -1    0    0  502  503 -0.00000000000E+00 -0.00000000000E+00 -0.77029999839E+02  0.77029999839E+02  0.00000000000E+00 0.  1.
         -6    2    1    2    0  503 -0.11404113537E+02  0.66961887684E+01  0.27136333123E+03  0.32169177386E+03  0.17225750226E+03 0.  0.
        -24    2    3    3    0    0  0.44996875446E+02  0.33636367927E+02  0.98931712298E+02  0.13822080063E+03  0.78494471023E+02 0.  0.
          6    2    1    2  501    0  0.11404113537E+02 -0.66961887684E+01  0.88260637583E+02  0.19199219463E+03  0.16998873463E+03 0.  0.
         24    2    5    5    0    0  0.18452090921E+02  0.38194730892E+02  0.11005342858E+03  0.14137713370E+03  0.77951392961E+02 0.  0.
          5    1    5    5  501    0 -0.70479773846E+01 -0.44890919661E+02 -0.21792790996E+02  0.50615060926E+02  0.47000000000E+01 0. -1.
        -13    1    6    6    0    0 -0.85903694201E+01  0.53703744729E+02  0.50789169170E+02  0.74413885463E+02  0.00000000000E+00 0.  1.
         14    1    6    6    0    0  0.27042460341E+02 -0.15509013837E+02  0.59264259408E+02  0.66963248239E+02  0.00000000000E+00 0. -1.
         -5    1    3    3    0  503 -0.56400988983E+02 -0.26940179159E+02  0.17243161894E+03  0.18347097324E+03  0.47000000000E+01 0.  1.
         13    1    4    4    0    0  0.30692353653E+02  0.46413380255E+02  0.23523709201E+02  0.60411814523E+02  0.00000000000E+00 0. -1.
        -14    1    4    4    0    0  0.14304521793E+02 -0.12777012328E+02  0.75408003097E+02  0.77808986106E+02  0.00000000000E+00 0.  1.
</event>
<event>
12    1  0.1615162E-001  0.2101405E+03  0.7818608E-02  0.1141477E+00
         21   -1    0    0  501  502  0.00000000000E+00  0.00000000000E+00  0.15260394974E+03  0.15260394974E+03  0.00000000000E+00 0.  1.
         21   -1    0    0  502  503 -0.00000000000E+00 -0.00000000000E+00 -0.30807371548E+03  0.30807371548E+03  0.00000000000E+00 0.  1.
         -6    2    1    2    0  503 -0.10742479662E+03  0.54321428562E+02 -0.13473862670E+03  0.24962678778E+03  0.17224439358E+03 0.  0.
        -24    2    3    3    0    0 -0.13270168805E+02 -0.22037403690E+02 -0.85021443830E+02  0.11851746898E+03  0.78460180987E+02 0.  0.
          6    2    1    2  501    0  0.10742479662E+03 -0.54321428562E+02 -0.20731139039E+02  0.21105087745E+03  0.17210981441E+03 0.  0.
         24    2    5    5    0    0  0.12684392776E+03 -0.22096548931E+02  0.21365136598E+02  0.15439638121E+03  0.82487174673E+02 0.  0.
          5    1    5    5  501    0 -0.19419131137E+02 -0.32224879631E+02 -0.42096275637E+02  0.56654496237E+02  0.47000000000E+01 0. -1.
        -13    1    6    6    0    0  0.29769070800E+02 -0.43509810339E+02  0.14869113648E+02  0.54775831465E+02  0.00000000000E+00 0.  1.
         14    1    6    6    0    0  0.97074856960E+02  0.21413261408E+02  0.64960229500E+01  0.99620549748E+02  0.00000000000E+00 0. -1.
         -5    1    3    3    0  503 -0.94154627818E+02  0.76358832252E+02 -0.49717182873E+02  0.13110931880E+03  0.47000000000E+01 0.  1.
         11    1    4    4    0    0  0.19425439176E+02 -0.14219657256E+02  0.30329844550E+01  0.24264074975E+02  0.00000000000E+00 0. -1.
        -12    1    4    4    0    0 -0.32695607981E+02 -0.78177464339E+01 -0.88054428285E+02  0.94253394004E+02  0.00000000000E+00 0.  1.
</event>
<event>
12    1  0.1615162E-001  0.1906571E+03  0.7818608E-02  0.1158303E+00
         21   -1    0    0  503  502  0.00000000000E+00  0.00000000000E+00  0.61373711016E+02  0.61373711016E+02  0.00000000000E+00 0.  1.
         21   -1    0    0  501  503 -0.00000000000E+00 -0.00000000000E+00 -0.19049957139E+04  0.19049957139E+04  0.00000000000E+00 0.  1.
          6    2    1    2  501    0  0.40119979594E+02  0.61232274116E+02 -0.17383768150E+04  0.17485927664E+04  0.17396467356E+03 0.  0.
         24    2    3    3    0    0 -0.84403390380E+01 -0.20979408953E+02 -0.11000684593E+04  0.11031653790E+04  0.79447237166E+02 0.  0.
         -6    2    1    2    0  502 -0.40119979594E+02 -0.61232274116E+02 -0.10524518789E+03  0.21777665852E+03  0.17604294721E+03 0.  0.
        -24    2    5    5    0    0  0.13373565679E+02  0.18320350252E+02 -0.88119785280E+02  0.12028025425E+03  0.78662287743E+02 0.  0.
          5    1    3    3  501    0  0.48560318632E+02  0.82211683069E+02 -0.63830835573E+03  0.64542738737E+03  0.47000000000E+01 0. -1.
        -13    1    4    4    0    0 -0.15526556328E+02  0.10991373059E+02 -0.91660147931E+03  0.91679886350E+03  0.00000000000E+00 0.  1.
         14    1    4    4    0    0  0.70862172903E+01 -0.31970782012E+02 -0.18346697994E+03  0.18636651552E+03  0.00000000000E+00 0. -1.
         -5    1    5    5    0  502 -0.53493545273E+02 -0.79552624369E+02 -0.17125402613E+02  0.97496404265E+02  0.47000000000E+01 0.  1.
         11    1    6    6    0    0 -0.17941567370E+02 -0.10944521835E+02 -0.71138278135E+02  0.74177739342E+02  0.00000000000E+00 0. -1.
        -12    1    6    6    0    0  0.31315133049E+02  0.29264872087E+02 -0.16981507145E+02  0.46102514911E+02  0.00000000000E+00 0.  1.
</event>
<event>
12    1  0.1615162E-001  0.1724791E+03  0.7818608E-02  0.1176046E+00
         21   -1    0    0  503  502  0.00000000000E+00  0.00000000000E+00  0.16330457076E+04  0.16330457076E+04  0.00000000000E+00 0.  1.
         21   -1    0    0  501  503 -0.00000000000E+00 -0.00000000000E+00 -0.24761958778E+02  0.24761958778E+02  0.00000000000E+00 0.  1.
          6    2    1    2  501    0  0.17004972751E+02  0.23190980918E+02  0.36304756381E+03  0.40068309386E+03  0.16708206793E+03 0.  0.
         24    2    3    3    0    0 -0.51647889430E+02  0.20099103997E+02  0.25370983110E+03  0.27145614241E+03  0.79046064983E+02 0.  0.
         -6    2    1    2    0  502 -0.17004972751E+02 -0.23190980918E+02  0.12452361850E+04  0.12571245725E+04  0.17006482195E+03 0.  0.
        -24    2    5    5    0    0 -0.62244920062E+02  0.19064379713E+01  0.10638105486E+04  0.10684081588E+04  0.76974319369E+02 0.  0.
          5    1    3    3  501    0  0.68652862181E+02  0.30918769209E+01  0.10933773271E+03  0.12922695146E+03  0.47000000000E+01 0. -1.
        -13    1    4    4    0    0 -0.57180631500E+02  0.15089136931E+02  0.90705978059E+02  0.10828149024E+03  0.00000000000E+00 0.  1.
         14    1    4    4    0    0  0.55327420696E+01  0.50099670659E+01  0.16300385304E+03  0.16317465217E+03  0.00000000000E+00 0. -1.
         -5    1    5    5    0  502  0.45239947311E+02 -0.25097418889E+02  0.18142563637E+03  0.18871641370E+03  0.47000000000E+01 0.  1.
         11    1    6    6    0    0 -0.10455051881E+02 -0.34174051042E+02  0.41367823439E+03  0.41521904519E+03  0.00000000000E+00 0. -1.
        -12    1    6    6    0    0 -0.51789868181E+02  0.36080489013E+02  0.65013231421E+03  0.65318911359E+03  0.00000000000E+00 0.  1.
</event>
<event>
12    1  0.1615162E-001  0.2098673E+03  0.7818608E-02  0.1141705E+00
         21   -1    0    0  501  502  0.00000000000E+00  0.00000000000E+00  0.53953576742E+03  0.53953576742E+03  0.00000000000E+00 0. -1.
         21   -1    0    0  502  503 -0.00000000000E+00 -0.00000000000E+00 -0.90789351851E+02  0.90789351851E+02  0.00000000000E+00 0. -1.
         -6    2    1    2    0  503 -0.11848948109E+03 -0.25431639405E+02  0.12401151111E+03  0.24376865464E+03  0.17134111208E+03 0.  0.
        -24    2    3    3    0    0 -0.13261961384E+03 -0.54329783257E+02  0.13230771221E+03  0.21021749487E+03  0.78398833639E+02 0.  0.
          6    2    1    2  501    0  0.11848948109E+03  0.25431639405E+02  0.32473490446E+03  0.38655646463E+03  0.17113333036E+03 0.  0.
         24    2    5    5    0    0  0.75313962876E+02  0.76051577902E+02  0.15869631060E+03  0.20762237565E+03  0.80414528339E+02 0.  0.
          5    1    5    5  501    0  0.43175518213E+02 -0.50619938497E+02  0.16603859386E+03  0.17893408897E+03  0.47000000000E+01 0. -1.
        -13    1    6    6    0    0 -0.33202777792E+01  0.45533355110E+01  0.67047897995E+02  0.67284305260E+02  0.00000000000E+00 0.  1.
         14    1    6    6    0    0  0.78634240655E+02  0.71498242391E+02  0.91648412606E+02  0.14033807039E+03  0.00000000000E+00 0. -1.
         -5    1    3    3    0  503  0.14130132750E+02  0.28898143853E+02 -0.82962010958E+01  0.33551159776E+02  0.47000000000E+01 0.  1.
         11    1    4    4    0    0 -0.86453255096E+02 -0.18739184054E+02  0.31751118373E+02  0.93986466333E+02  0.00000000000E+00 0. -1.
        -12    1    4    4    0    0 -0.46166358743E+02 -0.35590599203E+02  0.10055659383E+03  0.11623102854E+03  0.00000000000E+00 0.  1.
</event>
<event>
12    1  0.1615162E-001  0.3056600E+03  0.7818608E-02  0.1082834E+00
         21   -1    0    0  501  502  0.00000000000E+00  0.00000000000E+00  0.21135066800E+04  0.21135066800E+04  0.00000000000E+00 0.  1.
         21   -1    0    0  502  503 -0.00000000000E+00 -0.00000000000E+00 -0.58119625879E+02  0.58119625879E+02  0.00000000000E+00 0.  1.
         -6    2    1    2    0  503  0.21640483045E+02 -0.24806066650E+03  0.15636045848E+04  0.15925943477E+04  0.17174124125E+03 0.  0.
        -24    2    3    3    0    0  0.80232480952E+02 -0.16003958644E+03  0.10618781558E+04  0.10798251674E+04  0.79920298182E+02 0.  0.
          6    2    1    2  501    0 -0.21640483045E+02  0.24806066650E+03  0.49178246933E+03  0.57903195818E+03  0.17727269019E+03 0.  0.
         24    2    5    5    0    0  0.29640425015E+02  0.97863901028E+02  0.14659083073E+03  0.19907385885E+03  0.87667734685E+02 0.  0.
          5    1    5    5  501    0 -0.51280908060E+02  0.15019676547E+03  0.34519163860E+03  0.37995809933E+03  0.47000000000E+01 0. -1.
        -13    1    6    6    0    0 -0.23126569426E+02  0.28606920998E+02  0.84422639563E+02  0.92088958150E+02  0.00000000000E+00 0.  1.
         14    1    6    6    0    0  0.52766994442E+02  0.69256980030E+02  0.62168191168E+02  0.10698490070E+03  0.00000000000E+00 0. -1.
         -5    1    3    3    0  503 -0.58591997907E+02 -0.88021080059E+02  0.50172642894E+03  0.51276918029E+03  0.47000000000E+01 0.  1.
         13    1    4    4    0    0  0.78105090827E+02 -0.69558462733E+02  0.51568412002E+03  0.52618332983E+03  0.00000000000E+00 0. -1.
        -14    1    4    4    0    0  0.21273901250E+01 -0.90481123712E+02  0.54619403583E+03  0.55364183757E+03  0.00000000000E+00 0.  1.
</event>
<event>
12    1  0.1615162E-001  0.2160808E+03  0.7818608E-02  0.1136929E+00
         21   -1    0    0  501  502  0.00000000000E+00  0.00000000000E+00  0.31121928648E+03  0.31121928648E+03  0.00000000000E+00 0.  1.
         21   -1    0    0  502  503 -0.00000000000E+00 -0.00000000000E+00 -0.15400241977E+03  0.15400241977E+03  0.00000000000E+00 0. -1.
         -6    2    1    2    0  503 -0.61932791360E+02 -0.11729781320E+03  0.39640995013E+02  0.21922371382E+03  0.16997994172E+03 0.  0.
        -24    2    3    3    0    0  0.13547858426E+01 -0.73161492067E+02 -0.33168662299E+02  0.11303205469E+03  0.79508778522E+02 0.  0.
          6    2    1    2  501    0  0.61932791360E+02  0.11729781320E+03  0.11757587169E+03  0.24599799243E+03  0.17057690068E+03 0.  0.
         24    2    5    5    0    0  0.92338280509E+01  0.89680574914E+02  0.13758459855E+03  0.18305093742E+03  0.80313478529E+02 0.  0.
          5    1    5    5  501    0  0.52698963309E+02  0.27617238288E+02 -0.20008726856E+02  0.62947055014E+02  0.47000000000E+01 0. -1.
        -11    1    6    6    0    0  0.32218105059E+02  0.77707963006E+01  0.56630669524E+02  0.65615732103E+02  0.00000000000E+00 0.  1.
         12    1    6    6    0    0 -0.22984277008E+02  0.81909778613E+02  0.80953929026E+02  0.11743520531E+03  0.00000000000E+00 0. -1.
         -5    1    3    3    0  503 -0.63287577203E+02 -0.44136321135E+02  0.72809657311E+02  0.10619165913E+03  0.47000000000E+01 0.  1.
         13    1    4    4    0    0  0.20815970859E+02 -0.83412772079E+02 -0.28243066663E+02  0.90491248213E+02  0.00000000000E+00 0. -1.
        -14    1    4    4    0    0 -0.19461185017E+02  0.10251280012E+02 -0.49255956359E+01  0.22540806474E+02  0.00000000000E+00 0.  1.
</event>
<event>
12    1  0.1615162E-001  0.2146707E+03  0.7818608E-02  0.1137960E+00
         21   -1    0    0  503  502  0.00000000000E+00  0.00000000000E+00  0.26183523420E+04  0.26183523420E+04  0.00000000000E+00 0. -1.
         21   -1    0    0  501  503 -0.00000000000E+00 -0.00000000000E+00 -0.27463287061E+02  0.27463287061E+02  0.00000000000E+00 0.  1.
          6    2    1    2  501    0  0.66265174757E+02  0.10964858928E+03  0.50155813581E+03  0.54548536680E+03  0.17198789280E+03 0.  0.
         24    2    3    3    0    0  0.85526327559E+02  0.15740039404E+02  0.27875762704E+03  0.30289112849E+03  0.80465642000E+02 0.  0.
         -6    2    1    2    0  502 -0.66265174757E+02 -0.10964858928E+03  0.20893309191E+04  0.21003302623E+04  0.17224875750E+03 0.  0.
        -24    2    5    5    0    0  0.66570094803E+01 -0.10257172602E+03  0.16324246420E+04  0.16375634063E+04  0.78983687759E+02 0.  0.
          5    1    3    3  501    0 -0.19261152802E+02  0.93908549872E+02  0.22280050878E+03  0.24259423830E+03  0.47000000000E+01 0. -1.
        -13    1    4    4    0    0 -0.41910396269E+00  0.69032401959E+01 -0.34681117841E+01  0.77368063618E+01  0.00000000000E+00 0.  1.
         14    1    4    4    0    0  0.85945431522E+02  0.88367992078E+01  0.28222573882E+03  0.29515432213E+03  0.00000000000E+00 0. -1.
         -5    1    5    5    0  502 -0.72922184237E+02 -0.70768632513E+01  0.45690627706E+03  0.46276685595E+03  0.47000000000E+01 0.  1.
         11    1    6    6    0    0 -0.95122024703E+01 -0.57989037557E+02  0.13425143778E+04  0.13437998605E+04  0.00000000000E+00 0. -1.
        -12    1    6    6    0    0  0.16169211951E+02 -0.44582688467E+02  0.28991026423E+03  0.29376354578E+03  0.00000000000E+00 0.  1.
</event>
<event>
12    1  0.1615162E-001  0.1838592E+03  0.7818608E-02  0.1166423E+00
         21   -1    0    0  501  502  0.00000000000E+00  0.00000000000E+00  0.17818573025E+04  0.17818573025E+04  0.00000000000E+00 0.  1.
         21   -1    0    0  502  503 -0.00000000000E+00 -0.00000000000E+00 -0.64376390629E+02  0.64376390629E+02  0.00000000000E+00 0.  1.
         -6    2    1    2    0  503 -0.36360928482E+02  0.50532253033E+02  0.81710407033E+02  0.20119841014E+03  0.17299879742E+03 0.  0.
        -24    2    3    3    0    0 -0.21081061190E+02 -0.30038654398E+02  0.50714909206E+02  0.11340344244E+03  0.94560070017E+02 0.  0.
          6    2    1    2  501    0  0.36360928482E+02 -0.50532253033E+02  0.16357705049E+04  0.16450352830E+04  0.16285058202E+03 0.  0.
         24    2    5    5    0    0  0.14833127086E+02 -0.94551865148E+02  0.10752707295E+04  0.10823779622E+04  0.78580115007E+02 0.  0.
          5    1    5    5  501    0  0.21527801396E+02  0.44019612115E+02  0.56049977540E+03  0.56265732085E+03  0.47000000000E+01 0. -1.
        -13    1    6    6    0    0  0.45680518066E+02 -0.59830834559E+02  0.56384145826E+03  0.56884411621E+03  0.00000000000E+00 0.  1.
         14    1    6    6    0    0 -0.30847390980E+02 -0.34721030589E+02  0.51142927119E+03  0.51353384594E+03  0.00000000000E+00 0. -1.
         -5    1    3    3    0  503 -0.15279867292E+02  0.80570907431E+02  0.30995497828E+02  0.87794967705E+02  0.47000000000E+01 0.  1.
         11    1    4    4    0    0 -0.38433908004E+02 -0.31125583396E+02  0.71100819481E+02  0.86610009566E+02  0.00000000000E+00 0. -1.
        -12    1    4    4    0    0  0.17352846814E+02  0.10869289985E+01 -0.20385910275E+02  0.26793432870E+02  0.00000000000E+00 0.  1.
</event>
<event>
12    1  0.1615162E-001  0.1924991E+03  0.7818608E-02  0.1156844E+00
         21   -1    0    0  503  502  0.00000000000E+00  0.00000000000E+00  0.92792809087E+03  0.92792809087E+03  0.00000000000E+00 0.  1.
         21   -1    0    0  501  503 -0.00000000000E+00 -0.00000000000E+00 -0.58314579333E+03  0.58314579333E+03  0.00000000000E+00 0.  1.
          6    2    1    2  501    0 -0.78076308121E+02  0.39569335911E+01 -0.55728344096E+03  0.58869734118E+03  0.17288192136E+03 0.  0.
         24    2    3    3    0    0 -0.10454062519E+03  0.45279700018E+02 -0.42451417097E+03  0.44707213101E+03  0.81744818917E+02 0.  0.
         -6    2    1    2    0  502  0.78076308121E+02 -0.39569335911E+01  0.90206573849E+03  0.92237654302E+03  0.17590998644E+03 0.  0.
        -24    2    5    5    0    0  0.11198871693E+03  0.10492460438E+02  0.82981544278E+03  0.84112980961E+03  0.79083013860E+02 0.  0.
          5    1    3    3  501    0  0.26464317070E+02 -0.41322766427E+02 -0.13276926998E+03  0.14162521017E+03  0.47000000000E+01 0. -1.
        -13    1    4    4    0    0 -0.10776539528E+03  0.27838307160E+02 -0.40774355953E+03  0.42266199510E+03  0.00000000000E+00 0.  1.
         14    1    4    4    0    0  0.32247700867E+01  0.17441392859E+02 -0.16770611448E+02  0.24410135913E+02  0.00000000000E+00 0. -1.
         -5    1    5    5    0  502 -0.33912408813E+02 -0.14449394029E+02  0.72250295709E+02  0.81246733407E+02  0.47000000000E+01 0.  1.
         11    1    6    6    0    0  0.65039208132E+01  0.23156187734E+02  0.28758625368E+03  0.28859030359E+03  0.00000000000E+00 0. -1.
        -12    1    6    6    0    0  0.10548479612E+03 -0.12663727296E+02  0.54222918910E+03  0.55253950602E+03  0.00000000000E+00 0.  1.
</event>
<event>
12    1  0.1615162E-001  0.2081003E+03  0.7818608E-02  0.1143279E+00
         21   -1    0    0  503  502  0.00000000000E+00  0.00000000000E+00  0.14002678645E+04  0.14002678645E+04  0.00000000000E+00 0. -1.
         21   -1    0    0  501  503 -0.00000000000E+00 -0.00000000000E+00 -0.16942432637E+03  0.16942432637E+03  0.00000000000E+00 0.  1.
          6    2    1    2  501    0  0.66738868537E+02  0.93922405206E+02 -0.94295058250E+02  0.22846723418E+03  0.17329230885E+03 0.  0.
         24    2    3    3    0    0  0.54320045527E+02  0.56121568934E+02 -0.13232864060E+03  0.17322437243E+03  0.79971971549E+02 0.  0.
         -6    2    1    2    0  502 -0.66738868537E+02 -0.93922405206E+02  0.13251385964E+04  0.13412249567E+04  0.17209471247E+03 0.  0.
        -24    2    5    5    0    0 -0.77438110115E+01 -0.93297681968E+02  0.11475980732E+04  0.11540791995E+04  0.78441295651E+02 0.  0.
          5    1    3    3  501    0  0.12418823011E+02  0.37800836271E+02  0.38033582351E+02  0.55242861749E+02  0.47000000000E+01 0. -1.
        -13    1    4    4    0    0  0.29682241520E+02 -0.16576507996E+02 -0.51913286491E+02  0.62054857935E+02  0.00000000000E+00 0.  1.
         14    1    4    4    0    0  0.24637804007E+02  0.72698076930E+02 -0.80415354110E+02  0.11116951449E+03  0.00000000000E+00 0. -1.
         -5    1    5    5    0  502 -0.58995057526E+02 -0.62472323735E+00  0.17754052318E+03  0.18714575727E+03  0.47000000000E+01 0.  1.
         13    1    6    6    0    0 -0.24828884024E+02 -0.61196153887E+02  0.99574314340E+03  0.99793078435E+03  0.00000000000E+00 0. -1.
        -14    1    6    6    0    0  0.17085073013E+02 -0.32101528081E+02  0.15185492984E+03  0.15614841511E+03  0.00000000000E+00 0.  1.
</event>
<event>
12    1  0.1615162E-001  0.1795748E+03  0.7818608E-02  0.1168878E+00
         21   -1    0    0  503  502  0.00000000000E+00  0.00000000000E+00  0.60252013843E+03  0.60252013843E+03  0.00000000000E+00 0.  1.
         21   -1    0    0  501  503 -0.00000000000E+00 -0.00000000000E+00 -0.56107358697E+02  0.56107358697E+02  0.00000000000E+00 0.  1.
          6    2    1    2  501    0  0.38078577136E+02 -0.22377664148E+02  0.35611282303E+03  0.39882757529E+03  0.17405847924E+03 0.  0.
         24    2    3    3    0    0  0.78369313300E+02  0.25420785181E+02  0.18928739530E+03  0.22061183940E+03  0.77793959145E+02 0.  0.
         -6    2    1    2    0  502 -0.38078577136E+02  0.22377664148E+02  0.19029995670E+03  0.25979992184E+03  0.17126350451E+03 0.  0.
        -24    2    5    5    0    0 -0.57180564411E+02  0.73349691292E+02  0.13810192467E+03  0.18423698107E+03  0.78875404523E+02 0.  0.
          5    1    3    3  501    0 -0.40290736164E+02 -0.47798449330E+02  0.16682542774E+03  0.17821573589E+03  0.47000000000E+01 0. -1.
        -13    1    4    4    0    0 -0.88132048270E+01  0.20165993866E+02  0.18352674801E+02  0.28655899223E+02  0.00000000000E+00 0.  1.
         14    1    4    4    0    0  0.87182518127E+02  0.52547913150E+01  0.17093472049E+03  0.19195594018E+03  0.00000000000E+00 0. -1.
         -5    1    5    5    0  502  0.19101987275E+02 -0.50972027143E+02  0.52198032030E+02  0.75562940763E+02  0.47000000000E+01 0.  1.
         13    1    6    6    0    0 -0.69834410553E+02  0.57472341742E+02  0.13666691418E+03  0.16388337437E+03  0.00000000000E+00 0. -1.
        -14    1    6    6    0    0  0.12653846141E+02  0.15877349549E+02  0.14350104911E+01  0.20353606707E+02  0.00000000000E+00 0.  1.
</event>
<event>
12    1  0.1615162E-001  0.1841516E+03  0.7818608E-02  0.1164243E+00
         21   -1    0    0  501  502  0.00000000000E+00  0.00000000000E+00  0.27574543049E+03  0.27574543049E+03  0.00000000000E+00 0. -1.
         21   -1    0    0  502  503 -0.00000000000E+00 -0.00000000000E+00 -0.14658319302E+03  0.14658319302E+03  0.00000000000E+00 0. -1.
         -6    2    1    2    0  503  0.35126445775E-02  0.59380599309E+02  0.15155562041E+03  0.23849721974E+03  0.17431512315E+03 0.  0.
        -24    2    3    3    0    0 -0.61558361353E+02  0.66129735312E+02  0.75978264278E+02  0.14067369533E+03  0.76510248797E+02 0.  0.
          6    2    1    2  501    0 -0.35126445775E-02 -0.59380599309E+02 -0.22393382933E+02  0.18383140377E+03  0.17252960855E+03 0.  0.
         24    2    5    5    0    0 -0.35353400633E+02  0.16044213083E+02 -0.41615082740E+02  0.98215513610E+02  0.80044939206E+02 0.  0.
          5    1    5    5  501    0  0.35349887988E+02 -0.75424812393E+02  0.19221699807E+02  0.85615890165E+02  0.47000000000E+01 0. -1.
        -11    1    6    6    0    0 -0.41407881927E+02  0.59126044256E+01 -0.61923281590E+02  0.74726597538E+02  0.00000000000E+00 0.  1.
         12    1    6    6    0    0  0.60544812941E+01  0.10131608658E+02  0.20308198849E+02  0.23488916072E+02  0.00000000000E+00 0. -1.
         -5    1    3    3    0  503  0.61561873998E+02 -0.67491360026E+01  0.75577356132E+02  0.97823524404E+02  0.47000000000E+01 0.  1.
         11    1    4    4    0    0 -0.29889555565E+02 -0.95931766966E+01  0.42648137105E+01  0.31679697079E+02  0.00000000000E+00 0. -1.
        -12    1    4    4    0    0 -0.31668805788E+02  0.75722912008E+02  0.71713450568E+02  0.10899399825E+03  0.00000000000E+00 0.  1.
</event>
<event>
12    1  0.1615162E-001  0.2011828E+03  0.7818608E-02  0.1150276E+00
         21   -1    0    0  501  502  0.00000000000E+00  0.00000000000E+00  0.12371413244E+04  0.12371413244E+04  0.00000000000E+00 0. -1.
         21   -1    0    0  502  503 -0.00000000000E+00 -0.00000000000E+00 -0.34797511978E+02  0.34797511978E+02  0.00000000000E+00 0. -1.
         -6    2    1    2    0  503  0.45028853417E+02  0.80674379648E+02  0.39732405160E+03  0.44216094963E+03  0.17059879902E+03 0.  0.
        -24    2    3    3    0    0 -0.41613172767E+02  0.51721678429E+02  0.22060990332E+03  0.24317582503E+03  0.77839349116E+02 0.  0.
          6    2    1    2  501    0 -0.45028853417E+02 -0.80674379648E+02  0.80501976084E+03  0.82977788676E+03  0.17871366161E+03 0.  0.
         24    2    5    5    0    0  0.24077629090E+02  0.10933307283E+02  0.40088018700E+03  0.40963676836E+03  0.79988050561E+02 0.  0.
          5    1    5    5  501    0 -0.69106482507E+02 -0.91607686931E+02  0.40413957384E+03  0.42014111841E+03  0.47000000000E+01 0. -1.
        -13    1    6    6    0    0 -0.22446777031E+02  0.19420696278E+02  0.80754353870E+02  0.86036544050E+02  0.00000000000E+00 0.  1.
         14    1    6    6    0    0  0.46524406121E+02 -0.84873889949E+01  0.32012583313E+03  0.32360022431E+03  0.00000000000E+00 0. -1.
         -5    1    3    3    0  503  0.86642026184E+02  0.28952701220E+02  0.17671414828E+03  0.19898512460E+03  0.47000000000E+01 0.  1.
         13    1    4    4    0    0  0.16907956525E+02  0.15545705059E+02  0.17933158200E+02  0.29140111576E+02  0.00000000000E+00 0. -1.
        -14    1    4    4    0    0 -0.58521129292E+02  0.36175973370E+02  0.20267674512E+03  0.21403571346E+03  0.00000000000E+00 0.  1.
</event>
<event>
12    1  0.1615162E-001  0.1846998E+03  0.7818608E-02  0.1163957E+00
         21   -1    0    0  501  502  0.00000000000E+00  0.00000000000E+00  0.20710913434E+03  0.20710913434E+03  0.00000000000E+00 0.  1.
         21   -1    0    0  502  503 -0.00000000000E+00 -0.00000000000E+00 -0.20087699548E+03  0.20087699548E+03  0.00000000000E+00 0. -1.
         -6    2    1    2    0  503 -0.61394810601E+01  0.65029364904E+02 -0.86233594962E+02  0.20143361081E+03  0.16991984916E+03 0.  0.
        -24    2    3    3    0    0 -0.43698108958E+01 -0.11714017374E+02 -0.92009141521E+02  0.12430951993E+03  0.82649024025E+02 0.  0.
          6    2    1    2  501    0  0.61394810601E+01 -0.65029364904E+02  0.92465733824E+02  0.20655251901E+03  0.17276434716E+03 0.  0.
         24    2    5    5    0    0  0.82756431738E+01 -0.51817587642E+02  0.13278377573E+03  0.16381203761E+03  0.80307558229E+02 0.  0.
          5    1    5    5  501    0 -0.21361621136E+01 -0.13211777263E+02 -0.40318041909E+02  0.42740481401E+02  0.47000000000E+01 0. -1.
        -13    1    6    6    0    0  0.29296446831E+02 -0.53887525944E+02  0.52312567882E+02  0.80614837392E+02  0.00000000000E+00 0.  1.
         14    1    6    6    0    0 -0.21020803657E+02  0.20699383018E+01  0.80471207851E+02  0.83197200217E+02  0.00000000000E+00 0. -1.
         -5    1    3    3    0  503 -0.17696701644E+01  0.76743382278E+02  0.57755465591E+01  0.77124090880E+02  0.47000000000E+01 0.  1.
         13    1    4    4    0    0 -0.22851351322E+02  0.22371617682E+02 -0.75826794404E+02  0.82294448686E+02  0.00000000000E+00 0. -1.
        -14    1    4    4    0    0  0.18481540427E+02 -0.34085635056E+02 -0.16182347118E+02  0.42015071248E+02  0.00000000000E+00 0.  1.
</event>
<event>
12    1  0.1615162E-001  0.2628870E+03  0.7818608E-02  0.1105476E+00
         21   -1    0    0  501  502  0.00000000000E+00  0.00000000000E+00  0.33207440053E+03  0.33207440053E+03  0.00000000000E+00 0. -1.
         21   -1    0    0  502  503 -0.00000000000E+00 -0.00000000000E+00 -0.21068621160E+03  0.21068621160E+03  0.00000000000E+00 0.  1.
         -6    2    1    2    0  503 -0.19844938216E+03  0.19475338397E+02  0.92383999500E+02  0.27864736984E+03  0.17131289289E+03 0.  0.
        -24    2    3    3    0    0 -0.18034237358E+03 -0.11189089180E+00  0.12606180434E+03  0.23542922724E+03  0.83737436641E+02 0.  0.
          6    2    1    2  501    0  0.19844938216E+03 -0.19475338397E+02  0.29004189433E+02  0.26411324229E+03  0.17074283489E+03 0.  0.
         24    2    5    5    0    0  0.73603515664E+02 -0.35372921783E+02 -0.41729526272E+02  0.11966750135E+03  0.76878061913E+02 0.  0.
          5    1    5    5  501    0  0.12484586650E+03  0.15897583386E+02  0.70733715705E+02  0.14444574094E+03  0.47000000000E+01 0. -1.
        -11    1    6    6    0    0  0.71359728066E+02 -0.98676956894E+01 -0.55181954429E+02  0.90744863780E+02  0.00000000000E+00 0.  1.
         12    1    6    6    0    0  0.22437875978E+01 -0.25505226093E+02  0.13452428157E+02  0.28922637573E+02  0.00000000000E+00 0. -1.
         -5    1    3    3    0  503 -0.18107008579E+02  0.19587229289E+02 -0.33677804843E+02  0.43218142601E+02  0.47000000000E+01 0.  1.
         11    1    4    4    0    0 -0.39678834527E+02  0.29772286509E+02  0.58037102535E+02  0.76348570543E+02  0.00000000000E+00 0. -1.
        -12    1    4    4    0    0 -0.14066353905E+03 -0.29884177401E+02  0.68024701808E+02  0.15908065669E+03  0.00000000000E+00 0.  1.
</event>
<event>
12    1  0.1615162E-001  0.1897989E+03  0.7818608E-02  0.1158959E+00
         21   -1    0    0  501  502  0.00000000000E+00  0.00000000000E+00  0.65387641642E+03  0.65387641642E+03  0.00000000000E+00 0. -1.
         21   -1    0    0  502  503 -0.00000000000E+00 -0.00000000000E+00 -0.55103757482E+02  0.55103757482E+02  0.00000000000E+00 0.  1.
         -6    2    1    2    0  503  0.66186952883E+02  0.38074604295E+02  0.26751882940E+03  0.32720440728E+03  0.17223824150E+03 0.  0.
        -24    2    3    3    0    0 -0.17694667223E+02  0.41369894344E+02  0.84062727471E+02  0.12539951026E+03  0.81448914152E+02 0.  0.
          6    2    1    2  501    0 -0.66186952883E+02 -0.38074604295E+02  0.33125382953E+03  0.38177576662E+03  0.17376204468E+03 0.  0.
         24    2    5    5    0    0 -0.32216377245E+02 -0.76463589750E+02  0.13317963477E+03  0.17712193488E+03  0.82163186271E+02 0.  0.
          5    1    5    5  501    0 -0.33970575638E+02  0.38388985454E+02  0.19807419476E+03  0.20465383173E+03  0.47000000000E+01 0. -1.
        -11    1    6    6    0    0 -0.26959652152E+02  0.88106231891E+01  0.17551987044E+02  0.33354492566E+02  0.00000000000E+00 0.  1.
         12    1    6    6    0    0 -0.52567250926E+01 -0.85274212939E+02  0.11562764773E+03  0.14376744232E+03  0.00000000000E+00 0. -1.
         -5    1    3    3    0  503  0.83881620106E+02 -0.32952900491E+01  0.18345610193E+03  0.20180489703E+03  0.47000000000E+01 0.  1.
         11    1    4    4    0    0 -0.27667811323E+02  0.29542012278E+02  0.56352232008E+00  0.40479078921E+02  0.00000000000E+00 0. -1.
        -12    1    4    4    0    0  0.99731441003E+01  0.11827882066E+02  0.83499205151E+02  0.84920431336E+02  0.00000000000E+00 0.  1.
</event>
<event>
12    1  0.1615162E-001  0.1903020E+03  0.7818608E-02  0.1161338E+00
         21   -1    0    0  503  502  0.00000000000E+00  0.00000000000E+00  0.80992007392E+02  0.80992007392E+02  0.00000000000E+00 0.  1.
         21   -1    0    0  501  503 -0.00000000000E+00 -0.00000000000E+00 -0.67464329857E+03  0.67464329857E+03  0.00000000000E+00 0.  1.
          6    2    1    2  501    0  0.36506005399E+02 -0.19758176954E+02 -0.52391771535E+03  0.55295916584E+03  0.17190402161E+03 0.  0.
         24    2    3    3    0    0 -0.36738807972E+02  0.16693381574E+02 -0.30665353974E+03  0.32075380241E+03  0.84959986609E+02 0.  0.
         -6    2    1    2    0  502 -0.36506005399E+02  0.19758176954E+02 -0.69733575836E+02  0.20267614013E+03  0.18571960637E+03 0.  0.
        -24    2    5    5    0    0 -0.95059147179E+02  0.29977365796E+01 -0.22824933528E+02  0.12565735347E+03  0.78889574752E+02 0.  0.
          5    1    3    3  501    0  0.73244813371E+02 -0.36451558529E+02 -0.21726417561E+03  0.23220536343E+03  0.47000000000E+01 0. -1.
        -11    1    4    4    0    0  0.13846968513E+02 -0.90680676316E+01 -0.19303164944E+03  0.19373999606E+03  0.00000000000E+00 0.  1.
         12    1    4    4    0    0 -0.50585776486E+02  0.25761449206E+02 -0.11362189030E+03  0.12701380635E+03  0.00000000000E+00 0. -1.
         -5    1    5    5    0  502  0.58553141781E+02  0.16760440375E+02 -0.46908642308E+02  0.77018786651E+02  0.47000000000E+01 0.  1.
         13    1    6    6    0    0 -0.47066253731E+02 -0.17506114115E+02 -0.46417325707E+02  0.68383217221E+02  0.00000000000E+00 0. -1.
        -14    1    6    6    0    0 -0.47992893448E+02  0.20503850695E+02  0.23592392179E+02  0.57274136254E+02  0.00000000000E+00 0.  1.
</event>
<event>
12    1  0.1615162E-001  0.2732991E+03  0.7818608E-02  0.1099414E+00
         21   -1    0    0  501  502  0.00000000000E+00  0.00000000000E+00  0.15678869683E+03  0.15678869683E+03  0.00000000000E+00 0. -1.
         21   -1    0    0  502  503 -0.00000000000E+00 -0.00000000000E+00 -0.85144875299E+03  0.85144875299E+03  0.00000000000E+00 0.  1.
         -6    2    1    2    0  503  0.15046870429E+02  0.21194448648E+03 -0.68197855873E+03  0.73470207878E+03  0.17188809249E+03 0.  0.
        -24    2    3    3    0    0  0.30200210168E+02  0.21663153142E+03 -0.49828420653E+03  0.55026429218E+03  0.81623328003E+02 0.  0.
          6    2    1    2  501    0 -0.15046870429E+02 -0.21194448648E+03 -0.12681497430E+02  0.27353537104E+03  0.17179611514E+03 0.  0.
         24    2    5    5    0    0 -0.72025702149E+02 -0.15632403096E+03 -0.18475757561E+02  0.19356108901E+03  0.86600445351E+02 0.  0.
          5    1    5    5  501    0  0.56978831721E+02 -0.55620455520E+02  0.57942601314E+01  0.79974282035E+02  0.47000000000E+01 0. -1.
        -13    1    6    6    0    0 -0.68082545783E+02 -0.16147784306E+03 -0.13518453556E+01  0.17524883545E+03  0.00000000000E+00 0.  1.
         14    1    6    6    0    0 -0.39431563664E+01  0.51538120998E+01 -0.17123912206E+02  0.18312253562E+02  0.00000000000E+00 0. -1.
         -5    1    3    3    0  503 -0.15153339739E+02 -0.46870449404E+01 -0.18369435219E+03  0.18443778659E+03  0.47000000000E+01 0.  1.
         11    1    4    4    0    0  0.49201108676E+02  0.77648900414E+02 -0.16989168729E+03  0.19316647287E+03  0.00000000000E+00 0. -1.
        -12    1    4    4    0    0 -0.19000898508E+02  0.13898263101E+03 -0.32839251925E+03  0.35709781932E+03  0.00000000000E+00 0.  1.
</event>
<event>
12    1  0.1615162E-001  0.2074973E+03  0.7818608E-02  0.1143574E+00
         21   -1    0    0  501  502  0.00000000000E+00  0.00000000000E+00  0.10374263537E+03  0.10374263537E+03  0.00000000000E+00 0. -1.
         21   -1    0    0  502  503 -0.00000000000E+00 -0.00000000000E+00 -0.54616716158E+03  0.54616716158E+03  0.00000000000E+00 0.  1.
         -6    2    1    2    0  503  0.90297844881E+02  0.76819785155E+02 -0.38048973384E+03  0.43336639478E+03  0.17023223662E+03 0.  0.
        -24    2    3    3    0    0  0.10556213018E+03  0.80851425736E+02 -0.20490135655E+03  0.25700704353E+03  0.79923326616E+02 0.  0.
          6    2    1    2  501    0 -0.90297844881E+02 -0.76819785155E+02 -0.61934792365E+02  0.21654340217E+03  0.17029429332E+03 0.  0.
         24    2    5    5    0    0 -0.62202802536E+02 -0.12725079640E+02 -0.95175344250E+02  0.13892583348E+03  0.78809420503E+02 0.  0.
          5    1    5    5  501    0 -0.28095042345E+02 -0.64094705514E+02  0.33240551885E+02  0.77617568687E+02  0.47000000000E+01 0. -1.
        -13    1    6    6    0    0  0.10438427065E+02  0.15449693285E+02 -0.37857095214E+02  0.42199685309E+02  0.00000000000E+00 0.  1.
         14    1    6    6    0    0 -0.72641229602E+02 -0.28174772926E+02 -0.57318249037E+02  0.96726148171E+02  0.00000000000E+00 0. -1.
         -5    1    3    3    0  503 -0.15264285302E+02 -0.40316405811E+01 -0.17558837730E+03  0.17635935125E+03  0.47000000000E+01 0.  1.
         13    1    4    4    0    0  0.63119351146E+01 -0.11521256350E+02 -0.24743570763E+01  0.13367958547E+02  0.00000000000E+00 0. -1.
        -14    1    4    4    0    0  0.99250195069E+02  0.92372682086E+02 -0.20242699947E+03  0.24363908499E+03  0.00000000000E+00 0.  1.
</event>
<event>
12    1  0.1615162E-001  0.1826255E+03  0.7818608E-02  0.1165728E+00
         21   -1    0    0  503  502  0.00000000000E+00  0.00000000000E+00  0.91414446953E+02  0.91414446953E+02  0.00000000000E+00 0.  1.
         21   -1    0    0  501  503 -0.00000000000E+00 -0.00000000000E+00 -0.39900765669E+03  0.39900765669E+03  0.00000000000E+00 0. -1.
          6    2    1    2  501    0  0.88177924339E+01 -0.59456245493E+02 -0.22861468822E+03  0.29145052805E+03  0.17048734861E+03 0.  0.
         24    2    3    3    0    0 -0.25028297906E+02 -0.98799145845E+02 -0.14814422591E+03  0.19558078858E+03  0.76924939242E+02 0.  0.
         -6    2    1    2    0  502 -0.88177924339E+01  0.59456245493E+02 -0.78978521515E+02  0.19897157560E+03  0.17245081166E+03 0.  0.
        -24    2    5    5    0    0 -0.16752352522E+02  0.98502511052E+02 -0.21875753441E+02  0.12918343750E+03  0.78907705175E+02 0.  0.
          5    1    3    3  501    0  0.33846090340E+02  0.39342900353E+02 -0.80470462314E+02  0.95869739462E+02  0.47000000000E+01 0. -1.
        -13    1    4    4    0    0 -0.57516494323E+01 -0.10550512407E+03 -0.11133818161E+03  0.15349463626E+03  0.00000000000E+00 0.  1.
         14    1    4    4    0    0 -0.19276648474E+02  0.67059782281E+01 -0.36806044300E+02  0.42086152324E+02  0.00000000000E+00 0. -1.
         -5    1    5    5    0  502  0.79345600879E+01 -0.39046265559E+02 -0.57102768074E+02  0.69788138101E+02  0.47000000000E+01 0.  1.
         11    1    6    6    0    0 -0.16469319565E+02  0.40968627833E+02 -0.48670728905E+02  0.65715346804E+02  0.00000000000E+00 0. -1.
        -12    1    6    6    0    0 -0.28303295714E+00  0.57533883219E+02  0.26794975464E+02  0.63468090692E+02  0.00000000000E+00 0.  1.
</event>
<event>
12    1  0.1615162E-001  0.2069016E+03  0.7818608E-02  0.1144162E+00
         21   -1    0    0  503  502  0.00000000000E+00  0.00000000000E+00  0.59308850402E+03  0.59308850402E+03  0.00000000000E+00 0.  1.
         21   -1    0    0  501  503 -0.00000000000E+00 -0.00000000000E+00 -0.32133734023E+03  0.32133734023E+03  0.00000000000E+00 0. -1.
          6    2    1    2  501    0  0.73115041718E+02  0.89166992930E+02 -0.26693518784E+03  0.33737190564E+03  0.17108140243E+03 0.  0.
         24    2    3    3    0    0  0.45263424016E+02  0.43902676516E+02 -0.26546523971E+03  0.28399755135E+03  0.78781933956E+02 0.  0.
         -6    2    1    2    0  502 -0.73115041718E+02 -0.89166992930E+02  0.53868635163E+03  0.57705393861E+03  0.17178969899E+03 0.  0.
        -24    2    5    5    0    0 -0.51308591346E+02 -0.11501855684E+03  0.25060314576E+03  0.28695421758E+03  0.60654318569E+02 0.  0.
          5    1    3    3  501    0  0.27851617702E+02  0.45264316414E+02 -0.14699481283E+01  0.53374354296E+02  0.47000000000E+01 0. -1.
        -13    1    4    4    0    0 -0.21905072090E+02  0.18187409953E+02 -0.62927764858E+02  0.69068934074E+02  0.00000000000E+00 0.  1.
         14    1    4    4    0    0  0.67168496106E+02  0.25715266563E+02 -0.20253747485E+03  0.21492861727E+03  0.00000000000E+00 0. -1.
         -5    1    5    5    0  502 -0.21806450372E+02  0.25851563909E+02  0.28808320587E+03  0.29009972103E+03  0.47000000000E+01 0.  1.
         13    1    6    6    0    0 -0.12102124894E+02 -0.80849927442E+02  0.11007714984E+03  0.13711364306E+03  0.00000000000E+00 0. -1.
        -14    1    6    6    0    0 -0.39206466452E+02 -0.34168629396E+02  0.14052599592E+03  0.14984057453E+03  0.00000000000E+00 0.  1.
</event>
<event>
12    1  0.1615162E-001  0.2126346E+03  0.7818608E-02  0.1139613E+00
         21   -1    0    0  503  502  0.00000000000E+00  0.00000000000E+00  0.85808843912E+02  0.85808843912E+02  0.00000000000E+00 0.  1.
         21   -1    0    0  501  503 -0.00000000000E+00 -0.00000000000E+00 -0.76639746609E+03  0.76639746609E+03  0.00000000000E+00 0.  1.
          6    2    1    2  501    0  0.10983121290E+02 -0.12527827161E+03 -0.57889530168E+03  0.61650522464E+03  0.17071510598E+03 0.  0.
         24    2    3    3    0    0  0.63156070718E+02 -0.12200492423E+03 -0.41044417373E+03  0.44006655552E+03  0.79500080047E+02 0.  0.
         -6    2    1    2    0  502 -0.10983121290E+02  0.12527827161E+03 -0.10169332049E+03  0.23570108535E+03  0.17145902109E+03 0.  0.
        -24    2    5    5    0    0  0.53595195227E+02  0.27035276438E+02 -0.58798029757E+02  0.11046474465E+03  0.71707045570E+02 0.  0.
          5    1    3    3  501    0 -0.52172949428E+02 -0.32733473816E+01 -0.16845112795E+03  0.17643866913E+03  0.47000000000E+01 0. -1.
        -11    1    4    4    0    0  0.15250398742E+02 -0.10689856302E+03 -0.29613869445E+03  0.31521104642E+03  0.00000000000E+00 0.  1.
         12    1    4    4    0    0  0.47905671976E+02 -0.15106361212E+02 -0.11430547928E+03  0.12485550909E+03  0.00000000000E+00 0. -1.
         -5    1    5    5    0  502 -0.64578316516E+02  0.98242995177E+02 -0.42895290732E+02  0.12523634070E+03  0.47000000000E+01 0.  1.
         11    1    6    6    0    0  0.24779599876E+02  0.29064004935E+02 -0.69789773139E+02  0.79557258548E+02  0.00000000000E+00 0. -1.
        -12    1    6    6    0    0  0.28815595350E+02 -0.20287284971E+01  0.10991743382E+02  0.30907486104E+02  0.00000000000E+00 0.  1.
</event>
<event>
12    1  0.1615162E-001  0.2492184E+03  0.7818608E-02  0.1113965E+00
         21   -1    0    0  503  502  0.00000000000E+00  0.00000000000E+00  0.10770437607E+04  0.10770437607E+04  0.00000000000E+00 0.  1.
         21   -1    0    0  501  503 -0.00000000000E+00 -0.00000000000E+00 -0.17493136505E+03  0.17493136505E+03  0.00000000000E+00 0. -1.
          6    2    1    2  501    0 -0.10468030326E+03  0.14352693699E+03 -0.61683672019E+02  0.25673855417E+03  0.17479091015E+03 0.  0.
         24    2    3    3    0    0 -0.64194158625E+02  0.16097648738E+03 -0.82734374244E+02  0.20765865217E+03  0.79011515937E+02 0.  0.
         -6    2    1    2    0  502  0.10468030326E+03 -0.14352693699E+03  0.96379606768E+03  0.99523657159E+03  0.17330616210E+03 0.  0.
        -24    2    5    5    0    0  0.54173942193E+02 -0.16500035535E+03  0.70166740666E+03  0.72738301993E+03  0.81172500553E+02 0.  0.
          5    1    3    3  501    0 -0.40486144639E+02 -0.17449550381E+02  0.21050702224E+02  0.49079902001E+02  0.47000000000E+01 0. -1.
        -13    1    4    4    0    0  0.12703978705E+02  0.29660792615E+02  0.39801204835E+01  0.32511460327E+02  0.00000000000E+00 0.  1.
         14    1    4    4    0    0 -0.76898137330E+02  0.13131569476E+03 -0.86714494727E+02  0.17514719184E+03  0.00000000000E+00 0. -1.
         -5    1    5    5    0  502  0.50506361071E+02  0.21473418360E+02  0.26212866103E+03  0.26785355166E+03  0.47000000000E+01 0.  1.
         13    1    6    6    0    0 -0.14965896078E+01  0.45860790151E+01  0.91956935994E+02  0.92083386008E+02  0.00000000000E+00 0. -1.
        -14    1    6    6    0    0  0.55670531801E+02 -0.16958643437E+03  0.60971047066E+03  0.63529963393E+03  0.00000000000E+00 0.  1.
</event>
<event>
12    1  0.1615162E-001  0.2405536E+03  0.7818608E-02  0.1120199E+00
         21   -1    0    0  503  502  0.00000000000E+00  0.00000000000E+00  0.16039294191E+03  0.16039294191E+03  0.00000000000E+00 0. -1.
         21   -1    0    0  501  503 -0.00000000000E+00 -0.00000000000E+00 -0.36810165281E+03  0.36810165281E+03  0.00000000000E+00 0.  1.
          6    2    1    2  501    0  0.12160213964E+03 -0.10444406411E+03 -0.15480641365E+03  0.28219253745E+03  0.17312411615E+03 0.  0.
         24    2    3    3    0    0  0.96489466791E+02 -0.11005878102E+03 -0.18083961123E+03  0.24528740556E+03  0.77716110671E+02 0.  0.
         -6    2    1    2    0  502 -0.12160213964E+03  0.10444406411E+03 -0.52902297248E+02  0.24630205727E+03  0.17936110914E+03 0.  0.
        -24    2    5    5    0    0 -0.43124926943E+02  0.10491638133E+00  0.27129068205E+02  0.93094876901E+02  0.77915976746E+02 0.  0.
          5    1    3    3  501    0  0.25112672846E+02  0.56147169060E+01  0.26033197580E+02  0.36905131888E+02  0.47000000000E+01 0. -1.
        -13    1    4    4    0    0  0.30434360818E+02  0.48925795022E+01 -0.51803274259E+02  0.60280733876E+02  0.00000000000E+00 0.  1.
         14    1    4    4    0    0  0.66055105972E+02 -0.11495136052E+03 -0.12903633697E+03  0.18500667169E+03  0.00000000000E+00 0. -1.
         -5    1    5    5    0  502 -0.78477212694E+02  0.10433914773E+03 -0.80031365454E+02  0.15320718037E+03  0.47000000000E+01 0.  1.
         13    1    6    6    0    0 -0.51432684178E+02  0.18109897888E+02 -0.56134129332E+01  0.54816054290E+02  0.00000000000E+00 0. -1.
        -14    1    6    6    0    0  0.83077572350E+01 -0.18004981506E+02  0.32742481139E+02  0.38278822610E+02  0.00000000000E+00 0.  1.
</event>
<event>
12    1  0.1615162E-001  0.1752073E+03  0.7818608E-02  0.1172909E+00
         21   -1    0    0  501  502  0.00000000000E+00  0.00000000000E+00  0.23049289347E+03  0.23049289347E+03  0.00000000000E+00 0. -1.
         21   -1    0    0  502  503 -0.00000000000E+00 -0.00000000000E+00 -0.18943429059E+03  0.18943429059E+03  0.00000000000E+00 0. -1.
         -6    2    1    2    0  503 -0.22075951283E+02  0.18761684326E+02 -0.95122627264E+02  0.19801973032E+03  0.17124295884E+03 0.  0.
        -24    2    3    3    0    0  0.19143469521E+02  0.68720612571E+02 -0.73231857039E+02  0.12949067820E+03  0.79472862278E+02 0.  0.
          6    2    1    2  501    0  0.22075951283E+02 -0.18761684326E+02  0.13618123015E+03  0.22190745374E+03  0.17279537655E+03 0.  0.
         24    2    5    5    0    0  0.36415940955E+02 -0.53753031409E+02  0.14976483387E+03  0.18145212079E+03  0.79245552142E+02 0.  0.
          5    1    5    5  501    0 -0.14339989672E+02  0.34991347082E+02 -0.13583603718E+02  0.40455332954E+02  0.47000000000E+01 0. -1.
        -13    1    6    6    0    0 -0.17977708489E+02 -0.61304529255E+01  0.50033447170E+01  0.19642146368E+02  0.00000000000E+00 0.  1.
         14    1    6    6    0    0  0.54393649444E+02 -0.47622578483E+02  0.14476148915E+03  0.16180997442E+03  0.00000000000E+00 0. -1.
         -5    1    3    3    0  503 -0.41219420804E+02 -0.49958928245E+02 -0.21890770225E+02  0.68529052115E+02  0.47000000000E+01 0.  1.
         13    1    4    4    0    0  0.69211791416E+01  0.31661629808E+02 -0.83136993523E+02  0.89230719009E+02  0.00000000000E+00 0. -1.
        -14    1    4    4    0    0  0.12222290379E+02  0.37058982763E+02  0.99051364839E+01  0.40259959194E+02  0.00000000000E+00 0.  1.
</event>
<event>
12    1  0.1615162E-001  0.2118496E+03  0.7818608E-02  0.1140394E+00
         21   -1    0    0  503  502  0.00000000000E+00  0.00000000000E+00  0.17194919117E+03  0.17194919117E+03  0.00000000000E+00 0.  1.
         21   -1    0    0  501  503 -0.00000000000E+00 -0.00000000000E+00 -0.31011455369E+03  0.31011455369E+03  0.00000000000E+00 0.  1.
          6    2    1    2  501    0 -0.47216816726E+02 -0.11408959621E+03 -0.16652257827E+03  0.26832473428E+03  0.17036000179E+03 0.  0.
         24    2    3    3    0    0 -0.62477131204E+02 -0.14427219281E+03 -0.14133320827E+03  0.22589289840E+03  0.79590629141E+02 0.  0.
         -6    2    1    2    0  502  0.47216816726E+02  0.11408959621E+03  0.28357215754E+02  0.21373901057E+03  0.17214635984E+03 0.  0.
        -24    2    5    5    0    0 -0.34011457106E+02  0.33907482930E+02 -0.99342026418E+01  0.93258611816E+02  0.79322025205E+02 0.  0.
          5    1    3    3  501    0  0.15260314477E+02  0.30182596596E+02 -0.25189369998E+02  0.42431835880E+02  0.47000000000E+01 0. -1.
        -11    1    4    4    0    0  0.78548562002E+01 -0.61011154086E+02 -0.24776185773E+02  0.66316808354E+02  0.00000000000E+00 0.  1.
         12    1    4    4    0    0 -0.70331987404E+02 -0.83261038724E+02 -0.11655702250E+03  0.15957609005E+03  0.00000000000E+00 0. -1.
         -5    1    5    5    0  502  0.81228273832E+02  0.80182113284E+02  0.38291418396E+02  0.12048039875E+03  0.47000000000E+01 0.  1.
         11    1    6    6    0    0 -0.27905891369E+02  0.45487150630E+02 -0.35805506652E+02  0.64263939750E+02  0.00000000000E+00 0. -1.
        -12    1    6    6    0    0 -0.61055657365E+01 -0.11579667701E+02  0.25871304010E+02  0.28994672066E+02  0.00000000000E+00 0.  1.
</event>
<event>
12    1  0.1615162E-001  0.2266483E+03  0.7818608E-02  0.1129023E+00
         21   -1    0    0  501  502  0.00000000000E+00  0.00000000000E+00  0.11015352024E+03  0.11015352024E+03  0.00000000000E+00 0. -1.
         21   -1    0    0  502  503 -0.00000000000E+00 -0.00000000000E+00 -0.51654948643E+03  0.51654948643E+03  0.00000000000E+00 0.  1.
         -6    2    1    2    0  503  0.10697897505E+03 -0.10197544819E+03 -0.30090890612E+03  0.37671688983E+03  0.17183117343E+03 0.  0.
        -24    2    3    3    0    0  0.13222353474E+03 -0.11166609461E+03 -0.29059711812E+03  0.34739762324E+03  0.79284574466E+02 0.  0.
          6    2    1    2  501    0 -0.10697897505E+03  0.10197544819E+03 -0.10548706007E+03  0.24998611684E+03  0.17181980570E+03 0.  0.
         24    2    5    5    0    0 -0.82141762464E+02  0.14264006494E+02 -0.76205007558E+01  0.11615735473E+03  0.80521599618E+02 0.  0.
          5    1    5    5  501    0 -0.24837212589E+02  0.87711441696E+02 -0.97866559317E+02  0.13382876210E+03  0.47000000000E+01 0. -1.
        -13    1    6    6    0    0 -0.26291512032E+02 -0.32671999775E+02 -0.10194768630E+02  0.43158272459E+02  0.00000000000E+00 0.  1.
         14    1    6    6    0    0 -0.55850250432E+02  0.46936006269E+02  0.25742678742E+01  0.72999082275E+02  0.00000000000E+00 0. -1.
         -5    1    3    3    0  503 -0.25244559684E+02  0.96906464167E+01 -0.10311787998E+02  0.29319266589E+02  0.47000000000E+01 0.  1.
         13    1    4    4    0    0  0.29393597445E+02  0.89227697528E+01 -0.62614295750E+02  0.69743454338E+02  0.00000000000E+00 0. -1.
        -14    1    4    4    0    0  0.10282993729E+03 -0.12058886436E+03 -0.22798282237E+03  0.27765416890E+03  0.00000000000E+00 0.  1.
</event>
<event>
12    1  0.1615162E-001  0.2232968E+03  0.7818608E-02  0.1131533E+00
         21   -1    0    0  503  502  0.00000000000E+00  0.00000000000E+00  0.35970827201E+03  0.35970827201E+03  0.00000000000E+00 0. -1.
         21   -1    0    0  501  503 -0.00000000000E+00 -0.00000000000E+00 -0.15665448066E+03  0.15665448066E+03  0.00000000000E+00 0. -1.
          6    2    1    2  501    0  0.66842585695E+02  0.12524795871E+03  0.13320566755E+02  0.22369377777E+03  0.17235569701E+03 0.  0.
         24    2    3    3    0    0  0.29338704886E+02  0.47346987777E+02  0.60448130717E+02  0.12511284842E+03  0.94322592604E+02 0.  0.
         -6    2    1    2    0  502 -0.66842585695E+02 -0.12524795871E+03  0.18973322460E+03  0.29266897490E+03  0.17175986123E+03 0.  0.
        -24    2    5    5    0    0 -0.17311277084E+02 -0.12022535472E+03  0.19425633068E+03  0.24245816360E+03  0.79351262459E+02 0.  0.
          5    1    3    3  501    0  0.37503880809E+02  0.77900970929E+02 -0.47127563962E+02  0.98580929354E+02  0.47000000000E+01 0. -1.
        -11    1    4    4    0    0  0.51345839223E+02  0.61658455305E+02  0.31946541409E+02  0.86364007689E+02  0.00000000000E+00 0.  1.
         12    1    4    4    0    0 -0.22007134337E+02 -0.14311467528E+02  0.28501589308E+02  0.38748840727E+02  0.00000000000E+00 0. -1.
         -5    1    5    5    0  502 -0.49531308611E+02 -0.50226039837E+01 -0.45231060767E+01  0.50210811307E+02  0.47000000000E+01 0.  1.
         13    1    6    6    0    0 -0.40390462299E+02 -0.39469990385E+02  0.10911130344E+03  0.12285986377E+03  0.00000000000E+00 0. -1.
        -14    1    6    6    0    0  0.23079185215E+02 -0.80755364337E+02  0.85145027234E+02  0.11959829983E+03  0.00000000000E+00 0.  1.
</event>
<event>
12    1  0.1615162E-001  0.1750880E+03  0.7818608E-02  0.1172994E+00
         21   -1    0    0  503  502  0.00000000000E+00  0.00000000000E+00  0.13379788662E+03  0.13379788662E+03  0.00000000000E+00 0.  1.
         21   -1    0    0  501  503 -0.00000000000E+00 -0.00000000000E+00 -0.35929938847E+03  0.35929938847E+03  0.00000000000E+00 0.  1.
          6    2    1    2  501    0 -0.96534600388E+01 -0.24334988425E+02 -0.26247016110E+03  0.31550972204E+03  0.17311966462E+03 0.  0.
         24    2    3    3    0    0 -0.32456804251E+02 -0.78479038151E+02 -0.19418145792E+03  0.22530435850E+03  0.76440903901E+02 0.  0.
         -6    2    1    2    0  502  0.96534600388E+01  0.24334988425E+02  0.36968659248E+02  0.17758755306E+03  0.17171277262E+03 0.  0.
        -24    2    5    5    0    0  0.19637462294E+02 -0.26296481841E+02 -0.32407491688E+02  0.90994444782E+02  0.78438565650E+02 0.  0.
          5    1    3    3  501    0  0.22803344212E+02  0.54144049727E+02 -0.68288703183E+02  0.90205363535E+02  0.47000000000E+01 0. -1.
        -13    1    4    4    0    0 -0.57397296023E+02 -0.55526311801E+02 -0.14567459693E+03  0.16612859201E+03  0.00000000000E+00 0.  1.
         14    1    4    4    0    0  0.24940491772E+02 -0.22952726350E+02 -0.48506860988E+02  0.59175766490E+02  0.00000000000E+00 0. -1.
         -5    1    5    5    0  502 -0.99840022549E+01  0.50631470265E+02  0.69376150936E+02  0.86593108276E+02  0.47000000000E+01 0.  1.
         11    1    6    6    0    0  0.48484028987E+02 -0.27240650403E+02 -0.16349393238E+02  0.57965996588E+02  0.00000000000E+00 0. -1.
        -12    1    6    6    0    0 -0.28846566694E+02  0.94416856173E+00 -0.16058098450E+02  0.33028448194E+02  0.00000000000E+00 0.  1.
</event>
<event>
12    1  0.1615162E-001  0.2035900E+03  0.7818608E-02  0.1146974E+00
         21   -1    0    0  503  502  0.00000000000E+00  0.00000000000E+00  0.52123910574E+03  0.52123910574E+03  0.00000000000E+00 0. -1.
         21   -1    0    0  501  503 -0.00000000000E+00 -0.00000000000E+00 -0.80259972033E+02  0.80259972033E+02  0.00000000000E+00 0. -1.
          6    2    1    2  501    0 -0.40083297383E+02  0.10097728606E+03  0.18356028742E+03  0.27330196737E+03  0.17086984293E+03 0.  0.
         24    2    3    3    0    0 -0.60179831989E+02  0.70029269161E+02  0.44866359496E+02  0.12970619412E+03  0.79277965805E+02 0.  0.
         -6    2    1    2    0  502  0.40083297383E+02 -0.10097728606E+03  0.25741884629E+03  0.32819711040E+03  0.17217955110E+03 0.  0.
        -24    2    5    5    0    0  0.28947437571E+02 -0.13058441842E+03  0.15390209007E+03  0.21985322050E+03  0.82215210018E+02 0.  0.
          5    1    3    3  501    0  0.20096534605E+02  0.30948016902E+02  0.13869392792E+03  0.14359577325E+03  0.47000000000E+01 0. -1.
        -11    1    4    4    0    0 -0.10570448155E+02 -0.13902135705E+02 -0.75341972927E+01  0.19020196640E+02  0.00000000000E+00 0.  1.
         12    1    4    4    0    0 -0.49609383834E+02  0.83931404867E+02  0.52400556789E+02  0.11068599748E+03  0.00000000000E+00 0. -1.
         -5    1    5    5    0  502  0.11135859813E+02  0.29607132361E+02  0.10351675622E+03  0.10834388990E+03  0.47000000000E+01 0.  1.
         11    1    6    6    0    0  0.53862386527E+02 -0.10558044306E+03  0.13557662887E+03  0.18008167296E+03  0.00000000000E+00 0. -1.
        -12    1    6    6    0    0 -0.24914948956E+02 -0.25003975360E+02  0.18325461195E+02  0.39771547535E+02  0.00000000000E+00 0.  1.
</event>
<event>
12    1  0.1615162E-001  0.2655749E+03  0.7818608E-02  0.1104460E+00
         21   -1    0    0  501  502  0.00000000000E+00  0.00000000000E+00  0.60438274199E+03  0.60438274199E+03  0.00000000000E+00 0. -1.
         21   -1    0    0  502  503 -0.00000000000E+00 -0.00000000000E+00 -0.15711634597E+03  0.15711634597E+03  0.00000000000E+00 0. -1.
         -6    2    1    2    0  503 -0.19768000679E+03  0.22232622043E+02  0.27474367145E+02  0.26699221681E+03  0.17594978948E+03 0.  0.
        -24    2    3    3    0    0 -0.11651830684E+03  0.69851044565E+02 -0.24547769567E+02  0.15936727355E+03  0.79621923067E+02 0.  0.
          6    2    1    2  501    0  0.19768000679E+03 -0.22232622043E+02  0.41979202887E+03  0.49450687116E+03  0.16952882809E+03 0.  0.
         24    2    5    5    0    0  0.41950451388E+02  0.92028365412E+01  0.91664376327E+02  0.12991157656E+03  0.81425593421E+02 0.  0.
          5    1    5    5  501    0  0.15572955540E+03 -0.31435458584E+02  0.32812765254E+03  0.36459529460E+03  0.47000000000E+01 0. -1.
        -11    1    6    6    0    0  0.33932768559E+02  0.27964836750E+02  0.98923144940E+02  0.10825550093E+03  0.00000000000E+00 0.  1.
         12    1    6    6    0    0  0.80176828295E+01 -0.18762000209E+02 -0.72587686134E+01  0.21656075627E+02  0.00000000000E+00 0. -1.
         -5    1    3    3    0  503 -0.81161699954E+02 -0.47618422522E+02  0.52022136712E+02  0.10762494326E+03  0.47000000000E+01 0.  1.
         13    1    4    4    0    0 -0.10480131667E+03  0.36897276036E+02  0.82597603995E+01  0.11141341300E+03  0.00000000000E+00 0. -1.
        -14    1    4    4    0    0 -0.11716990163E+02  0.32953768528E+02 -0.32807529967E+02  0.47953860545E+02  0.00000000000E+00 0.  1.
</event>
<event>
12    1  0.1615162E-001  0.2083694E+03  0.7818608E-02  0.1144202E+00
         21   -1    0    0  503  502  0.00000000000E+00  0.00000000000E+00  0.21145065258E+02  0.21145065258E+02  0.00000000000E+00 0.  1.
         21   -1    0    0  501  503 -0.00000000000E+00 -0.00000000000E+00 -0.30127849495E+04  0.30127849495E+04  0.00000000000E+00 0. -1.
          6    2    1    2  501    0  0.10320797391E+03  0.42984424148E+02 -0.23641937904E+04  0.23727897845E+04  0.16798671429E+03 0.  0.
         24    2    3    3    0    0  0.69918967369E+01  0.13901900276E+02 -0.50001277805E+03  0.50589496594E+03  0.75331194709E+02 0.  0.
         -6    2    1    2    0  502 -0.10320797391E+03 -0.42984424148E+02 -0.62744609383E+03  0.66114023026E+03  0.17583588034E+03 0.  0.
        -24    2    5    5    0    0 -0.67435697787E+01 -0.10548145821E+02 -0.44917016817E+03  0.45580662589E+03  0.76479416296E+02 0.  0.
          5    1    3    3  501    0  0.96216077170E+02  0.29082523872E+02 -0.18641810124E+04  0.18668948186E+04  0.47000000000E+01 0. -1.
        -13    1    4    4    0    0 -0.34327998267E+02  0.68206065535E+01 -0.22822770945E+03  0.23089568965E+03  0.00000000000E+00 0.  1.
         14    1    4    4    0    0  0.41319895004E+02  0.70812937221E+01 -0.27178506860E+03  0.27499927628E+03  0.00000000000E+00 0. -1.
         -5    1    5    5    0  502 -0.96464404129E+02 -0.32436278327E+02 -0.17827592566E+03  0.20533360438E+03  0.47000000000E+01 0.  1.
         13    1    6    6    0    0  0.15037302567E+02 -0.38431494522E+02 -0.27495760897E+03  0.27803738412E+03  0.00000000000E+00 0. -1.
        -14    1    6    6    0    0 -0.21780872346E+02  0.27883348701E+02 -0.17421255920E+03  0.17776924176E+03  0.00000000000E+00 0.  1.
</event>
<event>
12    1  0.1615162E-001  0.1934185E+03  0.7818608E-02  0.1155908E+00
         21   -1    0    0  503  502  0.00000000000E+00  0.00000000000E+00  0.95521634725E+02  0.95521634725E+02  0.00000000000E+00 0. -1.
         21   -1    0    0  501  503 -0.00000000000E+00 -0.00000000000E+00 -0.41931662356E+03  0.41931662356E+03  0.00000000000E+00 0. -1.
          6    2    1    2  501    0 -0.16631969833E+02 -0.89503177666E+02 -0.23407074829E+03  0.30364422254E+03  0.17065537625E+03 0.  0.
         24    2    3    3    0    0 -0.47129730421E+02 -0.10316558525E+03 -0.11437946093E+03  0.17928639588E+03  0.78718493360E+02 0.  0.
         -6    2    1    2    0  502  0.16631969833E+02  0.89503177666E+02 -0.89724240551E+02  0.21119403575E+03  0.16812209897E+03 0.  0.
        -24    2    5    5    0    0  0.73517543186E+02  0.63848017602E+02 -0.75363524059E+02  0.14698752618E+03  0.80276233002E+02 0.  0.
          5    1    3    3  501    0  0.30497760588E+02  0.13662407580E+02 -0.11969128736E+03  0.12435782666E+03  0.47000000000E+01 0. -1.
        -13    1    4    4    0    0 -0.47042140958E+02 -0.10254986866E+03 -0.12514929564E+03  0.16849861954E+03  0.00000000000E+00 0.  1.
         14    1    4    4    0    0 -0.87589462765E-01 -0.61571658706E+00  0.10769834706E+02  0.10787776343E+02  0.00000000000E+00 0. -1.
         -5    1    5    5    0  502 -0.56885573353E+02  0.25655160064E+02 -0.14360716491E+02  0.64206509575E+02  0.47000000000E+01 0.  1.
         11    1    6    6    0    0  0.13733239156E+02 -0.18409064650E+02 -0.55112674522E+01  0.23619263069E+02  0.00000000000E+00 0. -1.
        -12    1    6    6    0    0  0.59784304030E+02  0.82257082252E+02 -0.69852256607E+02  0.12336826311E+03  0.00000000000E+00 0.  1.
</event>
<event>
12    1  0.1615162E-001  0.4034098E+03  0.7818608E-02  0.1042617E+00
         21   -1    0    0  501  502  0.00000000000E+00  0.00000000000E+00  0.27222344921E+03  0.27222344921E+03  0.00000000000E+00 0.  1.
         21   -1    0    0  502  503 -0.00000000000E+00 -0.00000000000E+00 -0.69381304451E+03  0.69381304451E+03  0.00000000000E+00 0.  1.
         -6    2    1    2    0  503 -0.14751911669E+03 -0.33501673005E+03 -0.39067724535E+03  0.56157652348E+03  0.16953283601E+03 0.  0.
        -24    2    3    3    0    0 -0.82620692771E+02 -0.25687914923E+03 -0.35736803856E+03  0.45457708320E+03  0.78200597208E+02 0.  0.
          6    2    1    2  501    0  0.14751911669E+03  0.33501673005E+03 -0.30912349941E+02  0.40445997024E+03  0.16921641452E+03 0.  0.
         24    2    5    5    0    0  0.17570538851E+03  0.29849543770E+03 -0.38386764308E+02  0.35748947328E+03  0.79707402132E+02 0.  0.
          5    1    5    5  501    0 -0.28186271820E+02  0.36521292348E+02  0.74744143675E+01  0.46970496953E+02  0.47000000000E+01 0. -1.
        -13    1    6    6    0    0  0.14955281420E+03  0.19983904625E+03 -0.34991508000E+01  0.24962758801E+03  0.00000000000E+00 0.  1.
         14    1    6    6    0    0  0.26152574305E+02  0.98656391457E+02 -0.34887613508E+02  0.10786188527E+03  0.00000000000E+00 0. -1.
         -5    1    3    3    0  503 -0.64898423916E+02 -0.78137580819E+02 -0.33309206792E+02  0.10699944028E+03  0.47000000000E+01 0.  1.
         13    1    4    4    0    0 -0.61216963861E+01  0.40990958468E+01 -0.19549177234E+02  0.20891339927E+02  0.00000000000E+00 0. -1.
        -14    1    4    4    0    0 -0.76498996384E+02 -0.26097824508E+03 -0.33781886133E+03  0.43368574328E+03  0.00000000000E+00 0.  1.
</event>
<event>
12    1  0.1615162E-001  0.2135929E+03  0.7818608E-02  0.1143525E+00
         21   -1    0    0  503  502  0.00000000000E+00  0.00000000000E+00  0.16837828904E+03  0.16837828904E+03  0.00000000000E+00 0. -1.
         21   -1    0    0  501  503 -0.00000000000E+00 -0.00000000000E+00 -0.37257259986E+03  0.37257259986E+03  0.00000000000E+00 0. -1.
          6    2    1    2  501    0 -0.98770764978E+02 -0.27178544029E+02 -0.26564876399E+03  0.34086827393E+03  0.18742352333E+03 0.  0.
         24    2    3    3    0    0  0.26009546782E+02 -0.13877693333E+02 -0.13549438930E+03  0.16001117542E+03  0.79848355227E+02 0.  0.
         -6    2    1    2    0  502  0.98770764978E+02  0.27178544029E+02  0.61454453157E+02  0.20008261496E+03  0.16050565638E+03 0.  0.
        -24    2    5    5    0    0  0.76070155978E+02 -0.29863241975E+02  0.69715188189E+02  0.13795844300E+03  0.86566983763E+02 0.  0.
          5    1    3    3  501    0 -0.12478031176E+03 -0.13300850696E+02 -0.13015437468E+03  0.18085709851E+03  0.47000000000E+01 0. -1.
        -11    1    4    4    0    0 -0.10474909139E+02  0.27577757364E+02 -0.54685114522E+02  0.62134677701E+02  0.00000000000E+00 0.  1.
         12    1    4    4    0    0  0.36484455921E+02 -0.41455450697E+02 -0.80809274779E+02  0.97876497724E+02  0.00000000000E+00 0. -1.
         -5    1    5    5    0  502  0.22700608999E+02  0.57041786005E+02 -0.82607350326E+01  0.62124171969E+02  0.47000000000E+01 0.  1.
         13    1    6    6    0    0  0.76123840601E+02 -0.54647547925E+02  0.49519183052E+02  0.10598746667E+03  0.00000000000E+00 0. -1.
        -14    1    6    6    0    0 -0.53684622559E-01  0.24784305949E+02  0.20196005137E+02  0.31970976321E+02  0.00000000000E+00 0.  1.
</event>
<event>
12    1  0.1615162E-001  0.2188162E+03  0.7818608E-02  0.1135079E+00
         21   -1    0    0  501  502  0.00000000000E+00  0.00000000000E+00  0.33033368362E+03  0.33033368362E+03  0.00000000000E+00 0. -1.
         21   -1    0    0  502  503 -0.00000000000E+00 -0.00000000000E+00 -0.18457933568E+03  0.18457933568E+03  0.00000000000E+00 0.  1.
         -6    2    1    2    0  503 -0.73681595612E+02  0.11025974189E+03 -0.48262550592E+02  0.22246971924E+03  0.17198056278E+03 0.  0.
        -24    2    3    3    0    0  0.67536264921E+01 -0.28940899729E+01 -0.10472428271E+02  0.78512093645E+02  0.77462828938E+02 0.  0.
          6    2    1    2  501    0  0.73681595612E+02 -0.11025974189E+03  0.19401689853E+03  0.29244330007E+03  0.17405268922E+03 0.  0.
         24    2    5    5    0    0  0.19305509601E+02 -0.10781109493E+02  0.21523250487E+02  0.85975613372E+02  0.80247247680E+02 0.  0.
          5    1    5    5  501    0  0.54376086011E+02 -0.99478632402E+02  0.17249364804E+03  0.20646768669E+03  0.47000000000E+01 0. -1.
        -13    1    6    6    0    0  0.50784789782E+02 -0.83546299642E+01  0.10451178281E+02  0.52517824046E+02  0.00000000000E+00 0.  1.
         14    1    6    6    0    0 -0.31479280181E+02 -0.24264795287E+01  0.11072072205E+02  0.33457789326E+02  0.00000000000E+00 0. -1.
         -5    1    3    3    0  503 -0.80435222104E+02  0.11315383187E+03 -0.37790122321E+02  0.14395762559E+03  0.47000000000E+01 0.  1.
         13    1    4    4    0    0  0.36028171318E+02  0.18734526732E+02 -0.11139636991E+02  0.42108231175E+02  0.00000000000E+00 0. -1.
        -14    1    4    4    0    0 -0.29274544826E+02 -0.21628616705E+02  0.66720872048E+00  0.36403862471E+02  0.00000000000E+00 0.  1.
</event>
<event>
12    1  0.1615162E-001  0.1835481E+03  0.7818608E-02  0.1164602E+00
         21   -1    0    0  503  502  0.00000000000E+00  0.00000000000E+00  0.12107823032E+04  0.12107823032E+04  0.00000000000E+00 0. -1.
         21   -1    0    0  501  503 -0.00000000000E+00 -0.00000000000E+00 -0.13155423542E+03  0.13155423542E+03  0.00000000000E+00 0. -1.
          6    2    1    2  501    0  0.49809843202E+02  0.40548959005E+02 -0.56462773671E+02  0.19203633407E+03  0.17194379964E+03 0.  0.
         24    2    3    3    0    0  0.35218824474E+02 -0.42205467191E+02 -0.13752952894E+02  0.97657249133E+02  0.79536957050E+02 0.  0.
         -6    2    1    2    0  502 -0.49809843202E+02 -0.40548959005E+02  0.11356908415E+04  0.11503002046E+04  0.17108955158E+03 0.  0.
        -24    2    5    5    0    0  0.10804502424E+02  0.59980955788E+00  0.28373655928E+03  0.29518880306E+03  0.80702523697E+02 0.  0.
          5    1    3    3  501    0  0.14591018727E+02  0.82754426196E+02 -0.42709820777E+02  0.94379084936E+02  0.47000000000E+01 0. -1.
        -11    1    4    4    0    0 -0.10704371734E+01  0.21597156487E+02  0.43502295651E+01  0.22056915045E+02  0.00000000000E+00 0.  1.
         12    1    4    4    0    0  0.36289261647E+02 -0.63802623677E+02 -0.18103182459E+02  0.75600334088E+02  0.00000000000E+00 0. -1.
         -5    1    5    5    0  502 -0.60614345626E+02 -0.41148768563E+02  0.85195428221E+03  0.85511140153E+03  0.47000000000E+01 0.  1.
         13    1    6    6    0    0 -0.86121137072E+00  0.39996156136E+02  0.15330694331E+03  0.15844069256E+03  0.00000000000E+00 0. -1.
        -14    1    6    6    0    0  0.11665713795E+02 -0.39396346578E+02  0.13042961597E+03  0.13674811050E+03  0.00000000000E+00 0.  1.
</event>
<event>
12    1  0.1615162E-001  0.2881493E+03  0.7818608E-02  0.1091434E+00
         21   -1    0    0  503  502  0.00000000000E+00  0.00000000000E+00  0.58192675076E+02  0.58192675076E+02  0.00000000000E+00 0.  1.
         21   -1    0    0  501  503 -0.00000000000E+00 -0.00000000000E+00 -0.16320100608E+04  0.16320100608E+04  0.00000000000E+00 0.  1.
          6    2    1    2  501    0 -0.20717314367E+03  0.10385946809E+03 -0.48308987213E+03  0.56205534356E+03  0.16977303702E+03 0.  0.
         24    2    3    3    0    0 -0.87792187811E+02  0.38738839748E+02 -0.34904294518E+03  0.37104964343E+03  0.81478183355E+02 0.  0.
         -6    2    1    2    0  502  0.20717314367E+03 -0.10385946809E+03 -0.10907275136E+04  0.11281473923E+04  0.17123822389E+03 0.  0.
        -24    2    5    5    0    0  0.98022112811E+02 -0.15230229995E+02 -0.70903927991E+03  0.72135864234E+03  0.88211654066E+02 0.  0.
          5    1    3    3  501    0 -0.11938095585E+03  0.65120628339E+02 -0.13404692695E+03  0.19100570012E+03  0.47000000000E+01 0. -1.
        -13    1    4    4    0    0 -0.57963305000E+02  0.46160439919E+02 -0.12816588012E+03  0.14804399268E+03  0.00000000000E+00 0.  1.
         14    1    4    4    0    0 -0.29828882811E+02 -0.74216001712E+01 -0.22087706506E+03  0.22300565076E+03  0.00000000000E+00 0. -1.
         -5    1    5    5    0  502  0.10915103085E+03 -0.88629238092E+02 -0.38168823371E+03  0.40678875001E+03  0.47000000000E+01 0.  1.
         13    1    6    6    0    0  0.47348310500E+02 -0.37592980238E+02 -0.54231547393E+03  0.54567496546E+03  0.00000000000E+00 0. -1.
        -14    1    6    6    0    0  0.50673802312E+02  0.22362750243E+02 -0.16672380599E+03  0.17568367688E+03  0.00000000000E+00 0.  1.
</event>
<event>
12    1  0.1615162E-001  0.1913222E+03  0.7818608E-02  0.1157549E+00
         21   -1    0    0  503  502  0.00000000000E+00  0.00000000000E+00  0.10987609347E+04  0.10987609347E+04  0.00000000000E+00 0.  1.
         21   -1    0    0  501  503 -0.00000000000E+00 -0.00000000000E+00 -0.33124903310E+02  0.33124903310E+02  0.00000000000E+00 0.  1.
          6    2    1    2  501    0 -0.52154285040E+02 -0.60941393460E+02  0.51935070704E+03  0.55347026849E+03  0.17369587881E+03 0.  0.
         24    2    3    3    0    0 -0.35539291579E+02 -0.50243501844E+02  0.52332087065E+03  0.53277352740E+03  0.78711162607E+02 0.  0.
         -6    2    1    2    0  502  0.52154285040E+02  0.60941393460E+02  0.54628532436E+03  0.57841556953E+03  0.17234556152E+03 0.  0.
        -24    2    5    5    0    0  0.27305959632E+02 -0.35143942218E+02  0.22925352724E+03  0.24617908539E+03  0.77886136280E+02 0.  0.
          5    1    3    3  501    0 -0.16614993461E+02 -0.10697891616E+02 -0.39701636086E+01  0.20696741092E+02  0.47000000000E+01 0. -1.
        -11    1    4    4    0    0 -0.45664167769E+02 -0.35552251639E+01  0.16347335060E+03  0.16976864316E+03  0.00000000000E+00 0.  1.
         12    1    4    4    0    0  0.10124876190E+02 -0.46688276680E+02  0.35984752005E+03  0.36300488424E+03  0.00000000000E+00 0. -1.
         -5    1    5    5    0  502  0.24848325409E+02  0.96085335677E+02  0.31703179713E+03  0.33223648414E+03  0.47000000000E+01 0.  1.
         11    1    6    6    0    0  0.34538673373E+02 -0.17902986440E+02  0.39267946627E+02  0.55275749783E+02  0.00000000000E+00 0. -1.
        -12    1    6    6    0    0 -0.72327137413E+01 -0.17240955778E+02  0.18998558061E+03  0.19090333560E+03  0.00000000000E+00 0.  1.
</event>
<event>
12    1  0.1615162E-001  0.1754638E+03  0.7818608E-02  0.1172591E+00
         21   -1    0    0  503  502  0.00000000000E+00  0.00000000000E+00  0.72717108298E+02  0.72717108298E+02  0.00000000000E+00 0. -1.
         21   -1    0    0  501  503 -0.00000000000E+00 -0.00000000000E+00 -0.88249365413E+03  0.88249365413E+03  0.00000000000E+00 0. -1.
          6    2    1    2  501    0 -0.34644018740E+02  0.14732635092E+02 -0.75124656938E+03  0.77146546633E+03  0.17137765072E+03 0.  0.
         24    2    3    3    0    0  0.27361930808E+02  0.57904822116E+01 -0.62196453025E+03  0.62772738676E+03  0.80122345561E+02 0.  0.
         -6    2    1    2    0  502  0.34644018740E+02 -0.14732635092E+02 -0.58529976449E+02  0.18374529609E+03  0.17005680557E+03 0.  0.
        -24    2    5    5    0    0  0.65389543967E+02 -0.56660075140E+02 -0.22435382165E+02  0.12027792426E+03  0.80481526558E+02 0.  0.
          5    1    3    3  501    0 -0.62005949547E+02  0.89421528800E+01 -0.12928203913E+03  0.14373807957E+03  0.47000000000E+01 0. -1.
        -11    1    4    4    0    0  0.98735476238E+01  0.77559769564E+01 -0.59727936245E+03  0.59741131470E+03  0.00000000000E+00 0.  1.
         12    1    4    4    0    0  0.17488383184E+02 -0.19654947449E+01 -0.24685167804E+02  0.30316072066E+02  0.00000000000E+00 0. -1.
         -5    1    5    5    0  502 -0.30745525227E+02  0.41927440048E+02 -0.36094594284E+02  0.63467371830E+02  0.47000000000E+01 0.  1.
         13    1    6    6    0    0  0.49959745343E+02 -0.11343823878E+02 -0.44226511981E+02  0.67680446637E+02  0.00000000000E+00 0. -1.
        -14    1    6    6    0    0  0.15429798624E+02 -0.45316251262E+02  0.21791129816E+02  0.52597477627E+02  0.00000000000E+00 0.  1.
</event>
<event>
12    1  0.1615162E-001  0.2094655E+03  0.7818608E-02  0.1142843E+00
         21   -1    0    0  501  502  0.00000000000E+00  0.00000000000E+00  0.28830235142E+03  0.28830235142E+03  0.00000000000E+00 0.  1.
         21   -1    0    0  502  503 -0.00000000000E+00 -0.00000000000E+00 -0.16908953885E+03  0.16908953885E+03  0.00000000000E+00 0.  1.
         -6    2    1    2    0  503  0.20042726645E+02 -0.10818201460E+03  0.13766609033E+03  0.24711509696E+03  0.17323065417E+03 0.  0.
        -24    2    3    3    0    0 -0.10442768332E+01  0.79440158117E+01  0.32267657980E+02  0.88808949897E+02  0.82350652268E+02 0.  0.
          6    2    1    2  501    0 -0.20042726645E+02  0.10818201460E+03 -0.18453277771E+02  0.21027679331E+03  0.17824350526E+03 0.  0.
         24    2    5    5    0    0  0.13146658531E+02  0.59539950442E+02  0.60911348179E+02  0.11134035135E+03  0.70488588958E+02 0.  0.
          5    1    5    5  501    0 -0.33189385176E+02  0.48642064163E+02 -0.79364625950E+02  0.98936441954E+02  0.47000000000E+01 0. -1.
        -13    1    6    6    0    0 -0.20570818640E+02  0.27619729677E+02  0.54500677566E+02  0.64469619994E+02  0.00000000000E+00 0.  1.
         14    1    6    6    0    0  0.33717477171E+02  0.31920220765E+02  0.64106706126E+01  0.46870731360E+02  0.00000000000E+00 0. -1.
         -5    1    3    3    0  503  0.21087003479E+02 -0.11612603042E+03  0.10539843235E+03  0.15830614707E+03  0.47000000000E+01 0.  1.
         11    1    4    4    0    0 -0.15312511299E+01  0.30484739719E+02 -0.16777150976E+02  0.34830114565E+02  0.00000000000E+00 0. -1.
        -12    1    4    4    0    0  0.48697429668E+00 -0.22540723908E+02  0.49044808956E+02  0.53978835332E+02  0.00000000000E+00 0.  1.
</event>
<event>
12    1  0.1615162E-001  0.2768995E+03  0.7818608E-02  0.1097512E+00
         21   -1    0    0  503  502  0.00000000000E+00  0.00000000000E+00  0.20085721177E+03  0.20085721177E+03  0.00000000000E+00 0. -1.
         21   -1    0    0  501  503 -0.00000000000E+00 -0.00000000000E+00 -0.43634773027E+03  0.43634773027E+03  0.00000000000E+00 0. -1.
          6    2    1    2  501    0 -0.15325045425E+03  0.15212532849E+03 -0.23182429796E+03  0.36113134204E+03  0.17333644678E+03 0.  0.
         24    2    3    3    0    0 -0.16828039665E+03  0.98067834285E+02 -0.13776882850E+03  0.25151093708E+03  0.79636105787E+02 0.  0.
         -6    2    1    2    0  502  0.15325045425E+03 -0.15212532849E+03 -0.36662205330E+01  0.27607360000E+03  0.17197492303E+03 0.  0.
        -24    2    5    5    0    0  0.92327271899E+02 -0.13017090377E+02 -0.17354182343E+02  0.12352135860E+03  0.79136518802E+02 0.  0.
          5    1    3    3  501    0  0.15029942406E+02  0.54057494202E+02 -0.94055469461E+02  0.10962040496E+03  0.47000000000E+01 0. -1.
        -13    1    4    4    0    0 -0.10131851184E+03  0.27323066356E+02 -0.10573359154E+03  0.14896839657E+03  0.00000000000E+00 0.  1.
         14    1    4    4    0    0 -0.66961884811E+02  0.70744767929E+02 -0.32035236961E+02  0.10254254051E+03  0.00000000000E+00 0. -1.
         -5    1    5    5    0  502  0.60923182348E+02 -0.13910823811E+03  0.13687961810E+02  0.15255224140E+03  0.47000000000E+01 0.  1.
         11    1    6    6    0    0  0.60070297623E+01 -0.35942580344E+00  0.25585320990E+02  0.26283497553E+02  0.00000000000E+00 0. -1.
        -12    1    6    6    0    0  0.86320242137E+02 -0.12657664574E+02 -0.42939503333E+02  0.97237861050E+02  0.00000000000E+00 0.  1.
</event>
<event>
12    1  0.1615162E-001  0.1762789E+03  0.7818608E-02  0.1172060E+00
         21   -1    0    0  503  502  0.00000000000E+00  0.00000000000E+00  0.15464507591E+04  0.15464507591E+04  0.00000000000E+00 0.  1.
         21   -1    0    0  501  503 -0.00000000000E+00 -0.00000000000E+00 -0.23583496617E+02  0.23583496617E+02  0.00000000000E+00 0.  1.
          6    2    1    2  501    0 -0.32242360768E+02 -0.31739855653E+02  0.44338355772E+03  0.47625213448E+03  0.16786937802E+03 0.  0.
         24    2    3    3    0    0 -0.83214845278E+02 -0.42356089704E+02  0.29300021344E+03  0.31704114604E+03  0.77118184618E+02 0.  0.
         -6    2    1    2    0  502  0.32242360768E+02  0.31739855653E+02  0.10794837048E+04  0.10937821213E+04  0.17037391708E+03 0.  0.
        -24    2    5    5    0    0  0.10541432563E+02 -0.16096175135E+02  0.95220593518E+03  0.95601080072E+03  0.83007827655E+02 0.  0.
          5    1    3    3  501    0  0.50972484510E+02  0.10616234050E+02  0.15038334429E+03  0.15921098844E+03  0.47000000000E+01 0. -1.
        -11    1    4    4    0    0 -0.43642156824E+02 -0.15027906070E+02  0.45148285012E+02  0.64566581547E+02  0.00000000000E+00 0.  1.
         12    1    4    4    0    0 -0.39572688454E+02 -0.27328183634E+02  0.24785192842E+03  0.25247456449E+03  0.00000000000E+00 0. -1.
         -5    1    5    5    0  502  0.21700928205E+02  0.47836030788E+02  0.12727776961E+03  0.13777132054E+03  0.47000000000E+01 0.  1.
         13    1    6    6    0    0 -0.18985093064E+02 -0.13186498456E+02  0.79287340217E+02  0.82588133645E+02  0.00000000000E+00 0. -1.
        -14    1    6    6    0    0  0.29526525627E+02 -0.29096766788E+01  0.87291859496E+03  0.87342266707E+03  0.00000000000E+00 0.  1.
</event>
<event>
12    1  0.1615162E-001  0.2510532E+03  0.7818608E-02  0.1112644E+00
         21   -1    0    0  501  502  0.00000000000E+00  0.00000000000E+00  0.27994632695E+03  0.27994632695E+03  0.00000000000E+00 0. -1.
         21   -1    0    0  502  503 -0.00000000000E+00 -0.00000000000E+00 -0.27783554465E+03  0.27783554465E+03  0.00000000000E+00 0. -1.
         -6    2    1    2    0  503 -0.17815988061E+03 -0.41334870901E+02 -0.12041718704E+03  0.27843850939E+03  0.17198310953E+03 0.  0.
        -24    2    3    3    0    0 -0.17113863652E+03  0.13301116385E+02 -0.12089857606E+03  0.22315098177E+03  0.75594592159E+02 0.  0.
          6    2    1    2  501    0  0.17815988061E+03  0.41334870901E+02  0.12252796935E+03  0.27934336221E+03  0.17195957701E+03 0.  0.
         24    2    5    5    0    0  0.34262699611E+02 -0.28762450212E+02  0.64309669039E+02  0.10895705519E+03  0.75727770455E+02 0.  0.
          5    1    5    5  501    0  0.14389718100E+03  0.70097321113E+02  0.58218300308E+02  0.17038630702E+03  0.47000000000E+01 0. -1.
        -13    1    6    6    0    0  0.33848984201E+02 -0.53368996520E+02  0.49056861833E+02  0.80003620005E+02  0.00000000000E+00 0.  1.
         14    1    6    6    0    0  0.41371541012E+00  0.24606546308E+02  0.15252807206E+02  0.28953435190E+02  0.00000000000E+00 0. -1.
         -5    1    3    3    0  503 -0.70212440952E+01 -0.54635987286E+02  0.48138901917E+00  0.55287527624E+02  0.47000000000E+01 0.  1.
         13    1    4    4    0    0 -0.12095926369E+03 -0.13364551595E+02 -0.11246326357E+03  0.16570377293E+03  0.00000000000E+00 0. -1.
        -14    1    4    4    0    0 -0.50179372825E+02  0.26665667980E+02 -0.84353124971E+01  0.57447208834E+02  0.00000000000E+00 0.  1.
</event>
<event>
12    1  0.1615162E-001  0.2281605E+03  0.7818608E-02  0.1128278E+00
         21   -1    0    0  501  502  0.00000000000E+00  0.00000000000E+00  0.99887771452E+03  0.99887771452E+03  0.00000000000E+00 0.  1.
         21   -1    0    0  502  503 -0.00000000000E+00 -0.00000000000E+00 -0.56135030866E+02  0.56135030866E+02  0.00000000000E+00 0.  1.
         -6    2    1    2    0  503 -0.14492389637E+03 -0.25202079050E+02  0.32107024129E+03  0.39279387525E+03  0.17193850082E+03 0.  0.
        -24    2    3    3    0    0 -0.27396233575E+02 -0.30951339067E+02  0.69914761680E+02  0.11540070581E+03  0.81979936552E+02 0.  0.
          6    2    1    2  501    0  0.14492389637E+03  0.25202079050E+02  0.62167244236E+03  0.66221887013E+03  0.17441079622E+03 0.  0.
         24    2    5    5    0    0  0.75887657765E+02  0.81510915897E+02  0.41049566578E+03  0.43297138745E+03  0.80960266272E+02 0.  0.
          5    1    5    5  501    0  0.69036238609E+02 -0.56308836847E+02  0.21117677658E+03  0.22924748268E+03  0.47000000000E+01 0. -1.
        -13    1    6    6    0    0  0.24936225928E+02  0.65466536264E+02  0.32258135899E+03  0.33010061482E+03  0.00000000000E+00 0.  1.
         14    1    6    6    0    0  0.50951431837E+02  0.16044379632E+02  0.87914306793E+02  0.10287077264E+03  0.00000000000E+00 0. -1.
         -5    1    3    3    0  503 -0.11752766280E+03  0.57492600171E+01  0.25115547961E+03  0.27739316944E+03  0.47000000000E+01 0.  1.
         11    1    4    4    0    0  0.21152247181E+02 -0.12161027439E+02  0.56647716540E+02  0.61678780293E+02  0.00000000000E+00 0. -1.
        -12    1    4    4    0    0 -0.48548480756E+02 -0.18790311628E+02  0.13267045140E+02  0.53721925520E+02  0.00000000000E+00 0.  1.
</event>
<event>
12    1  0.1615162E-001  0.2669271E+03  0.7818608E-02  0.1103207E+00
         21   -1    0    0  503  502  0.00000000000E+00  0.00000000000E+00  0.70596918458E+03  0.70596918458E+03  0.00000000000E+00 0. -1.
         21   -1    0    0  501  503 -0.00000000000E+00 -0.00000000000E+00 -0.23219438411E+03  0.23219438411E+03  0.00000000000E+00 0. -1.
          6    2    1    2  501    0 -0.18474960438E+03  0.86633344364E+02 -0.11655845706E+03  0.29028749176E+03  0.17042065981E+03 0.  0.
         24    2    3    3    0    0 -0.43714794004E+02  0.53728841169E+02  0.20762036453E+02  0.90656502174E+02  0.54678767731E+02 0.  0.
         -6    2    1    2    0  502  0.18474960438E+03 -0.86633344364E+02  0.59033325753E+03  0.64787607693E+03  0.17208225777E+03 0.  0.
        -24    2    5    5    0    0  0.17331068333E+03 -0.11499746018E+03  0.56586951962E+03  0.60843071658E+03  0.81967157037E+02 0.  0.
          5    1    3    3  501    0 -0.14103481037E+03  0.32904503195E+02 -0.13732049351E+03  0.19963098959E+03  0.47000000000E+01 0. -1.
        -11    1    4    4    0    0 -0.85114442883E+01 -0.67551642284E+01  0.17498172128E+02  0.20597644415E+02  0.00000000000E+00 0.  1.
         12    1    4    4    0    0 -0.35203349715E+02  0.60484005397E+02  0.32638643250E+01  0.70058857759E+02  0.00000000000E+00 0. -1.
         -5    1    5    5    0  502  0.11438921048E+02  0.28364115817E+02  0.24463737901E+02  0.39445360347E+02  0.47000000000E+01 0.  1.
         11    1    6    6    0    0  0.84131242196E+01 -0.40620115416E+02  0.82991994737E+02  0.92781709544E+02  0.00000000000E+00 0. -1.
        -12    1    6    6    0    0  0.16489755911E+03 -0.74377344766E+02  0.48287752489E+03  0.51564900703E+03  0.00000000000E+00 0.  1.
</event>
<event>
12    1  0.1615162E-001  0.2471880E+03  0.7818608E-02  0.1115164E+00
         21   -1    0    0  501  502  0.00000000000E+00  0.00000000000E+00  0.52264305546E+02  0.52264305546E+02  0.00000000000E+00 0.  1.
         21   -1    0    0  502  503 -0.00000000000E+00 -0.00000000000E+00 -0.11908909888E+04  0.11908909888E+04  0.00000000000E+00 0.  1.
         -6    2    1    2    0  503 -0.15876219654E+03 -0.79605223093E+02 -0.65770346039E+03  0.70262061994E+03  0.17192866883E+03 0.  0.
        -24    2    3    3    0    0 -0.99529879540E+02 -0.81245699017E+02 -0.26670241598E+03  0.30712717465E+03  0.81791577746E+02 0.  0.
          6    2    1    2  501    0  0.15876219654E+03  0.79605223093E+02 -0.48092322284E+03  0.54053467438E+03  0.17131305071E+03 0.  0.
         24    2    5    5    0    0  0.11818774764E+03  0.10638668333E+03 -0.26602142484E+03  0.32015226741E+03  0.80272073448E+02 0.  0.
          5    1    5    5  501    0  0.40574448901E+02 -0.26781460232E+02 -0.21490179800E+03  0.22038240697E+03  0.47000000000E+01 0. -1.
        -11    1    6    6    0    0  0.92306133162E+01  0.25429719205E+02 -0.73594202703E+01  0.28036331924E+02  0.00000000000E+00 0.  1.
         12    1    6    6    0    0  0.10895713432E+03  0.80956964121E+02 -0.25866200457E+03  0.29211593549E+03  0.00000000000E+00 0. -1.
         -5    1    3    3    0  503 -0.59232317001E+02  0.16404759236E+01 -0.39100104441E+03  0.39549344529E+03  0.47000000000E+01 0.  1.
         11    1    4    4    0    0  0.26667958385E+01 -0.28052967463E+02 -0.10409280023E+03  0.10783965803E+03  0.00000000000E+00 0. -1.
        -12    1    4    4    0    0 -0.10219667538E+03 -0.53192731554E+02 -0.16260961575E+03  0.19928751663E+03  0.00000000000E+00 0.  1.
</event>
<event>
12    1  0.1615162E-001  0.2250793E+03  0.7818608E-02  0.1130170E+00
         21   -1    0    0  503  502  0.00000000000E+00  0.00000000000E+00  0.48225214809E+02  0.48225214809E+02  0.00000000000E+00 0.  1.
         21   -1    0    0  501  503 -0.00000000000E+00 -0.00000000000E+00 -0.11694509134E+04  0.11694509134E+04  0.00000000000E+00 0.  1.
          6    2    1    2  501    0 -0.53148668850E+01 -0.14489028072E+03 -0.75527506332E+03  0.78809967860E+03  0.17216050904E+03 0.  0.
         24    2    3    3    0    0  0.55618778346E+02 -0.93591767471E+02 -0.58032951810E+03  0.59581738514E+03  0.79769288694E+02 0.  0.
         -6    2    1    2    0  502  0.53148668850E+01  0.14489028072E+03 -0.36595063528E+03  0.42957644962E+03  0.17203086162E+03 0.  0.
        -24    2    5    5    0    0 -0.21989036248E+02  0.46164504726E+02 -0.28053541988E+03  0.29612184687E+03  0.79833246068E+02 0.  0.
          5    1    3    3  501    0 -0.60933645231E+02 -0.51298513252E+02 -0.17494554523E+03  0.19228229346E+03  0.47000000000E+01 0. -1.
        -13    1    4    4    0    0 -0.19481215464E+02 -0.11006202110E+02 -0.72977404779E+02  0.76330569559E+02  0.00000000000E+00 0.  1.
         14    1    4    4    0    0  0.75099993809E+02 -0.82585565362E+02 -0.50735211332E+03  0.51948681558E+03  0.00000000000E+00 0. -1.
         -5    1    5    5    0  502  0.27303903133E+02  0.98725775998E+02 -0.85415215404E+02  0.13345460275E+03  0.47000000000E+01 0.  1.
         13    1    6    6    0    0 -0.38893897506E+01 -0.10328868694E+02 -0.17265108093E+03  0.17300349311E+03  0.00000000000E+00 0. -1.
        -14    1    6    6    0    0 -0.18099646498E+02  0.56493373420E+02 -0.10788433895E+03  0.12311835377E+03  0.00000000000E+00 0.  1.
</event>
<event>
12    1  0.1615162E-001  0.2545157E+03  0.7818608E-02  0.1110790E+00
         21   -1    0    0  501  502  0.00000000000E+00  0.00000000000E+00  0.12164348063E+04  0.12164348063E+04  0.00000000000E+00 0. -1.
         21   -1    0    0  502  503 -0.00000000000E+00 -0.00000000000E+00 -0.56646187986E+02  0.56646187986E+02  0.00000000000E+00 0.  1.
         -6    2    1    2    0  503  0.18634004848E+03  0.18744513057E+02  0.41277524316E+03  0.48389963173E+03  0.16941511675E+03 0.  0.
        -24    2    3    3    0    0  0.66321010774E+02  0.17421125169E+02  0.30401904355E+03  0.32186160619E+03  0.80407354291E+02 0.  0.
          6    2    1    2  501    0 -0.18634004848E+03 -0.18744513057E+02  0.74701337514E+03  0.78918136255E+03  0.17234926722E+03 0.  0.
         24    2    5    5    0    0 -0.20417277134E+03 -0.23688899796E+02  0.73335774310E+03  0.76570756329E+03  0.79036754722E+02 0.  0.
          5    1    5    5  501    0  0.17832722858E+02  0.49443867389E+01  0.13655632044E+02  0.23473799251E+02  0.47000000000E+01 0. -1.
        -13    1    6    6    0    0 -0.68142116572E+02  0.27715312926E+02  0.20946269218E+03  0.22200474327E+03  0.00000000000E+00 0.  1.
         14    1    6    6    0    0 -0.13603065477E+03 -0.51404212722E+02  0.52389505092E+03  0.54370282002E+03  0.00000000000E+00 0. -1.
         -5    1    3    3    0  503  0.12001903771E+03  0.13233878883E+01  0.10875619961E+03  0.16203802554E+03  0.47000000000E+01 0.  1.
         11    1    4    4    0    0  0.84642587891E+02  0.11607141501E+02  0.26371005059E+03  0.27720404795E+03  0.00000000000E+00 0. -1.
        -12    1    4    4    0    0 -0.18321577116E+02  0.58139836675E+01  0.40308992963E+02  0.44657558239E+02  0.00000000000E+00 0.  1.
</event>
<event>
12    1  0.1615162E-001  0.1761572E+03  0.7818608E-02  0.1171974E+00
         21   -1    0    0  503  502  0.00000000000E+00  0.00000000000E+00  0.64001132571E+03  0.64001132571E+03  0.00000000000E+00 0. -1.
         21   -1    0    0  501  503 -0.00000000000E+00 -0.00000000000E+00 -0.45285145712E+03  0.45285145712E+03  0.00000000000E+00 0. -1.
          6    2    1    2  501    0  0.32938172148E+02  0.12327724880E+02 -0.42309556576E+03  0.45769111320E+03  0.17098070463E+03 0.  0.
         24    2    3    3    0    0 -0.96120864157E+01  0.35581047606E+02 -0.38826524789E+03  0.39780386444E+03  0.78355655117E+02 0.  0.
         -6    2    1    2    0  502 -0.32938172148E+02 -0.12327724880E+02  0.61025543435E+03  0.63517166963E+03  0.17261071450E+03 0.  0.
        -24    2    5    5    0    0 -0.85031558831E+01 -0.12163947157E+02  0.11759328569E+03  0.14188151205E+03  0.77986648549E+02 0.  0.
          5    1    3    3  501    0  0.42550258563E+02 -0.23253322726E+02 -0.34830317865E+02  0.59887248761E+02  0.47000000000E+01 0. -1.
        -11    1    4    4    0    0 -0.34970375852E+01  0.49241182356E+02 -0.12924671580E+03  0.13835330447E+03  0.00000000000E+00 0.  1.
         12    1    4    4    0    0 -0.61150488305E+01 -0.13660134750E+02 -0.25901853209E+03  0.25945055998E+03  0.00000000000E+00 0. -1.
         -5    1    5    5    0  502 -0.24435016265E+02 -0.16377772304E+00  0.49266214865E+03  0.49329015757E+03  0.47000000000E+01 0.  1.
         13    1    6    6    0    0  0.34132801848E+02  0.61248345831E+00  0.41613589664E+02  0.53824846890E+02  0.00000000000E+00 0. -1.
        -14    1    6    6    0    0 -0.42635957731E+02 -0.12776430615E+02  0.75979696029E+02  0.88056665163E+02  0.00000000000E+00 0.  1.
</event>
<event>
12    1  0.1615162E-001  0.2951458E+03  0.7818608E-02  0.1087819E+00
         21   -1    0    0  503  502  0.00000000000E+00  0.00000000000E+00  0.27591620297E+03  0.27591620297E+03  0.00000000000E+00 0.  1.
         21   -1    0    0  501  503 -0.00000000000E+00 -0.00000000000E+00 -0.32713788814E+03  0.32713788814E+03  0.00000000000E+00 0. -1.
          6    2    1    2  501    0  0.19847014177E+03  0.13406386476E+03 -0.84453837406E+02  0.30604331952E+03  0.17078215879E+03 0.  0.
         24    2    3    3    0    0  0.11769128280E+03  0.11683208001E+03  0.45309822730E+01  0.18454209897E+03  0.80834915249E+02 0.  0.
         -6    2    1    2    0  502 -0.19847014177E+03 -0.13406386476E+03  0.33232152240E+02  0.29701077159E+03  0.17247465173E+03 0.  0.
        -24    2    5    5    0    0 -0.20557445155E+02 -0.65204632290E+02  0.96477391244E+01  0.10472755325E+03  0.78743437292E+02 0.  0.
          5    1    3    3  501    0  0.80778858974E+02  0.17231784744E+02 -0.88984819679E+02  0.12150122055E+03  0.47000000000E+01 0. -1.
        -13    1    4    4    0    0  0.66448448230E+02  0.40463987864E+02  0.38116028848E+02  0.86634648041E+02  0.00000000000E+00 0.  1.
         14    1    4    4    0    0  0.51242834567E+02  0.76368092151E+02 -0.33585046575E+02  0.97907450925E+02  0.00000000000E+00 0. -1.
         -5    1    5    5    0  502 -0.17791269662E+03 -0.68859232469E+02  0.23584413115E+02  0.19228321834E+03  0.47000000000E+01 0.  1.
         13    1    6    6    0    0 -0.20019843608E+02 -0.46002606741E+02 -0.31553894500E+02  0.59267885260E+02  0.00000000000E+00 0. -1.
        -14    1    6    6    0    0 -0.53760154732E+00 -0.19202025548E+02  0.41201633625E+02  0.45459667992E+02  0.00000000000E+00 0.  1.
</event>
<event>
12    1  0.1615162E-001  0.1852432E+03  0.7818608E-02  0.1163487E+00
         21   -1    0    0  501  502  0.00000000000E+00  0.00000000000E+00  0.20910577809E+04  0.20910577809E+04  0.00000000000E+00 0. -1.
         21   -1    0    0  502  503 -0.00000000000E+00 -0.00000000000E+00 -0.19307017405E+02  0.19307017405E+02  0.00000000000E+00 0.  1.
         -6    2    1    2    0  503 -0.35661857098E+02  0.49510313506E+02  0.61660347691E+03  0.64382830347E+03  0.17490568150E+03 0.  0.
        -24    2    3    3    0    0  0.41569629331E+02  0.42032689908E+02  0.43692495919E+03  0.44805527908E+03  0.79720336453E+02 0.  0.
          6    2    1    2  501    0  0.35661857098E+02 -0.49510313506E+02  0.14551472866E+04  0.14665364949E+04  0.17190877180E+03 0.  0.
         24    2    5    5    0    0  0.52930747911E+02 -0.43370801401E+02  0.14346285473E+04  0.14386256213E+04  0.82473748077E+02 0.  0.
          5    1    5    5  501    0 -0.17268890812E+02 -0.61395121051E+01  0.20518739344E+02  0.27910873563E+02  0.47000000000E+01 0. -1.
        -11    1    6    6    0    0 -0.19860551806E+02 -0.24532648545E+02  0.36882577504E+03  0.37017393844E+03  0.00000000000E+00 0.  1.
         12    1    6    6    0    0  0.72791299717E+02 -0.18838152857E+02  0.10658027722E+04  0.10684516829E+04  0.00000000000E+00 0. -1.
         -5    1    3    3    0  503 -0.77231486430E+02  0.74776235984E+01  0.17967851772E+03  0.19577302440E+03  0.47000000000E+01 0.  1.
         11    1    4    4    0    0 -0.16155715214E+02 -0.11913032331E+02  0.78527640853E+02  0.81052562275E+02  0.00000000000E+00 0. -1.
        -12    1    4    4    0    0  0.57725344545E+02  0.53945722239E+02  0.35839731833E+03  0.36700271680E+03  0.00000000000E+00 0.  1.
</event>
<event>
12    1  0.1615162E-001  0.1793646E+03  0.7818608E-02  0.1168796E+00
         21   -1    0    0  503  502  0.00000000000E+00  0.00000000000E+00  0.10950202614E+03  0.10950202614E+03  0.00000000000E+00 0. -1.
         21   -1    0    0  501  503 -0.00000000000E+00 -0.00000000000E+00 -0.39657986075E+03  0.39657986075E+03  0.00000000000E+00 0. -1.
          6    2    1    2  501    0  0.18723192948E+01 -0.51780142568E+02 -0.27438371817E+03  0.32780800400E+03  0.17171771587E+03 0.  0.
         24    2    3    3    0    0 -0.55685627216E+01 -0.57137886727E+02 -0.64156148747E+02  0.11732809262E+03  0.79712752459E+02 0.  0.
         -6    2    1    2    0  502 -0.18723192948E+01  0.51780142568E+02 -0.12694116431E+02  0.17827388289E+03  0.17010510864E+03 0.  0.
        -24    2    5    5    0    0  0.32257401864E+01  0.51464315526E+02  0.55203214084E+02  0.11002267449E+03  0.79991330060E+02 0.  0.
          5    1    3    3  501    0  0.74408820164E+01  0.53577441597E+01 -0.21022756943E+03  0.21047991138E+03  0.47000000000E+01 0. -1.
        -13    1    4    4    0    0 -0.19083709153E+02 -0.22036735019E+02  0.12672179295E+02  0.31786628846E+02  0.00000000000E+00 0.  1.
         14    1    4    4    0    0  0.13515146431E+02 -0.35101151709E+02 -0.76828328041E+02  0.85541463770E+02  0.00000000000E+00 0. -1.
         -5    1    5    5    0  502 -0.50980594812E+01  0.31582704189E+00 -0.67897330516E+02  0.68251208402E+02  0.47000000000E+01 0.  1.
         11    1    6    6    0    0  0.32604205512E+02  0.30860885558E+02  0.86044258087E+00  0.44901768739E+02  0.00000000000E+00 0. -1.
        -12    1    6    6    0    0 -0.29378465325E+02  0.20603429967E+02  0.54342771503E+02  0.65120905752E+02  0.00000000000E+00 0.  1.
</event>
<event>
12    1  0.1615162E-001  0.2323684E+03  0.7818608E-02  0.1125027E+00
         21   -1    0    0  503  502  0.00000000000E+00  0.00000000000E+00  0.69734071936E+03  0.69734071936E+03  0.00000000000E+00 0. -1.
         21   -1    0    0  501  503 -0.00000000000E+00 -0.00000000000E+00 -0.84059902407E+02  0.84059902407E+02  0.00000000000E+00 0. -1.
          6    2    1    2  501    0 -0.15539289535E+03  0.79764378393E+01  0.41689916082E+03  0.47716254442E+03  0.17224577796E+03 0.  0.
         24    2    3    3    0    0 -0.11929692111E+02  0.21615963062E+02  0.11364453017E+03  0.14137512902E+03  0.80388310441E+02 0.  0.
         -6    2    1    2    0  502  0.15539289535E+03 -0.79764378393E+01  0.19638165614E+03  0.30423807734E+03  0.17258179902E+03 0.  0.
        -24    2    5    5    0    0  0.12080215768E+03  0.20678116002E+02  0.55789428630E+02  0.15656997983E+03  0.79880864141E+02 0.  0.
          5    1    3    3  501    0 -0.14346320324E+03 -0.13639525222E+02  0.30325463065E+03  0.33578741541E+03  0.47000000000E+01 0. -1.
        -11    1    4    4    0    0 -0.33075408674E+02 -0.98610541243E+01  0.18958807353E+02  0.39378413168E+02  0.00000000000E+00 0.  1.
         12    1    4    4    0    0  0.21145716562E+02  0.31477017186E+02  0.94685722812E+02  0.10199671585E+03  0.00000000000E+00 0. -1.
         -5    1    5    5    0  502  0.34590737673E+02 -0.28654553841E+02  0.14059222751E+03  0.14766809751E+03  0.47000000000E+01 0.  1.
         13    1    6    6    0    0  0.43949794326E+02  0.36300194583E+02 -0.51753781636E+01  0.57236990550E+02  0.00000000000E+00 0. -1.
        -14    1    6    6    0    0  0.76852363351E+02 -0.15622078581E+02  0.60964806793E+02  0.99332989280E+02  0.00000000000E+00 0.  1.
</event>
<event>
12    1  0.1615162E-001  0.2314513E+03  0.7818608E-02  0.1127888E+00
         21   -1    0    0  501  502  0.00000000000E+00  0.00000000000E+00  0.59198023276E+02  0.59198023276E+02  0.00000000000E+00 0.  1.
         21   -1    0    0  502  503 -0.00000000000E+00 -0.00000000000E+00 -0.19246054923E+04  0.19246054923E+04  0.00000000000E+00 0.  1.
         -6    2    1    2    0  503 -0.13525208069E+03  0.76956125292E+00 -0.16599540867E+04  0.16743188062E+04  0.17205283217E+03 0.  0.
        -24    2    3    3    0    0 -0.16435811636E+03  0.12345823058E+02 -0.12805987419E+04  0.12936434342E+04  0.80088622115E+02 0.  0.
          6    2    1    2  501    0  0.13525208069E+03 -0.76956125292E+00 -0.20545338226E+03  0.30948470938E+03  0.18781899665E+03 0.  0.
         24    2    5    5    0    0  0.26355464621E+02 -0.16073631285E+02 -0.11818418571E+02  0.86753309004E+02  0.80209036072E+02 0.  0.
          5    1    5    5  501    0  0.10889661607E+03  0.15304070032E+02 -0.19363496369E+03  0.22273140038E+03  0.47000000000E+01 0. -1.
        -11    1    6    6    0    0 -0.23572911750E+02  0.90961371179E+01  0.93856228450E+01  0.26953882745E+02  0.00000000000E+00 0.  1.
         12    1    6    6    0    0  0.49928376371E+02 -0.25169768403E+02 -0.21204041416E+02  0.59799426259E+02  0.00000000000E+00 0. -1.
         -5    1    3    3    0  503  0.29106035663E+02 -0.11576261805E+02 -0.37935534484E+03  0.38067537195E+03  0.47000000000E+01 0.  1.
         13    1    4    4    0    0 -0.91483999086E+02  0.42281927855E+02 -0.84372396470E+03  0.84972184397E+03  0.00000000000E+00 0. -1.
        -14    1    4    4    0    0 -0.72874117269E+02 -0.29936104797E+02 -0.43687477721E+03  0.44392159026E+03  0.00000000000E+00 0.  1.
</event>
<event>
12    1  0.1615162E-001  0.2257248E+03  0.7818608E-02  0.1129842E+00
         21   -1    0    0  501  502  0.00000000000E+00  0.00000000000E+00  0.41780536181E+03  0.41780536181E+03  0.00000000000E+00 0. -1.
         21   -1    0    0  502  503 -0.00000000000E+00 -0.00000000000E+00 -0.48615654365E+03  0.48615654365E+03  0.00000000000E+00 0.  1.
         -6    2    1    2    0  503 -0.12817163306E+02  0.14522398347E+03 -0.42561601413E+03  0.48136297450E+03  0.17119298083E+03 0.  0.
        -24    2    3    3    0    0  0.50790723941E+02  0.83480792067E+02 -0.17812130709E+03  0.21842970346E+03  0.80222160484E+02 0.  0.
          6    2    1    2  501    0  0.12817163306E+02 -0.14522398347E+03  0.35726483230E+03  0.42259893096E+03  0.17232936777E+03 0.  0.
         24    2    5    5    0    0 -0.47576835377E+02 -0.61155453740E+02  0.12849487929E+03  0.17145607486E+03  0.82962080589E+02 0.  0.
          5    1    5    5  501    0  0.60393998683E+02 -0.84068529734E+02  0.22876995301E+03  0.25114285610E+03  0.47000000000E+01 0. -1.
        -13    1    6    6    0    0 -0.66974668308E+02 -0.65424450065E+02  0.10451596990E+03  0.14031946702E+03  0.00000000000E+00 0.  1.
         14    1    6    6    0    0  0.19397832931E+02  0.42689963245E+01  0.23978909387E+02  0.31136607835E+02  0.00000000000E+00 0. -1.
         -5    1    3    3    0  503 -0.63607887247E+02  0.61743191408E+02 -0.24749470705E+03  0.26293327104E+03  0.47000000000E+01 0.  1.
         13    1    4    4    0    0  0.67954749620E+02  0.50743438661E+02 -0.14870321217E+03  0.17118817095E+03  0.00000000000E+00 0. -1.
        -14    1    4    4    0    0 -0.17164025679E+02  0.32737353406E+02 -0.29418094918E+02  0.47241532512E+02  0.00000000000E+00 0.  1.
</event>
<event>
12    1  0.1615162E-001  0.2009211E+03  0.7818608E-02  0.1149088E+00
         21   -1    0    0  503  502  0.00000000000E+00  0.00000000000E+00  0.33808244801E+04  0.33808244801E+04  0.00000000000E+00 0. -1.
         21   -1    0    0  501  503 -0.00000000000E+00 -0.00000000000E+00 -0.12033221672E+02  0.12033221672E+02  0.00000000000E+00 0. -1.
          6    2    1    2  501    0 -0.12348484236E+02 -0.10087762943E+03  0.15122367740E+04  0.15255259202E+04  0.17332193002E+03 0.  0.
         24    2    3    3    0    0  0.43281786767E+02 -0.10260181195E+03  0.11780723994E+04  0.11867256559E+04  0.89792868465E+02 0.  0.
         -6    2    1    2    0  502  0.12348484236E+02  0.10087762943E+03  0.18565544844E+04  0.18673317816E+04  0.17264022585E+03 0.  0.
        -24    2    5    5    0    0  0.64371671902E+02  0.24202354978E+02  0.82356221226E+03  0.83018153491E+03  0.78849206138E+02 0.  0.
          5    1    3    3  501    0 -0.55630271003E+02  0.17241825167E+01  0.33416437452E+03  0.33880026425E+03  0.47000000000E+01 0. -1.
        -11    1    4    4    0    0  0.50551602634E+02 -0.22607324552E+02  0.67644916082E+03  0.67871203233E+03  0.00000000000E+00 0.  1.
         12    1    4    4    0    0 -0.72698158673E+01 -0.79994487398E+02  0.50162323862E+03  0.50801362360E+03  0.00000000000E+00 0. -1.
         -5    1    5    5    0  502 -0.52023187666E+02  0.76675274456E+02  0.10329922722E+04  0.10371502467E+04  0.47000000000E+01 0.  1.
         13    1    6    6    0    0  0.55649268091E+02  0.44537130626E+02  0.74958492454E+03  0.75296610558E+03  0.00000000000E+00 0. -1.
        -14    1    6    6    0    0  0.87224038107E+01 -0.20334775649E+02  0.73977287716E+02  0.77215429331E+02  0.00000000000E+00 0.  1.
</event>
<event>
12    1  0.1615162E-001  0.2461484E+03  0.7818608E-02  0.1116902E+00
         21   -1    0    0  503  502  0.00000000000E+00  0.00000000000E+00  0.25980863803E+03  0.25980863803E+03  0.00000000000E+00 0. -1.
         21   -1    0    0  501  503 -0.00000000000E+00 -0.00000000000E+00 -0.46871351578E+03  0.46871351578E+03  0.00000000000E+00 0. -1.
          6    2    1    2  501    0 -0.16136708024E+03 -0.51734966062E+02 -0.36548119078E+03  0.43679426516E+03  0.16881021285E+03 0.  0.
         24    2    3    3    0    0 -0.50617085397E+02 -0.80771186384E+02 -0.17431955749E+03  0.21391868666E+03  0.79295791158E+02 0.  0.
         -6    2    1    2    0  502  0.16136708024E+03  0.51734966062E+02  0.15657631303E+03  0.29172788864E+03  0.17853060777E+03 0.  0.
        -24    2    5    5    0    0  0.89239247315E+02  0.67375453052E+02  0.16775886006E+03  0.21693358088E+03  0.80087754670E+02 0.  0.
          5    1    3    3  501    0 -0.11074999484E+03  0.29036220323E+02 -0.19116163330E+03  0.22287557850E+03  0.47000000000E+01 0. -1.
        -13    1    4    4    0    0 -0.22137490153E+02 -0.74859236746E+02 -0.16635596294E+03  0.18376147638E+03  0.00000000000E+00 0.  1.
         14    1    4    4    0    0 -0.28479595244E+02 -0.59119496385E+01 -0.79635945524E+01  0.30157210281E+02  0.00000000000E+00 0. -1.
         -5    1    5    5    0  502  0.72127832923E+02 -0.15640486990E+02 -0.11182547028E+02  0.74794307761E+02  0.47000000000E+01 0.  1.
         11    1    6    6    0    0  0.99435162885E+02  0.44609532672E+02  0.11423776448E+03  0.15788485949E+03  0.00000000000E+00 0. -1.
        -12    1    6    6    0    0 -0.10195915570E+02  0.22765920380E+02  0.53521095587E+02  0.59048721391E+02  0.00000000000E+00 0.  1.
</event>
<event>
12    1  0.1615162E-001  0.2052956E+03  0.7818608E-02  0.1146219E+00
         21   -1    0    0  503  502  0.00000000000E+00  0.00000000000E+00  0.73345294876E+03  0.73345294876E+03  0.00000000000E+00 0.  1.
         21   -1    0    0  501  503 -0.00000000000E+00 -0.00000000000E+00 -0.20026201225E+03  0.20026201225E+03  0.00000000000E+00 0.  1.
          6    2    1    2  501    0 -0.10197146722E+03 -0.59551434227E+01 -0.12846947923E+03  0.24217903935E+03  0.17808042045E+03 0.  0.
         24    2    3    3    0    0 -0.49630506600E+02 -0.73449266079E+02 -0.77513163047E+02  0.14261163047E+03  0.80447528413E+02 0.  0.
         -6    2    1    2    0  502  0.10197146722E+03  0.59551434227E+01  0.66166041574E+03  0.69153592166E+03  0.17318712806E+03 0.  0.
        -24    2    5    5    0    0  0.98342261277E+02  0.32170978888E+02  0.28181293683E+03  0.31073854982E+03  0.80210614900E+02 0.  0.
          5    1    3    3  501    0 -0.52340960620E+02  0.67494122656E+02 -0.50956316185E+02  0.99567408879E+02  0.47000000000E+01 0. -1.
        -11    1    4    4    0    0 -0.29314762908E+02  0.11877909200E+02 -0.15738826661E+02  0.35329176554E+02  0.00000000000E+00 0.  1.
         12    1    4    4    0    0 -0.20315743692E+02 -0.85327175279E+02 -0.61774336387E+02  0.10728245392E+03  0.00000000000E+00 0. -1.
         -5    1    5    5    0  502  0.36292059432E+01 -0.26215835466E+02  0.37984747891E+03  0.38079737184E+03  0.47000000000E+01 0.  1.
         13    1    6    6    0    0  0.50997414676E+02  0.49040007588E+02  0.21985336212E+03  0.23095705117E+03  0.00000000000E+00 0. -1.
        -14    1    6    6    0    0  0.47344846601E+02 -0.16869028699E+02  0.61959574710E+02  0.79781498652E+02  0.00000000000E+00 0.  1.
</event>
<event>
12    1  0.1615162E-001  0.1937820E+03  0.7818608E-02  0.1155245E+00
         21   -1    0    0  503  502  0.00000000000E+00  0.00000000000E+00  0.96388336137E+03  0.96388336137E+03  0.00000000000E+00 0. -1.
         21   -1    0    0  501  503 -0.00000000000E+00 -0.00000000000E+00 -0.51729616435E+02  0.51729616435E+02  0.00000000000E+00 0. -1.
          6    2    1    2  501    0  0.11029164193E+02 -0.89219761041E+02  0.20179089814E+03  0.27929317915E+03  0.17088974553E+03 0.  0.
         24    2    3    3    0    0  0.69120294626E+01 -0.94391338730E+02  0.60826968786E+02  0.13809609918E+03  0.80081904940E+02 0.  0.
         -6    2    1    2    0  502 -0.11029164193E+02  0.89219761041E+02  0.71036284680E+03  0.73631979866E+03  0.17166730485E+03 0.  0.
        -24    2    5    5    0    0  0.21874939479E+02 -0.45187321333E+01  0.19636371518E+03  0.21278681742E+03  0.78870711351E+02 0.  0.
          5    1    3    3  501    0  0.41171347305E+01  0.51715776887E+01  0.14096392935E+03  0.14119707997E+03  0.47000000000E+01 0. -1.
        -13    1    4    4    0    0  0.27955763871E+02 -0.96174207946E+02  0.60429589221E+02  0.11697323737E+03  0.00000000000E+00 0.  1.
         14    1    4    4    0    0 -0.21043734409E+02  0.17828692165E+01  0.39737956496E+00  0.21122861810E+02  0.00000000000E+00 0. -1.
         -5    1    5    5    0  502 -0.32904103672E+02  0.93738493174E+02  0.51399913162E+03  0.52353298124E+03  0.47000000000E+01 0.  1.
         13    1    6    6    0    0  0.25111714000E+01 -0.10559493534E+02  0.19165657114E+03  0.19196366882E+03  0.00000000000E+00 0. -1.
        -14    1    6    6    0    0  0.19363768079E+02  0.60407614005E+01  0.47071440432E+01  0.20823148598E+02  0.00000000000E+00 0.  1.
</event>
<event>
12    1  0.1615162E-001  0.2197123E+03  0.7818608E-02  0.1134429E+00
         21   -1    0    0  501  502  0.00000000000E+00  0.00000000000E+00  0.77971222857E+02  0.77971222857E+02  0.00000000000E+00 0. -1.
         21   -1    0    0  502  503 -0.00000000000E+00 -0.00000000000E+00 -0.61803798643E+03  0.61803798643E+03  0.00000000000E+00 0.  1.
         -6    2    1    2    0  503 -0.13200049622E+03 -0.25168599127E+02 -0.24134091536E+03  0.32518495820E+03  0.17158738365E+03 0.  0.
        -24    2    3    3    0    0 -0.79704618701E+02 -0.17761631784E+02 -0.44683090725E+02  0.12150356003E+03  0.78091194744E+02 0.  0.
          6    2    1    2  501    0  0.13200049622E+03  0.25168599127E+02 -0.29872584821E+03  0.37082425108E+03  0.17382722290E+03 0.  0.
         24    2    5    5    0    0  0.98228555558E+01 -0.30280819884E+02 -0.11451814941E+03  0.14288439006E+03  0.79297703848E+02 0.  0.
          5    1    5    5  501    0  0.12217764066E+03  0.55449419011E+02 -0.18420769880E+03  0.22793986102E+03  0.47000000000E+01 0. -1.
        -11    1    6    6    0    0  0.17097517098E+02 -0.29824517968E+02 -0.12526622320E+03  0.12989785848E+03  0.00000000000E+00 0.  1.
         12    1    6    6    0    0 -0.72746615418E+01 -0.45630191529E+00  0.10748073799E+02  0.12986531576E+02  0.00000000000E+00 0. -1.
         -5    1    3    3    0  503 -0.52295877515E+02 -0.74069673436E+01 -0.19665782464E+03  0.20368139817E+03  0.47000000000E+01 0.  1.
         11    1    4    4    0    0 -0.33859831303E+02 -0.44833671439E+02 -0.38039175901E+02  0.67849282780E+02  0.00000000000E+00 0. -1.
        -12    1    4    4    0    0 -0.45844787398E+02  0.27072039655E+02 -0.66439148243E+01  0.53654277247E+02  0.00000000000E+00 0.  1.
</event>
<event>
12    1  0.1615162E-001  0.1812840E+03  0.7818608E-02  0.1167277E+00
         21   -1    0    0  503  502  0.00000000000E+00  0.00000000000E+00  0.13232983686E+02  0.13232983686E+02  0.00000000000E+00 0. -1.
         21   -1    0    0  501  503 -0.00000000000E+00 -0.00000000000E+00 -0.25795754502E+04  0.25795754502E+04  0.00000000000E+00 0. -1.
          6    2    1    2  501    0  0.25928126510E+01  0.47423458781E+02 -0.15910162785E+04  0.16013109303E+04  0.17495196397E+03 0.  0.
         24    2    3    3    0    0 -0.44477293260E+02 -0.15726565110E+02 -0.11019538106E+04  0.11059245075E+04  0.80878062324E+02 0.  0.
         -6    2    1    2    0  502 -0.25928126510E+01 -0.47423458781E+02 -0.97532618795E+03  0.99149750359E+03  0.17190235487E+03 0.  0.
        -24    2    5    5    0    0 -0.23569572735E+02 -0.33617513138E+02 -0.95395935270E+03  0.95819194479E+03  0.80048076177E+02 0.  0.
          5    1    3    3  501    0  0.47070105911E+02  0.63150023891E+02 -0.48906246789E+03  0.49538642279E+03  0.47000000000E+01 0. -1.
        -11    1    4    4    0    0 -0.20792377996E+02 -0.41998787881E+02 -0.87274858123E+03  0.87400589655E+03  0.00000000000E+00 0.  1.
         12    1    4    4    0    0 -0.23684915264E+02  0.26272222770E+02 -0.22920522942E+03  0.23191861093E+03  0.00000000000E+00 0. -1.
         -5    1    5    5    0  502  0.20976760084E+02 -0.13805945643E+02 -0.21366835245E+02  0.33305558802E+02  0.47000000000E+01 0.  1.
         13    1    6    6    0    0 -0.42340710557E+02 -0.41219278334E+02 -0.45490624652E+03  0.45872808700E+03  0.00000000000E+00 0. -1.
        -14    1    6    6    0    0  0.18771137822E+02  0.76017651964E+01 -0.49905310618E+03  0.49946385779E+03  0.00000000000E+00 0.  1.
</event>
<event>
12    1  0.1615162E-001  0.2185691E+03  0.7818608E-02  0.1135147E+00
         21   -1    0    0  501  502  0.00000000000E+00  0.00000000000E+00  0.74301343849E+03  0.74301343849E+03  0.00000000000E+00 0. -1.
         21   -1    0    0  502  503 -0.00000000000E+00 -0.00000000000E+00 -0.64164247563E+02  0.64164247563E+02  0.00000000000E+00 0. -1.
         -6    2    1    2    0  503  0.16393028204E+02  0.13268178751E+03  0.35939326018E+03  0.42010592797E+03  0.17161668667E+03 0.  0.
        -24    2    3    3    0    0 -0.99205112293E+01  0.15837167513E+02  0.22691504365E+03  0.24145085406E+03  0.80366942663E+02 0.  0.
          6    2    1    2  501    0 -0.16393028204E+02 -0.13268178751E+03  0.31945593074E+03  0.38707175808E+03  0.17291404252E+03 0.  0.
         24    2    5    5    0    0  0.36046872611E+02 -0.13060363381E+03  0.28111287720E+03  0.32190626356E+03  0.79009534884E+02 0.  0.
          5    1    5    5  501    0 -0.52439900815E+02 -0.20781537044E+01  0.38343053541E+02  0.65165494513E+02  0.47000000000E+01 0. -1.
        -13    1    6    6    0    0 -0.18897968406E+02 -0.47682089315E+02  0.14127536066E+03  0.15029784556E+03  0.00000000000E+00 0.  1.
         14    1    6    6    0    0  0.54944841017E+02 -0.82921544494E+02  0.13983751655E+03  0.17160841800E+03  0.00000000000E+00 0. -1.
         -5    1    3    3    0  503  0.26313539433E+02  0.11684462000E+03  0.13247821653E+03  0.17865507391E+03  0.47000000000E+01 0.  1.
         13    1    4    4    0    0 -0.35064124174E+02  0.35194808257E+02  0.15697256336E+03  0.16464675211E+03  0.00000000000E+00 0. -1.
        -14    1    4    4    0    0  0.25143612944E+02 -0.19357640744E+02  0.69942480290E+02  0.76804101949E+02  0.00000000000E+00 0.  1.
</event>
<event>
12    1  0.1615162E-001  0.1800311E+03  0.7818608E-02  0.1168007E+00
         21   -1    0    0  501  502  0.00000000000E+00  0.00000000000E+00  0.37705212138E+02  0.37705212138E+02  0.00000000000E+00 0.  1.
         21   -1    0    0  502  503 -0.00000000000E+00 -0.00000000000E+00 -0.86919911661E+03  0.86919911661E+03  0.00000000000E+00 0.  1.
         -6    2    1    2    0  503  0.26816699505E+02 -0.42743626038E+02 -0.47262413501E+03  0.50540873051E+03  0.17180878600E+03 0.  0.
        -24    2    3    3    0    0  0.51454154381E+02 -0.18328536037E+02 -0.12888218009E+03  0.15988923413E+03  0.77268917504E+02 0.  0.
          6    2    1    2  501    0 -0.26816699505E+02  0.42743626038E+02 -0.35886976946E+03  0.40149559824E+03  0.17281507755E+03 0.  0.
         24    2    5    5    0    0  0.46326994774E+02  0.49533808692E+02 -0.24179042530E+03  0.26319964955E+03  0.78814066687E+02 0.  0.
          5    1    5    5  501    0 -0.73143694279E+02 -0.67901826542E+01 -0.11707934416E+03  0.13829594868E+03  0.47000000000E+01 0. -1.
        -11    1    6    6    0    0 -0.11155474280E+02  0.42106679684E+02 -0.13272070534E+03  0.13968608630E+03  0.00000000000E+00 0.  1.
         12    1    6    6    0    0  0.57482469054E+02  0.74271290082E+01 -0.10906971996E+03  0.12351356325E+03  0.00000000000E+00 0. -1.
         -5    1    3    3    0  503 -0.24637454876E+02 -0.24415090001E+02 -0.34374195492E+03  0.34551949638E+03  0.47000000000E+01 0.  1.
         11    1    4    4    0    0 -0.91736590189E+01 -0.18929557705E+02 -0.77845539645E+02  0.80637536033E+02  0.00000000000E+00 0. -1.
        -12    1    4    4    0    0  0.60627813400E+02  0.60102166867E+00 -0.51036640440E+02  0.79251698102E+02  0.00000000000E+00 0.  1.
</event>
<event>
12    1  0.1615162E-001  0.2211925E+03  0.7818608E-02  0.1133013E+00
         21   -1    0    0  503  502  0.00000000000E+00  0.00000000000E+00  0.98440640969E+02  0.98440640969E+02  0.00000000000E+00 0.  1.
         21   -1    0    0  501  503 -0.00000000000E+00 -0.00000000000E+00 -0.55357854311E+03  0.55357854311E+03  0.00000000000E+00 0.  1.
          6    2    1    2  501    0  0.11213704103E+03  0.82543654171E+02 -0.33200605045E+03  0.39894127448E+03  0.17186608781E+03 0.  0.
         24    2    3    3    0    0  0.94653183637E+02  0.99942555328E+02 -0.33771353457E+03  0.37319108214E+03  0.79204878750E+02 0.  0.
         -6    2    1    2    0  502 -0.11213704103E+03 -0.82543654171E+02 -0.12313185169E+03  0.25307790960E+03  0.17175216042E+03 0.  0.
        -24    2    5    5    0    0 -0.67313011700E+02 -0.72181018227E+02  0.44905889836E+00  0.12112750493E+03  0.70217731808E+02 0.  0.
          5    1    3    3  501    0  0.17483857390E+02 -0.17398901156E+02  0.57074841236E+01  0.25750192343E+02  0.47000000000E+01 0. -1.
        -11    1    4    4    0    0  0.29794725983E+02 -0.81547036452E+01 -0.46060342529E+02  0.55459715487E+02  0.00000000000E+00 0.  1.
         12    1    4    4    0    0  0.64858457653E+02  0.10809725897E+03 -0.29165319204E+03  0.31773136665E+03  0.00000000000E+00 0. -1.
         -5    1    5    5    0  502 -0.44824029327E+02 -0.10362635944E+02 -0.12358091059E+03  0.13195040467E+03  0.47000000000E+01 0.  1.
         13    1    6    6    0    0 -0.42977639673E+02 -0.76754217590E+02 -0.18568393604E+02  0.89905910099E+02  0.00000000000E+00 0. -1.
        -14    1    6    6    0    0 -0.24335372027E+02  0.45731993628E+01  0.19017452502E+02  0.31221594831E+02  0.00000000000E+00 0.  1.
</event>
<event>
12    1  0.1615162E-001  0.1782815E+03  0.7818608E-02  0.1169595E+00
         21   -1    0    0  503  502  0.00000000000E+00  0.00000000000E+00  0.10167660043E+03  0.10167660043E+03  0.00000000000E+00 0. -1.
         21   -1    0    0  501  503 -0.00000000000E+00 -0.00000000000E+00 -0.36536108525E+03  0.36536108525E+03  0.00000000000E+00 0. -1.
          6    2    1    2  501    0 -0.25182127242E+02  0.37384464037E+02 -0.22143859717E+03  0.28428742409E+03  0.17248927358E+03 0.  0.
         24    2    3    3    0    0 -0.12401747025E+02 -0.43115387128E+02 -0.13152219738E+03  0.16283532199E+03  0.84879407081E+02 0.  0.
         -6    2    1    2    0  502  0.25182127242E+02 -0.37384464037E+02 -0.42245887648E+02  0.18275026158E+03  0.17199187598E+03 0.  0.
        -24    2    5    5    0    0  0.74331504916E+02 -0.11859668525E+02  0.71641321343E+01  0.10838214633E+03  0.77650115861E+02 0.  0.
          5    1    3    3  501    0 -0.12780380218E+02  0.80499851165E+02 -0.89916399788E+02  0.12145210211E+03  0.47000000000E+01 0. -1.
        -11    1    4    4    0    0 -0.20049702618E+02 -0.31478151683E+02 -0.75420069986E+01  0.38075536477E+02  0.00000000000E+00 0.  1.
         12    1    4    4    0    0  0.76479555936E+01 -0.11637235445E+02 -0.12398019038E+03  0.12475978551E+03  0.00000000000E+00 0. -1.
         -5    1    5    5    0  502 -0.49149377674E+02 -0.25524795512E+02 -0.49410019782E+02  0.74368115255E+02  0.47000000000E+01 0.  1.
         11    1    6    6    0    0  0.26708873347E+02 -0.19454305331E+02  0.38603914661E+02  0.50814330051E+02  0.00000000000E+00 0. -1.
        -12    1    6    6    0    0  0.47622631569E+02  0.75946368064E+01 -0.31439782526E+02  0.57567816279E+02  0.00000000000E+00 0.  1.
</event>
<event>
12    1  0.1615162E-001  0.2161947E+03  0.7818608E-02  0.1137062E+00
         21   -1    0    0  501  502  0.00000000000E+00  0.00000000000E+00  0.25355411658E+04  0.25355411658E+04  0.00000000000E+00 0. -1.
         21   -1    0    0  502  503 -0.00000000000E+00 -0.00000000000E+00 -0.28877127442E+02  0.28877127442E+02  0.00000000000E+00 0. -1.
         -6    2    1    2    0  503 -0.59981976390E+02 -0.11347978074E+03  0.48017202241E+03  0.52659788973E+03  0.17396743441E+03 0.  0.
        -24    2    3    3    0    0 -0.10958772245E+03 -0.84308289824E+02  0.35172419726E+03  0.38576948453E+03  0.77400436786E+02 0.  0.
          6    2    1    2  501    0  0.59981976390E+02  0.11347978074E+03  0.20264920159E+04  0.20378204035E+04  0.17194943483E+03 0.  0.
         24    2    5    5    0    0  0.32257191224E+01  0.56947435224E+02  0.53222184333E+03  0.54139712863E+03  0.81224040345E+02 0.  0.
          5    1    5    5  501    0  0.56756257267E+02  0.56532345517E+02  0.14942701726E+04  0.14964232749E+04  0.47000000000E+01 0. -1.
        -13    1    6    6    0    0  0.20938586813E+02 -0.30838613442E+01  0.40394507765E+02  0.45603189319E+02  0.00000000000E+00 0.  1.
         14    1    6    6    0    0 -0.17712867690E+02  0.60031296568E+02  0.49182733556E+03  0.49579393931E+03  0.00000000000E+00 0. -1.
         -5    1    3    3    0  503  0.49605746059E+02 -0.29171490918E+02  0.12844782515E+03  0.14082840520E+03  0.47000000000E+01 0.  1.
         11    1    4    4    0    0 -0.45409545445E+02 -0.72113291533E+02  0.25654161294E+03  0.27032564214E+03  0.00000000000E+00 0. -1.
        -12    1    4    4    0    0 -0.64178177004E+02 -0.12194998291E+02  0.95182584322E+02  0.11544384239E+03  0.00000000000E+00 0.  1.
</event>
<event>
12    1  0.1615162E-001  0.1810122E+03  0.7818608E-02  0.1167043E+00
         21   -1    0    0  501  502  0.00000000000E+00  0.00000000000E+00  0.55656566131E+03  0.55656566131E+03  0.00000000000E+00 0.  1.
         21   -1    0    0  502  503 -0.00000000000E+00 -0.00000000000E+00 -0.58640856889E+02  0.58640856889E+02  0.00000000000E+00 0.  1.
         -6    2    1    2    0  503  0.52014502344E+02  0.19977889886E+02  0.23963227478E+03  0.30031488953E+03  0.17222305658E+03 0.  0.
        -24    2    3    3    0    0  0.22091271973E+02  0.70955398940E+02  0.20184539525E+03  0.23000099041E+03  0.81462869252E+02 0.  0.
          6    2    1    2  501    0 -0.52014502344E+02 -0.19977889886E+02  0.25829252964E+03  0.31489162867E+03  0.17128071229E+03 0.  0.
         24    2    5    5    0    0 -0.82472613980E+02  0.26088468430E+02  0.21061381524E+03  0.24178105666E+03  0.81348386264E+02 0.  0.
          5    1    5    5  501    0  0.30458111636E+02 -0.46066358316E+02  0.47678714399E+02  0.73110572010E+02  0.47000000000E+01 0. -1.
        -11    1    6    6    0    0 -0.42217984765E+02 -0.52305709307E+01  0.17366806121E+03  0.17880244013E+03  0.00000000000E+00 0.  1.
         12    1    6    6    0    0 -0.40254629215E+02  0.31319039361E+02  0.36945754027E+02  0.62978616532E+02  0.00000000000E+00 0. -1.
         -5    1    3    3    0  503  0.29923230371E+02 -0.50977509054E+02  0.37786879526E+02  0.70313899120E+02  0.47000000000E+01 0.  1.
         13    1    4    4    0    0 -0.20733223306E+02  0.95250860352E+01  0.11700356883E+02  0.25641610009E+02  0.00000000000E+00 0. -1.
        -14    1    4    4    0    0  0.42824495280E+02  0.61430312905E+02  0.19014503837E+03  0.20435938040E+03  0.00000000000E+00 0.  1.
</event>
<event>
12    1  0.1615162E-001  0.1800458E+03  0.7818608E-02  0.1167827E+00
         21   -1    0    0  503  502  0.00000000000E+00  0.00000000000E+00  0.91108668696E+02  0.91108668696E+02  0.00000000000E+00 0. -1.
         21   -1    0    0  501  503 -0.00000000000E+00 -0.00000000000E+00 -0.14098189249E+04  0.14098189249E+04  0.00000000000E+00 0. -1.
          6    2    1    2  501    0 -0.53477170091E+02  0.73054627427E+01 -0.13085490208E+04  0.13208773657E+04  0.17176524034E+03 0.  0.
         24    2    3    3    0    0 -0.79537435584E+02 -0.35522007858E+02 -0.66242784170E+03  0.67279712545E+03  0.79103159585E+02 0.  0.
         -6    2    1    2    0  502  0.53477170091E+02 -0.73054627427E+01 -0.10161235367E+02  0.18005022789E+03  0.17146911195E+03 0.  0.
        -24    2    5    5    0    0  0.16180456585E+02  0.53401586110E+02 -0.37685592148E+02  0.10352525919E+03  0.78636752605E+02 0.  0.
          5    1    3    3  501    0  0.26060265493E+02  0.42827470600E+02 -0.64612117912E+03  0.64808024023E+03  0.47000000000E+01 0. -1.
        -11    1    4    4    0    0 -0.48048083684E+02 -0.59079789872E+02 -0.49427906701E+03  0.50011082372E+03  0.00000000000E+00 0.  1.
         12    1    4    4    0    0 -0.31489351900E+02  0.23557782014E+02 -0.16814877469E+03  0.17268630174E+03  0.00000000000E+00 0. -1.
         -5    1    5    5    0  502  0.37296713506E+02 -0.60707048853E+02  0.27524356781E+02  0.76524968703E+02  0.47000000000E+01 0.  1.
         11    1    6    6    0    0 -0.28982988013E+02  0.37234324058E+02 -0.10326020221E+02  0.48301502831E+02  0.00000000000E+00 0. -1.
        -12    1    6    6    0    0  0.45163444598E+02  0.16167262052E+02 -0.27359571927E+02  0.55223756357E+02  0.00000000000E+00 0.  1.
</event>
<event>
12    1  0.1615162E-001  0.2154084E+03  0.7818608E-02  0.1137384E+00
         21   -1    0    0  501  502  0.00000000000E+00  0.00000000000E+00  0.11074488284E+03  0.11074488284E+03  0.00000000000E+00 0. -1.
         21   -1    0    0  502  503 -0.00000000000E+00 -0.00000000000E+00 -0.67133904769E+03  0.67133904769E+03  0.00000000000E+00 0. -1.
         -6    2    1    2    0  503  0.12918323330E+03 -0.10316014359E+02 -0.52025762629E+03  0.56308859925E+03  0.17206407230E+03 0.  0.
        -24    2    3    3    0    0  0.92376014143E+02 -0.67286745358E+02 -0.41462452856E+03  0.43746663896E+03  0.80017038346E+02 0.  0.
          6    2    1    2  501    0 -0.12918323330E+03  0.10316014359E+02 -0.40336538565E+02  0.21899533128E+03  0.17186387305E+03 0.  0.
         24    2    5    5    0    0 -0.65120438889E+02 -0.55854000021E+02 -0.48025983130E+02  0.12645490774E+03  0.79523630177E+02 0.  0.
          5    1    5    5  501    0 -0.64062794408E+02  0.66170014379E+02  0.76894445651E+01  0.92540423535E+02  0.47000000000E+01 0. -1.
        -11    1    6    6    0    0 -0.29660785565E+00 -0.45040290238E+02  0.27260132466E-01  0.45041275116E+02  0.00000000000E+00 0.  1.
         12    1    6    6    0    0 -0.64823831033E+02 -0.10813709783E+02 -0.48053243263E+02  0.81413632625E+02  0.00000000000E+00 0. -1.
         -5    1    3    3    0  503  0.36807219153E+02  0.56970731000E+02 -0.10563309773E+03  0.12562196030E+03  0.47000000000E+01 0.  1.
         11    1    4    4    0    0  0.10270267017E+03 -0.59040761965E+02 -0.30749555487E+03  0.32952566864E+03  0.00000000000E+00 0. -1.
        -12    1    4    4    0    0 -0.10326656028E+02 -0.82459833934E+01 -0.10712897369E+03  0.10794097031E+03  0.00000000000E+00 0.  1.
</event>
<event>
12    1  0.1615162E-001  0.2684025E+03  0.7818608E-02  0.1102233E+00
         21   -1    0    0  503  502  0.00000000000E+00  0.00000000000E+00  0.12250613796E+03  0.12250613796E+03  0.00000000000E+00 0. -1.
         21   -1    0    0  501  503 -0.00000000000E+00 -0.00000000000E+00 -0.79752080480E+03  0.79752080480E+03  0.00000000000E+00 0. -1.
          6    2    1    2  501    0  0.90862534455E+02 -0.18461332131E+03 -0.10133676306E+03  0.28666586979E+03  0.17195959637E+03 0.  0.
         24    2    3    3    0    0  0.12405199626E+03 -0.11747541871E+03 -0.94639809752E+02  0.21132678615E+03  0.80702820126E+02 0.  0.
         -6    2    1    2    0  502 -0.90862534455E+02  0.18461332131E+03 -0.57367790378E+03  0.63336107297E+03  0.17234219708E+03 0.  0.
        -24    2    5    5    0    0 -0.68505076311E+02  0.28953185862E+02 -0.28171859629E+03  0.30171026123E+03  0.78310163962E+02 0.  0.
          5    1    3    3  501    0 -0.33189461806E+02 -0.67137902597E+02 -0.66969533102E+01  0.75339083641E+02  0.47000000000E+01 0. -1.
        -13    1    4    4    0    0  0.10516760013E+02 -0.21236585273E+02 -0.50980725287E+02  0.56219473014E+02  0.00000000000E+00 0.  1.
         14    1    4    4    0    0  0.11353523625E+03 -0.96238833437E+02 -0.43659084466E+02  0.15510731313E+03  0.00000000000E+00 0. -1.
         -5    1    5    5    0  502 -0.22357458144E+02  0.15566013545E+03 -0.29195930749E+03  0.33165081174E+03  0.47000000000E+01 0.  1.
         13    1    6    6    0    0 -0.51145530320E+02  0.34568964669E+02 -0.27565639904E+03  0.28248421004E+03  0.00000000000E+00 0. -1.
        -14    1    6    6    0    0 -0.17359545991E+02 -0.56157788066E+01 -0.60621972508E+01  0.19226051184E+02  0.00000000000E+00 0.  1.
</event>
<event>
12    1  0.1615162E-001  0.1868185E+03  0.7818608E-02  0.1163152E+00
         21   -1    0    0  503  502  0.00000000000E+00  0.00000000000E+00  0.23876878680E+03  0.23876878680E+03  0.00000000000E+00 0.  1.
         21   -1    0    0  501  503 -0.00000000000E+00 -0.00000000000E+00 -0.16238468603E+03  0.16238468603E+03  0.00000000000E+00 0.  1.
          6    2    1    2  501    0  0.15940072434E+02  0.72068779077E+02 -0.35095971974E+02  0.19008648166E+03  0.17161919599E+03 0.  0.
         24    2    3    3    0    0  0.21437321702E+02  0.11579813863E+03 -0.13199840222E+02  0.14064958024E+03  0.75758174256E+02 0.  0.
         -6    2    1    2    0  502 -0.15940072434E+02 -0.72068779077E+02  0.11148007275E+03  0.21106699117E+03  0.16332015588E+03 0.  0.
        -24    2    5    5    0    0 -0.17026273255E+02 -0.15134107370E+02  0.78141956896E+01  0.92697059430E+02  0.89513954141E+02 0.  0.
          5    1    3    3  501    0 -0.54972492684E+01 -0.43729359554E+02 -0.21896131752E+02  0.49436901422E+02  0.47000000000E+01 0. -1.
        -11    1    4    4    0    0  0.25163405735E+02  0.46321131594E+02 -0.39913593223E+02  0.66120640834E+02  0.00000000000E+00 0.  1.
         12    1    4    4    0    0 -0.37260840323E+01  0.69477007037E+02  0.26713753001E+02  0.74528939403E+02  0.00000000000E+00 0. -1.
         -5    1    5    5    0  502  0.10862008207E+01 -0.56934671708E+02  0.10366587706E+03  0.11836993174E+03  0.47000000000E+01 0.  1.
         11    1    6    6    0    0 -0.25531426576E+02  0.29427453583E+02  0.22529078293E+02  0.45004312417E+02  0.00000000000E+00 0. -1.
        -12    1    6    6    0    0  0.85051533213E+01 -0.44561560953E+02 -0.14714882604E+02  0.47692747013E+02  0.00000000000E+00 0.  1.
</event>
<event>
12    1  0.1615162E-001  0.1887639E+03  0.7818608E-02  0.1160026E+00
         21   -1    0    0  503  502  0.00000000000E+00  0.00000000000E+00  0.70448214977E+02  0.70448214977E+02  0.00000000000E+00 0. -1.
         21   -1    0    0  501  503 -0.00000000000E+00 -0.00000000000E+00 -0.11302097471E+04  0.11302097471E+04  0.00000000000E+00 0. -1.
          6    2    1    2  501    0  0.56932377136E+02  0.48723214680E+02 -0.97917108668E+03  0.99719998778E+03  0.17325285398E+03 0.  0.
         24    2    3    3    0    0 -0.91970399356E+00 -0.98005011230E+01 -0.73535991234E+03  0.73983280390E+03  0.80631764045E+02 0.  0.
         -6    2    1    2    0  502 -0.56932377136E+02 -0.48723214680E+02 -0.80590445491E+02  0.20345797435E+03  0.17112884096E+03 0.  0.
        -24    2    5    5    0    0 -0.90055401295E+02 -0.31818083646E+02 -0.11332300486E+02  0.12470710874E+03  0.79379318382E+02 0.  0.
          5    1    3    3  501    0  0.57852081130E+02  0.58523715803E+02 -0.24381117434E+03  0.25736718387E+03  0.47000000000E+01 0. -1.
        -13    1    4    4    0    0 -0.37976176837E+02  0.14977203930E+01 -0.48573721523E+03  0.48722179286E+03  0.00000000000E+00 0.  1.
         14    1    4    4    0    0  0.37056472843E+02 -0.11298221516E+02 -0.24962269711E+03  0.25261101105E+03  0.00000000000E+00 0. -1.
         -5    1    5    5    0  502  0.33123024158E+02 -0.16905131034E+02 -0.69258145005E+02  0.78750865609E+02  0.47000000000E+01 0.  1.
         11    1    6    6    0    0 -0.28983606401E+02  0.25747202746E+02 -0.12623164797E+02  0.40771462799E+02  0.00000000000E+00 0. -1.
        -12    1    6    6    0    0 -0.61071794894E+02 -0.57565286392E+02  0.12908643111E+01  0.83935645942E+02  0.00000000000E+00 0.  1.
</event>
<event>
12    1  0.1615162E-001  0.2249440E+03  0.7818608E-02  0.1130251E+00
         21   -1    0    0  501  502  0.00000000000E+00  0.00000000000E+00  0.35489933172E+03  0.35489933172E+03  0.00000000000E+00 0. -1.
         21   -1    0    0  502  503 -0.00000000000E+00 -0.00000000000E+00 -0.16034291185E+03  0.16034291185E+03  0.00000000000E+00 0.  1.
         -6    2    1    2    0  503  0.94055657085E+01 -0.14458535171E+03  0.11513161068E+02  0.22523847705E+03  0.17206519135E+03 0.  0.
        -24    2    3    3    0    0 -0.24998249413E+02 -0.11218661687E+02  0.14918002920E+01  0.87061727296E+02  0.82624137199E+02 0.  0.
          6    2    1    2  501    0 -0.94055657085E+01  0.14458535171E+03  0.18304325880E+03  0.29000376653E+03  0.17205801757E+03 0.  0.
         24    2    5    5    0    0 -0.35760117970E+02  0.71135683566E+02  0.17854033490E+03  0.21169806751E+03  0.81242532496E+02 0.  0.
          5    1    5    5  501    0  0.26354552262E+02  0.73449668141E+02  0.45029239021E+01  0.78305699018E+02  0.47000000000E+01 0. -1.
        -11    1    6    6    0    0 -0.22234867443E+02 -0.56193521630E+01  0.81673330315E+01  0.24344851156E+02  0.00000000000E+00 0.  1.
         12    1    6    6    0    0 -0.13525250527E+02  0.76755035729E+02  0.17037300187E+03  0.18735321635E+03  0.00000000000E+00 0. -1.
         -5    1    3    3    0  503  0.34403815122E+02 -0.13336669002E+03  0.10021360776E+02  0.13817674976E+03  0.47000000000E+01 0.  1.
         11    1    4    4    0    0 -0.31158667103E+00  0.15094783531E+01  0.39752615382E+02  0.39782484096E+02  0.00000000000E+00 0. -1.
        -12    1    4    4    0    0 -0.24686662742E+02 -0.12728140040E+02 -0.38260815090E+02  0.47279243200E+02  0.00000000000E+00 0.  1.
</event>
<event>
12    1  0.1615162E-001  0.1997102E+03  0.7818608E-02  0.1150796E+00
         21   -1    0    0  501  502  0.00000000000E+00  0.00000000000E+00  0.86231456215E+02  0.86231456215E+02  0.00000000000E+00 0.  1.
         21   -1    0    0  502  503 -0.00000000000E+00 -0.00000000000E+00 -0.60456026908E+03  0.60456026908E+03  0.00000000000E+00 0. -1.
         -6    2    1    2    0  503  0.85908953912E+02 -0.36299568388E+02 -0.43353608031E+03  0.47732348969E+03  0.17659607541E+03 0.  0.
        -24    2    3    3    0    0  0.49422200839E+02 -0.60680592957E+02 -0.15733082177E+03  0.19761444023E+03  0.90409021720E+02 0.  0.
          6    2    1    2  501    0 -0.85908953912E+02  0.36299568388E+02 -0.84792732549E+02  0.21346823560E+03  0.17228137766E+03 0.  0.
         24    2    5    5    0    0 -0.11420890497E+03  0.63939852774E+02 -0.77244733253E+02  0.17292276922E+03  0.82483674445E+02 0.  0.
          5    1    5    5  501    0  0.28299951062E+02 -0.27640284386E+02 -0.75479992963E+01  0.40545466385E+02  0.47000000000E+01 0. -1.
        -11    1    6    6    0    0 -0.11192510070E+03  0.67451543737E+02 -0.41756253933E+02  0.13718791368E+03  0.00000000000E+00 0.  1.
         12    1    6    6    0    0 -0.22838042764E+01 -0.35116909630E+01 -0.35488479320E+02  0.35734855531E+02  0.00000000000E+00 0. -1.
         -5    1    3    3    0  503  0.36486753073E+02  0.24381024568E+02 -0.27620525854E+03  0.27970904947E+03  0.47000000000E+01 0.  1.
         13    1    4    4    0    0  0.57122656948E+02 -0.44316810512E+02 -0.16328466254E+03  0.17857451848E+03  0.00000000000E+00 0. -1.
        -14    1    4    4    0    0 -0.77004561095E+01 -0.16363782445E+02  0.59538407639E+01  0.19039921745E+02  0.00000000000E+00 0.  1.
</event>
<event>
12    1  0.1615162E-001  0.2343226E+03  0.7818608E-02  0.1123800E+00
         21   -1    0    0  503  502  0.00000000000E+00  0.00000000000E+00  0.17300880453E+04  0.17300880453E+04  0.00000000000E+00 0.  1.
         21   -1    0    0  501  503 -0.00000000000E+00 -0.00000000000E+00 -0.42581475761E+02  0.42581475761E+02  0.00000000000E+00 0. -1.
          6    2    1    2  501    0 -0.13341767169E+03  0.86958332123E+02  0.39505621509E+03  0.45932175098E+03  0.17188668126E+03 0.  0.
         24    2    3    3    0    0 -0.84692938797E+02 -0.20119469315E+02  0.21181016950E+03  0.24151229668E+03  0.76726492273E+02 0.  0.
         -6    2    1    2    0  502  0.13341767169E+03 -0.86958332123E+02  0.12924503545E+04  0.13133477701E+04  0.17056500178E+03 0.  0.
        -24    2    5    5    0    0  0.67995781899E+02 -0.72432313296E+02  0.43924790776E+03  0.45750459875E+03  0.80634155548E+02 0.  0.
          5    1    3    3  501    0 -0.48724732893E+02  0.10707780144E+03  0.18324604560E+03  0.21780945430E+03  0.47000000000E+01 0. -1.
        -13    1    4    4    0    0 -0.83454619090E+02 -0.25889455877E+01  0.20713033890E+03  0.22332566663E+03  0.00000000000E+00 0.  1.
         14    1    4    4    0    0 -0.12383197072E+01 -0.17530523727E+02  0.46798306010E+01  0.18186630043E+02  0.00000000000E+00 0. -1.
         -5    1    5    5    0  502  0.65421889791E+02 -0.14526018827E+02  0.85320244671E+03  0.85584317136E+03  0.47000000000E+01 0.  1.
         11    1    6    6    0    0  0.67383165893E+02 -0.30425033218E+02  0.17558759571E+03  0.19051818144E+03  0.00000000000E+00 0. -1.
        -12    1    6    6    0    0  0.61261600648E+00 -0.42007280078E+02  0.26366031205E+03  0.26698641731E+03  0.00000000000E+00 0.  1.
</event>
<event>
12    1  0.1615162E-001  0.1725576E+03  0.7818608E-02  0.1176448E+00
         21   -1    0    0  501  502  0.00000000000E+00  0.00000000000E+00  0.24077339646E+03  0.24077339646E+03  0.00000000000E+00 0.  1.
         21   -1    0    0  502  503 -0.00000000000E+00 -0.00000000000E+00 -0.13302293365E+03  0.13302293365E+03  0.00000000000E+00 0.  1.
         -6    2    1    2    0  503  0.32204948663E+01  0.57606510561E+01 -0.33176746585E+01  0.17258950870E+03  0.17243136275E+03 0.  0.
        -24    2    3    3    0    0 -0.37570783426E+02 -0.35110842489E+02 -0.37052066812E+02  0.10554842739E+03  0.84399525125E+02 0.  0.
          6    2    1    2  501    0 -0.32204948663E+01 -0.57606510561E+01  0.11106813747E+03  0.20120682141E+03  0.16764395943E+03 0.  0.
         24    2    5    5    0    0  0.37929552158E+02  0.46786836585E+02  0.57736375460E+02  0.11564437832E+03  0.80077925685E+02 0.  0.
          5    1    5    5  501    0 -0.41150047025E+02 -0.52547487642E+02  0.53331762013E+02  0.85562443087E+02  0.47000000000E+01 0. -1.
        -11    1    6    6    0    0  0.35589325660E+01 -0.22494902911E+02  0.11142139789E+02  0.25354170014E+02  0.00000000000E+00 0.  1.
         12    1    6    6    0    0  0.34370619593E+02  0.69281739497E+02  0.46594235671E+02  0.90290208310E+02  0.00000000000E+00 0. -1.
         -5    1    3    3    0  503  0.40791278293E+02  0.40871493546E+02  0.33734392153E+02  0.67041081311E+02  0.47000000000E+01 0.  1.
         13    1    4    4    0    0  0.98001977977E+01  0.19824587346E+02 -0.22530257517E+02  0.31570090974E+02  0.00000000000E+00 0. -1.
        -14    1    4    4    0    0 -0.47370981224E+02 -0.54935429835E+02 -0.14521809295E+02  0.73978336414E+02  0.00000000000E+00 0.  1.
</event>
<event>
12    1  0.1615162E-001  0.1905412E+03  0.7818608E-02  0.1158060E+00
         21   -1    0    0  501  502  0.00000000000E+00  0.00000000000E+00  0.12878505708E+03  0.12878505708E+03  0.00000000000E+00 0. -1.
         21   -1    0    0  502  503 -0.00000000000E+00 -0.00000000000E+00 -0.35947072444E+03  0.35947072444E+03  0.00000000000E+00 0. -1.
         -6    2    1    2    0  503 -0.31591975721E+02  0.76047226375E+02 -0.22906218091E+03  0.29770767648E+03  0.17140345488E+03 0.  0.
        -24    2    3    3    0    0  0.23146067825E+02  0.17687863665E+02 -0.19220296249E+03  0.20948772064E+03  0.78067440918E+02 0.  0.
          6    2    1    2  501    0  0.31591975721E+02 -0.76047226375E+02 -0.16234864485E+01  0.19054810504E+03  0.17182756199E+03 0.  0.
         24    2    5    5    0    0  0.64416434051E+02  0.50629911569E+01 -0.53213719656E+01  0.10284361935E+03  0.79833465331E+02 0.  0.
          5    1    5    5  501    0 -0.32824458330E+02 -0.81110217532E+02  0.36978855171E+01  0.87704485689E+02  0.47000000000E+01 0. -1.
        -13    1    6    6    0    0  0.13256087550E+02 -0.29073117349E+02 -0.22389223308E+02  0.39015988131E+02  0.00000000000E+00 0.  1.
         14    1    6    6    0    0  0.51160346501E+02  0.34136108505E+02  0.17067851343E+02  0.63827631222E+02  0.00000000000E+00 0. -1.
         -5    1    3    3    0  503 -0.54738043546E+02  0.58359362710E+02 -0.36859218420E+02  0.88219955848E+02  0.47000000000E+01 0.  1.
         11    1    4    4    0    0 -0.11356110826E+01  0.45114357459E+02 -0.85611811312E+02  0.96777978371E+02  0.00000000000E+00 0. -1.
        -12    1    4    4    0    0  0.24281678908E+02 -0.27426493795E+02 -0.10659115118E+03  0.11270974227E+03  0.00000000000E+00 0.  1.
</event>
<event>
12    1  0.1615162E-001  0.2915219E+03  0.7818608E-02  0.1089606E+00
         21   -1    0    0  503  502  0.00000000000E+00  0.00000000000E+00  0.61168874727E+03  0.61168874727E+03  0.00000000000E+00 0. -1.
         21   -1    0    0  501  503 -0.00000000000E+00 -0.00000000000E+00 -0.14203263679E+03  0.14203263679E+03  0.00000000000E+00 0.  1.
          6    2    1    2  501    0 -0.23068681459E+03  0.43164618714E+02  0.29191767324E+03  0.41228914108E+03  0.17229862790E+03 0.  0.
         24    2    3    3    0    0 -0.60460426145E+02 -0.12121765486E+02  0.15673074533E+03  0.18794297313E+03  0.83400445374E+02 0.  0.
         -6    2    1    2    0  502  0.23068681459E+03 -0.43164618714E+02  0.17773843724E+03  0.34143224298E+03  0.17293187601E+03 0.  0.
        -24    2    5    5    0    0  0.87053529499E+02 -0.80894042488E+02  0.95658376941E+02  0.17168756323E+03  0.78765037817E+02 0.  0.
          5    1    3    3  501    0 -0.17022638844E+03  0.55286384200E+02  0.13518692791E+03  0.22434616796E+03  0.47000000000E+01 0. -1.
        -13    1    4    4    0    0 -0.28109962036E+02 -0.46907797272E+02  0.67661095015E+02  0.86997328633E+02  0.00000000000E+00 0.  1.
         14    1    4    4    0    0 -0.32350464109E+02  0.34786031786E+02  0.89069650311E+02  0.10094564449E+03  0.00000000000E+00 0. -1.
         -5    1    5    5    0  502  0.14363328509E+03  0.37729423774E+02  0.82080060301E+02  0.16974467975E+03  0.47000000000E+01 0.  1.
         13    1    6    6    0    0  0.35526304185E+02 -0.28318235486E+02  0.86235787776E+02  0.97471287277E+02  0.00000000000E+00 0. -1.
        -14    1    6    6    0    0  0.51527225313E+02 -0.52575807002E+02  0.94225891643E+01  0.74216275958E+02  0.00000000000E+00 0.  1.
</event>
<event>
12    1  0.1615162E-001  0.2535599E+03  0.7818608E-02  0.1111164E+00
         21   -1    0    0  503  502  0.00000000000E+00  0.00000000000E+00  0.11339598393E+03  0.11339598393E+03  0.00000000000E+00 0.  1.
         21   -1    0    0  501  503 -0.00000000000E+00 -0.00000000000E+00 -0.68633653822E+03  0.68633653822E+03  0.00000000000E+00 0. -1.
          6    2    1    2  501    0 -0.10169214340E+03  0.15547826257E+03 -0.45384628973E+03  0.51959673375E+03  0.17172515499E+03 0.  0.
         24    2    3    3    0    0 -0.44018965449E+02  0.16749953081E+03 -0.37895754520E+03  0.42419694128E+03  0.79627016696E+02 0.  0.
         -6    2    1    2    0  502  0.10169214340E+03 -0.15547826257E+03 -0.11909426455E+03  0.28013578840E+03  0.17256255079E+03 0.  0.
        -24    2    5    5    0    0  0.90388742538E+01 -0.78374431533E+02 -0.11303447648E+03  0.15935317345E+03  0.79952412397E+02 0.  0.
          5    1    3    3  501    0 -0.57673177950E+02 -0.12021268239E+02 -0.74888744538E+02  0.95399792471E+02  0.47000000000E+01 0. -1.
        -13    1    4    4    0    0 -0.28373825472E+02  0.34951512095E+02 -0.41202559521E+02  0.61027314219E+02  0.00000000000E+00 0.  1.
         14    1    4    4    0    0 -0.15645139976E+02  0.13254801872E+03 -0.33775498567E+03  0.36316962706E+03  0.00000000000E+00 0. -1.
         -5    1    5    5    0  502  0.92653269145E+02 -0.77103831041E+02 -0.60597880684E+01  0.12078261496E+03  0.47000000000E+01 0.  1.
         11    1    6    6    0    0  0.41738466284E+02 -0.22241249101E+02 -0.50334273857E+02  0.69067444241E+02  0.00000000000E+00 0. -1.
        -12    1    6    6    0    0 -0.32699592031E+02 -0.56133182431E+02 -0.62700202626E+02  0.90285729206E+02  0.00000000000E+00 0.  1.
</event>
<event>
12    1  0.1615162E-001  0.3179923E+03  0.7818608E-02  0.1076658E+00
         21   -1    0    0  501  502  0.00000000000E+00  0.00000000000E+00  0.64669544882E+03  0.64669544882E+03  0.00000000000E+00 0.  1.
         21   -1    0    0  502  503 -0.00000000000E+00 -0.00000000000E+00 -0.35433453167E+03  0.35433453167E+03  0.00000000000E+00 0. -1.
         -6    2    1    2    0  503  0.26692631127E+03 -0.16852419540E+00 -0.22819443004E+03  0.39139728213E+03  0.17282780593E+03 0.  0.
        -24    2    3    3    0    0  0.22169551826E+03  0.59698699248E+02 -0.16286538926E+03  0.29179867446E+03  0.76866728096E+02 0.  0.
          6    2    1    2  501    0 -0.26692631127E+03  0.16852419540E+00  0.52055534719E+03  0.60963269836E+03  0.17153563295E+03 0.  0.
         24    2    5    5    0    0 -0.73296968294E+02  0.28789972812E+02  0.12289841835E+03  0.16638938725E+03  0.79875521050E+02 0.  0.
          5    1    5    5  501    0 -0.19362934298E+03 -0.28621448617E+02  0.39765692884E+03  0.44324331111E+03  0.47000000000E+01 0. -1.
        -13    1    6    6    0    0 -0.37995102150E+01  0.73328311579E+01  0.83039961516E+02  0.83449636903E+02  0.00000000000E+00 0.  1.
         14    1    6    6    0    0 -0.69497458078E+02  0.21457141654E+02  0.39858456831E+02  0.82939750351E+02  0.00000000000E+00 0. -1.
         -5    1    3    3    0  503  0.45230793014E+02 -0.59867223444E+02 -0.65329040780E+02  0.99598607665E+02  0.47000000000E+01 0.  1.
         11    1    4    4    0    0  0.10529770059E+03 -0.21237211215E+00 -0.10488536581E+03  0.14862230927E+03  0.00000000000E+00 0. -1.
        -12    1    4    4    0    0  0.11639781767E+03  0.59911071360E+02 -0.57980023458E+02  0.14317636520E+03  0.00000000000E+00 0.  1.
</event>
<event>
12    1  0.1615162E-001  0.1973023E+03  0.7818608E-02  0.1152309E+00
         21   -1    0    0  501  502  0.00000000000E+00  0.00000000000E+00  0.69935271484E+03  0.69935271484E+03  0.00000000000E+00 0.  1.
         21   -1    0    0  502  503 -0.00000000000E+00 -0.00000000000E+00 -0.70123066731E+02  0.70123066731E+02  0.00000000000E+00 0. -1.
         -6    2    1    2    0  503 -0.40475085071E+02 -0.88225302485E+02  0.13695749051E+03  0.23913621043E+03  0.17031393490E+03 0.  0.
        -24    2    3    3    0    0 -0.86684039798E+02 -0.68975200365E+02  0.13014085877E+03  0.18839775956E+03  0.79280335910E+02 0.  0.
          6    2    1    2  501    0  0.40475085071E+02  0.88225302485E+02  0.49227215760E+03  0.53033957115E+03  0.17177382532E+03 0.  0.
         24    2    5    5    0    0  0.57416275832E+02  0.28381795850E+02  0.12094997890E+03  0.15381533603E+03  0.70200463945E+02 0.  0.
          5    1    5    5  501    0 -0.16941190761E+02  0.59843506635E+02  0.37132217870E+03  0.37652423511E+03  0.47000000000E+01 0. -1.
        -11    1    6    6    0    0 -0.30851819449E+01  0.72623532954E+01  0.73889724135E+02  0.74309834179E+02  0.00000000000E+00 0.  1.
         12    1    6    6    0    0  0.60501457777E+02  0.21119442555E+02  0.47060254763E+02  0.79505501856E+02  0.00000000000E+00 0. -1.
         -5    1    3    3    0  503  0.46208954727E+02 -0.19250102120E+02  0.68166317384E+01  0.50738450872E+02  0.47000000000E+01 0.  1.
         11    1    4    4    0    0 -0.14629191548E+02  0.87157966495E+01 -0.39628262356E+01  0.17483773859E+02  0.00000000000E+00 0. -1.
        -12    1    4    4    0    0 -0.72054848250E+02 -0.77690997014E+02  0.13410368501E+03  0.17091398570E+03  0.00000000000E+00 0.  1.
</event>
<event>
12    1  0.1615162E-001  0.2201153E+03  0.7818608E-02  0.1134323E+00
         21   -1    0    0  501  502  0.00000000000E+00  0.00000000000E+00  0.59540504637E+03  0.59540504637E+03  0.00000000000E+00 0.  1.
         21   -1    0    0  502  503 -0.00000000000E+00 -0.00000000000E+00 -0.26715239180E+03  0.26715239180E+03  0.00000000000E+00 0. -1.
         -6    2    1    2    0  503 -0.11961482453E+03  0.60031552543E+02 -0.19683179826E+03  0.29320302551E+03  0.17121262750E+03 0.  0.
        -24    2    3    3    0    0 -0.77056637021E+02  0.10510035164E+03 -0.11870077323E+03  0.19335843102E+03  0.79459423989E+02 0.  0.
          6    2    1    2  501    0  0.11961482453E+03 -0.60031552543E+02  0.52508445284E+03  0.56935441266E+03  0.17475488850E+03 0.  0.
         24    2    5    5    0    0  0.54875190222E+01 -0.68963649609E+02  0.26278972521E+03  0.28312821127E+03  0.79479849708E+02 0.  0.
          5    1    5    5  501    0  0.11412730550E+03  0.89320970656E+01  0.26229472762E+03  0.28622620138E+03  0.47000000000E+01 0. -1.
        -13    1    6    6    0    0 -0.13021468607E+02 -0.48659338480E+02  0.24561572022E+03  0.25072768472E+03  0.00000000000E+00 0.  1.
         14    1    6    6    0    0  0.18508987629E+02 -0.20304311129E+02  0.17174004992E+02  0.32400526553E+02  0.00000000000E+00 0. -1.
         -5    1    3    3    0  503 -0.42558187506E+02 -0.45068799094E+02 -0.78131025035E+02  0.99844594488E+02  0.47000000000E+01 0.  1.
         11    1    4    4    0    0 -0.71501019403E+02  0.53934143722E+02 -0.37227264295E+02  0.96990498719E+02  0.00000000000E+00 0. -1.
        -12    1    4    4    0    0 -0.55556176176E+01  0.51166207915E+02 -0.81473508930E+02  0.96367932306E+02  0.00000000000E+00 0.  1.
</event>
<event>
12    1  0.1615162E-001  0.2848177E+03  0.7818608E-02  0.1093164E+00
         21   -1    0    0  503  502  0.00000000000E+00  0.00000000000E+00  0.20566975640E+04  0.20566975640E+04  0.00000000000E+00 0. -1.
         21   -1    0    0  501  503 -0.00000000000E+00 -0.00000000000E+00 -0.55234769991E+02  0.55234769991E+02  0.00000000000E+00 0.  1.
          6    2    1    2  501    0 -0.22568617719E+03 -0.21885938489E+02  0.43539281719E+03  0.52027687589E+03  0.17235973269E+03 0.  0.
         24    2    3    3    0    0 -0.16305756425E+03 -0.58195099272E+02  0.20881708631E+03  0.28237069661E+03  0.78448683443E+02 0.  0.
         -6    2    1    2    0  502  0.22568617719E+03  0.21885938489E+02  0.15660699768E+04  0.15916554581E+04  0.17140210065E+03 0.  0.
        -24    2    5    5    0    0  0.95644434993E+02 -0.20688431500E+02  0.10588147437E+04  0.10662476230E+04  0.78863571082E+02 0.  0.
          5    1    3    3  501    0 -0.62628612942E+02  0.36309160783E+02  0.22657573088E+03  0.23790617928E+03  0.47000000000E+01 0. -1.
        -13    1    4    4    0    0 -0.11636292580E+03 -0.43279857214E+01  0.10743744384E+03  0.15843568506E+03  0.00000000000E+00 0.  1.
         14    1    4    4    0    0 -0.46694638448E+02 -0.53867113550E+02  0.10137964247E+03  0.12393501155E+03  0.00000000000E+00 0. -1.
         -5    1    5    5    0  502  0.13004174220E+03  0.42574369989E+02  0.50725523304E+03  0.52540783505E+03  0.47000000000E+01 0.  1.
         13    1    6    6    0    0  0.33036484470E+02  0.11276561205E+02  0.12476653438E+03  0.12955793391E+03  0.00000000000E+00 0. -1.
        -14    1    6    6    0    0  0.62607950522E+02 -0.31964992705E+02  0.93404820937E+03  0.93668968909E+03  0.00000000000E+00 0.  1.
</event>
<event>
12    1  0.1615162E-001  0.1905011E+03  0.7818608E-02  0.1158702E+00
         21   -1    0    0  501  502  0.00000000000E+00  0.00000000000E+00  0.20371301496E+03  0.20371301496E+03  0.00000000000E+00 0.  1.
         21   -1    0    0  502  503 -0.00000000000E+00 -0.00000000000E+00 -0.25732016249E+03  0.25732016249E+03  0.00000000000E+00 0.  1.
         -6    2    1    2    0  503 -0.59009967429E+02  0.49811195515E+02 -0.15679459477E+03  0.24438067417E+03  0.17080409101E+03 0.  0.
        -24    2    3    3    0    0  0.24139450708E+02  0.12974800214E+02 -0.32078403222E+02  0.89956051170E+02  0.79448150814E+02 0.  0.
          6    2    1    2  501    0  0.59009967429E+02 -0.49811195515E+02  0.10318744725E+03  0.21665250328E+03  0.17414742735E+03 0.  0.
         24    2    5    5    0    0  0.10900917650E+02  0.34205149299E+02  0.73598120415E+02  0.11530732515E+03  0.81180500500E+02 0.  0.
          5    1    5    5  501    0  0.48109049778E+02 -0.84016344814E+02  0.29589326831E+02  0.10134517812E+03  0.47000000000E+01 0. -1.
        -11    1    6    6    0    0 -0.34937742733E+02  0.76761519581E+01  0.31175071736E+02  0.47449491819E+02  0.00000000000E+00 0.  1.
         12    1    6    6    0    0  0.45838660384E+02  0.26528997341E+02  0.42423048679E+02  0.67857833335E+02  0.00000000000E+00 0. -1.
         -5    1    3    3    0  503 -0.83149418136E+02  0.36836395301E+02 -0.12471619155E+03  0.15442462300E+03  0.47000000000E+01 0.  1.
         13    1    4    4    0    0  0.22680121878E+02 -0.30600504751E+02 -0.25563306105E+02  0.45872229491E+02  0.00000000000E+00 0. -1.
        -14    1    4    4    0    0  0.14593288294E+01  0.43575304965E+02 -0.65150971168E+01  0.44083821679E+02  0.00000000000E+00 0.  1.
</event>
<event>
12    1  0.1615162E-001  0.1776893E+03  0.7818608E-02  0.1170422E+00
         21   -1    0    0  501  502  0.00000000000E+00  0.00000000000E+00  0.88532328496E+02  0.88532328496E+02  0.00000000000E+00 0. -1.
         21   -1    0    0  502  503 -0.00000000000E+00 -0.00000000000E+00 -0.35641942956E+03  0.35641942956E+03  0.00000000000E+00 0. -1.
         -6    2    1    2    0  503 -0.50557955357E+02  0.99578662479E-01 -0.11388932290E+03  0.20981602477E+03  0.16880719657E+03 0.  0.
        -24    2    3    3    0    0 -0.30028860349E+02 -0.41091101286E+02 -0.13274932205E+03  0.15985698731E+03  0.73086680239E+02 0.  0.
          6    2    1    2  501    0  0.50557955357E+02 -0.99578662479E-01 -0.15399777816E+03  0.23513573328E+03  0.17034488728E+03 0.  0.
         24    2    5    5    0    0 -0.22646811311E+02  0.29248978990E+02 -0.12051385565E+03  0.14932466893E+03  0.80036782247E+02 0.  0.
          5    1    5    5  501    0  0.73204766668E+02 -0.29348557652E+02 -0.33483922504E+02  0.85811064353E+02  0.47000000000E+01 0. -1.
        -13    1    6    6    0    0 -0.13074805112E+01 -0.49118876085E+01 -0.10658491130E+03  0.10670604229E+03  0.00000000000E+00 0.  1.
         14    1    6    6    0    0 -0.21339330800E+02  0.34160866598E+02 -0.13928944354E+02  0.42618626638E+02  0.00000000000E+00 0. -1.
         -5    1    3    3    0  503 -0.20529095008E+02  0.41190679949E+02  0.18859999142E+02  0.49959037462E+02  0.47000000000E+01 0.  1.
         13    1    4    4    0    0 -0.32017129944E+02 -0.24920196439E+02 -0.13711320432E+03  0.14299001224E+03  0.00000000000E+00 0. -1.
        -14    1    4    4    0    0  0.19882695952E+01 -0.16170904847E+02  0.43638822732E+01  0.16866975071E+02  0.00000000000E+00 0.  1.
</event>
<event>
12    1  0.1615162E-001  0.1907677E+03  0.7818608E-02  0.1157842E+00
         21   -1    0    0  503  502  0.00000000000E+00  0.00000000000E+00  0.16688517294E+03  0.16688517294E+03  0.00000000000E+00 0. -1.
         21   -1    0    0  501  503 -0.00000000000E+00 -0.00000000000E+00 -0.53000975499E+03  0.53000975499E+03  0.00000000000E+00 0. -1.
          6    2    1    2  501    0  0.72423686469E+02 -0.33674727963E+02 -0.44910076819E+03  0.48793831477E+03  0.17324295473E+03 0.  0.
         24    2    3    3    0    0 -0.21483999678E+02 -0.21600536801E+02 -0.12429338807E+03  0.14957997840E+03  0.77441450063E+02 0.  0.
         -6    2    1    2    0  502 -0.72423686469E+02  0.33674727963E+02  0.85976186142E+02  0.20895661317E+03  0.17289240567E+03 0.  0.
        -24    2    5    5    0    0 -0.44030435197E+02  0.89578936348E+02  0.61047441589E+02  0.14131794421E+03  0.79252168239E+02 0.  0.
          5    1    3    3  501    0  0.93907686147E+02 -0.12074191162E+02 -0.32480738012E+03  0.33835833637E+03  0.47000000000E+01 0. -1.
        -11    1    4    4    0    0 -0.15425027840E+02 -0.33561718772E+02 -0.12989805118E+03  0.13504748850E+03  0.00000000000E+00 0.  1.
         12    1    4    4    0    0 -0.60589718381E+01  0.11961181971E+02  0.56046631135E+01  0.14532489893E+02  0.00000000000E+00 0. -1.
         -5    1    5    5    0  502 -0.28393251272E+02 -0.55904208385E+02  0.24928744553E+02  0.67638668955E+02  0.47000000000E+01 0.  1.
         11    1    6    6    0    0 -0.61895542897E+02  0.58583109396E+02  0.62225598705E+02  0.10552281304E+03  0.00000000000E+00 0. -1.
        -12    1    6    6    0    0  0.17865107701E+02  0.30995826952E+02 -0.11781571158E+01  0.35795131174E+02  0.00000000000E+00 0.  1.
</event>
<event>
12    1  0.1615162E-001  0.1870487E+03  0.7818608E-02  0.1161396E+00
         21   -1    0    0  501  502  0.00000000000E+00  0.00000000000E+00  0.61879020729E+02  0.61879020729E+02  0.00000000000E+00 0.  1.
         21   -1    0    0  502  503 -0.00000000000E+00 -0.00000000000E+00 -0.98947029027E+03  0.98947029027E+03  0.00000000000E+00 0.  1.
         -6    2    1    2    0  503  0.36880814331E+01  0.71596757582E+02 -0.80847695949E+03  0.82959396038E+03  0.17161424021E+03 0.  0.
        -24    2    3    3    0    0 -0.30665524854E+02 -0.18517903984E+02 -0.45080550669E+03  0.45911888613E+03  0.79254397735E+02 0.  0.
          6    2    1    2  501    0 -0.36880814331E+01 -0.71596757582E+02 -0.11911431006E+03  0.22175535062E+03  0.17276434536E+03 0.  0.
         24    2    5    5    0    0 -0.56599660577E+02 -0.75318525176E+02 -0.11341168232E+03  0.16820073621E+03  0.80949837318E+02 0.  0.
          5    1    5    5  501    0  0.52911579144E+02  0.37217675944E+01 -0.57026277374E+01  0.53554614411E+02  0.47000000000E+01 0. -1.
        -13    1    6    6    0    0 -0.23629398629E+02 -0.23202855045E+02  0.61394110623E+01  0.33681052982E+02  0.00000000000E+00 0.  1.
         14    1    6    6    0    0 -0.32970261948E+02 -0.52115670132E+02 -0.11955109338E+03  0.13451968322E+03  0.00000000000E+00 0. -1.
         -5    1    3    3    0  503  0.34353606287E+02  0.90114661566E+02 -0.35767145280E+03  0.37047507425E+03  0.47000000000E+01 0.  1.
         13    1    4    4    0    0 -0.11591321161E+02  0.15052618204E+02 -0.24185130875E+02  0.30754846716E+02  0.00000000000E+00 0. -1.
        -14    1    4    4    0    0 -0.19074203693E+02 -0.33570522187E+02 -0.42662037581E+03  0.42836403941E+03  0.00000000000E+00 0.  1.
</event>
<event>
12    1  0.1615162E-001  0.1809299E+03  0.7818608E-02  0.1168112E+00
         21   -1    0    0  503  502  0.00000000000E+00  0.00000000000E+00  0.18316761520E+03  0.18316761520E+03  0.00000000000E+00 0. -1.
         21   -1    0    0  501  503 -0.00000000000E+00 -0.00000000000E+00 -0.23539458324E+03  0.23539458324E+03  0.00000000000E+00 0. -1.
          6    2    1    2  501    0  0.23701885311E+02 -0.24801499266E+02  0.81141058250E+02  0.19378971484E+03  0.17260848331E+03 0.  0.
         24    2    3    3    0    0  0.14157979496E+01  0.74159270477E+01  0.11574992661E+03  0.14130642209E+03  0.80699807662E+02 0.  0.
         -6    2    1    2    0  502 -0.23701885311E+02  0.24801499266E+02 -0.13336802629E+03  0.22477248359E+03  0.17764781229E+03 0.  0.
        -24    2    5    5    0    0  0.14291990621E+02 -0.41552704144E+02 -0.30161763081E+02  0.96242184894E+02  0.80136995099E+02 0.  0.
          5    1    3    3  501    0  0.22286087361E+02 -0.32217426314E+02 -0.34608868361E+02  0.52483292746E+02  0.47000000000E+01 0. -1.
        -13    1    4    4    0    0 -0.23399688735E+02 -0.18561055068E+02  0.95512300782E+02  0.10007326216E+03  0.00000000000E+00 0.  1.
         14    1    4    4    0    0  0.24815486684E+02  0.25976982115E+02  0.20237625829E+02  0.41233159937E+02  0.00000000000E+00 0. -1.
         -5    1    5    5    0  502 -0.37993875931E+02  0.66354203410E+02 -0.10320626321E+03  0.12853029870E+03  0.47000000000E+01 0.  1.
         11    1    6    6    0    0  0.14612256175E+02  0.26026482233E+01  0.22851136711E+02  0.27248234021E+02  0.00000000000E+00 0. -1.
        -12    1    6    6    0    0 -0.32026555399E+00 -0.44155352367E+02 -0.53012899792E+02  0.68993950873E+02  0.00000000000E+00 0.  1.
</event>
<event>
12    1  0.1615162E-001  0.3019177E+03  0.7818608E-02  0.1084955E+00
         21   -1    0    0  503  502  0.00000000000E+00  0.00000000000E+00  0.33713117275E+03  0.33713117275E+03  0.00000000000E+00 0.  1.
         21   -1    0    0  501  503 -0.00000000000E+00 -0.00000000000E+00 -0.33246671713E+03  0.33246671713E+03  0.00000000000E+00 0. -1.
          6    2    1    2  501    0 -0.73271466006E+02 -0.22881095642E+03 -0.14777513039E+03  0.33614249951E+03  0.18284181499E+03 0.  0.
         24    2    3    3    0    0 -0.11635614013E+03 -0.20753676493E+03 -0.14434560436E+03  0.28774072251E+03  0.73135557324E+02 0.  0.
         -6    2    1    2    0  502  0.73271466006E+02  0.22881095642E+03  0.15243958601E+03  0.33345539037E+03  0.17387210379E+03 0.  0.
        -24    2    5    5    0    0  0.92392663573E+02  0.21141279218E+03  0.17401706176E+03  0.29945548191E+03  0.78484870434E+02 0.  0.
          5    1    3    3  501    0  0.43084674129E+02 -0.21274191491E+02 -0.34295260212E+01  0.48401777004E+02  0.47000000000E+01 0. -1.
        -13    1    4    4    0    0 -0.40260979926E+02 -0.48429767850E+02 -0.53895847046E+01  0.63209465604E+02  0.00000000000E+00 0.  1.
         14    1    4    4    0    0 -0.76095160208E+02 -0.15910699708E+03 -0.13895601966E+03  0.22453125690E+03  0.00000000000E+00 0. -1.
         -5    1    5    5    0  502 -0.19121197567E+02  0.17398164244E+02 -0.21577475747E+02  0.33999908457E+02  0.47000000000E+01 0.  1.
         13    1    6    6    0    0 -0.46592276431E+01  0.76937934497E+02  0.44229491439E+02  0.88867328528E+02  0.00000000000E+00 0. -1.
        -14    1    6    6    0    0  0.97051891216E+02  0.13447485768E+03  0.12978757032E+03  0.21058815339E+03  0.00000000000E+00 0.  1.
</event>
<event>
12    1  0.1615162E-001  0.1864608E+03  0.7818608E-02  0.1162267E+00
         21   -1    0    0  503  502  0.00000000000E+00  0.00000000000E+00  0.55943710718E+02  0.55943710718E+02  0.00000000000E+00 0.  1.
         21   -1    0    0  501  503 -0.00000000000E+00 -0.00000000000E+00 -0.63519887652E+03  0.63519887652E+03  0.00000000000E+00 0. -1.
          6    2    1    2  501    0 -0.28201721732E+02 -0.53814960893E+02 -0.35195273561E+03  0.39714591846E+03  0.17367430818E+03 0.  0.
         24    2    3    3    0    0  0.28002832563E+02  0.12036876035E+02 -0.86817718559E+02  0.11819415988E+03  0.74185565691E+02 0.  0.
         -6    2    1    2    0  502  0.28201721732E+02  0.53814960893E+02 -0.22730243019E+03  0.29399666877E+03  0.17628459761E+03 0.  0.
        -24    2    5    5    0    0 -0.19575830744E+01 -0.34596124345E+00 -0.27576764917E+02  0.84818705019E+02  0.80185927301E+02 0.  0.
          5    1    3    3  501    0 -0.56204554295E+02 -0.65851836929E+02 -0.26513501705E+03  0.27895175859E+03  0.47000000000E+01 0. -1.
        -13    1    4    4    0    0  0.19784399345E+02  0.43052744270E+02 -0.59451524383E+02  0.76022661082E+02  0.00000000000E+00 0.  1.
         14    1    4    4    0    0  0.82184332180E+01 -0.31015868234E+02 -0.27366194176E+02  0.42171498795E+02  0.00000000000E+00 0. -1.
         -5    1    5    5    0  502  0.30159304806E+02  0.54160922137E+02 -0.19972566527E+03  0.20917796375E+03  0.47000000000E+01 0.  1.
         13    1    6    6    0    0  0.17135973983E+01  0.17740532435E+02 -0.51561725807E+02  0.54555242419E+02  0.00000000000E+00 0. -1.
        -14    1    6    6    0    0 -0.36711804728E+01 -0.18086493678E+02  0.23984960890E+02  0.30263462600E+02  0.00000000000E+00 0.  1.
</event>
<event>
12    1  0.1615162E-001  0.2469612E+03  0.7818608E-02  0.1115299E+00
         21   -1    0    0  501  502  0.00000000000E+00  0.00000000000E+00  0.25504511275E+03  0.25504511275E+03  0.00000000000E+00 0. -1.
         21   -1    0    0  502  503 -0.00000000000E+00 -0.00000000000E+00 -0.26764328801E+03  0.26764328801E+03  0.00000000000E+00 0.  1.
         -6    2    1    2    0  503 -0.17351565703E+03 -0.32050204198E+02 -0.92127190708E+02  0.26358540188E+03  0.17278583853E+03 0.  0.
        -24    2    3    3    0    0 -0.67513958645E+02  0.45037265172E+02 -0.14894400880E+02  0.11138214364E+03  0.74817437000E+02 0.  0.
          6    2    1    2  501    0  0.17351565703E+03  0.32050204198E+02  0.79529015449E+02  0.25910299888E+03  0.17226317340E+03 0.  0.
         24    2    5    5    0    0  0.60441861611E+02 -0.37742840557E+01 -0.25976064209E+02  0.10028710232E+03  0.75599491559E+02 0.  0.
          5    1    5    5  501    0  0.11307379542E+03  0.35824488254E+02  0.10550507966E+03  0.15881589657E+03  0.47000000000E+01 0. -1.
        -11    1    6    6    0    0  0.72504207137E+02  0.12459336787E+02 -0.94542393795E+01  0.74171947311E+02  0.00000000000E+00 0.  1.
         12    1    6    6    0    0 -0.12062345526E+02 -0.16233620842E+02 -0.16521824830E+02  0.26115155005E+02  0.00000000000E+00 0. -1.
         -5    1    3    3    0  503 -0.10600169838E+03 -0.77087469371E+02 -0.77232789827E+02  0.15220325824E+03  0.47000000000E+01 0.  1.
         11    1    4    4    0    0 -0.14054550691E+01  0.40476898002E+02 -0.19511008258E+02  0.44955911948E+02  0.00000000000E+00 0. -1.
        -12    1    4    4    0    0 -0.66108503576E+02  0.45603671703E+01  0.46166073783E+01  0.66426231697E+02  0.00000000000E+00 0.  1.
</event>
<event>
12    1  0.1615162E-001  0.2268787E+03  0.7818608E-02  0.1129628E+00
         21   -1    0    0  501  502  0.00000000000E+00  0.00000000000E+00  0.36898391267E+03  0.36898391267E+03  0.00000000000E+00 0. -1.
         21   -1    0    0  502  503 -0.00000000000E+00 -0.00000000000E+00 -0.16423588425E+03  0.16423588425E+03  0.00000000000E+00 0.  1.
         -6    2    1    2    0  503  0.10832691624E+03  0.10112672412E+03 -0.72192096947E+01  0.22272978320E+03  0.16611774204E+03 0.  0.
        -24    2    3    3    0    0  0.63053614422E+02  0.10575032910E+03 -0.55187780014E+02  0.15644159934E+03  0.79179495736E+02 0.  0.
          6    2    1    2  501    0 -0.10832691624E+03 -0.10112672412E+03  0.21196723812E+03  0.31049001372E+03  0.17179232658E+03 0.  0.
         24    2    5    5    0    0 -0.10676809539E+03 -0.72449361488E+02  0.23083397967E+03  0.27580766970E+03  0.78340336479E+02 0.  0.
          5    1    5    5  501    0 -0.15588208536E+01 -0.28677362630E+02 -0.18866741556E+02  0.34682344021E+02  0.47000000000E+01 0. -1.
        -13    1    6    6    0    0 -0.90791242333E+01 -0.29935578134E+02  0.14119077774E+02  0.34320805531E+02  0.00000000000E+00 0.  1.
         14    1    6    6    0    0 -0.97688971156E+02 -0.42513783354E+02  0.21671490190E+03  0.24148686417E+03  0.00000000000E+00 0. -1.
         -5    1    3    3    0  503  0.45273301821E+02 -0.46236049814E+01  0.47968570319E+02  0.66288183859E+02  0.47000000000E+01 0.  1.
         13    1    4    4    0    0  0.19579766871E+01 -0.15786689566E+01 -0.30368664567E+02  0.30472637824E+02  0.00000000000E+00 0. -1.
        -14    1    4    4    0    0  0.61095637735E+02  0.10732899806E+03 -0.24819115447E+02  0.12596896152E+03  0.00000000000E+00 0.  1.
</event>
<event>
12    1  0.1615162E-001  0.1761604E+03  0.7818608E-02  0.1171879E+00
         21   -1    0    0  503  502  0.00000000000E+00  0.00000000000E+00  0.70714149907E+02  0.70714149907E+02  0.00000000000E+00 0.  1.
         21   -1    0    0  501  503 -0.00000000000E+00 -0.00000000000E+00 -0.43590869390E+03  0.43590869390E+03  0.00000000000E+00 0.  1.
          6    2    1    2  501    0 -0.20487856244E+02 -0.28059246391E+02 -0.17759717184E+03  0.24928013884E+03  0.17144316438E+03 0.  0.
         24    2    3    3    0    0 -0.38825946744E+02 -0.79689059698E+02 -0.11218260843E+03  0.16382208895E+03  0.79968361341E+02 0.  0.
         -6    2    1    2    0  502  0.20487856244E+02  0.28059246391E+02 -0.18759737215E+03  0.25734270497E+03  0.17270037696E+03 0.  0.
        -24    2    5    5    0    0  0.47410485708E+02  0.29904060962E+02 -0.37582187992E+02  0.10484720734E+03  0.80240320391E+02 0.  0.
          5    1    3    3  501    0  0.18338090500E+02  0.51629813307E+02 -0.65414563409E+02  0.85458049892E+02  0.47000000000E+01 0. -1.
        -11    1    4    4    0    0 -0.22976765393E+02 -0.51200217547E+02 -0.11803811959E+03  0.13069962395E+03  0.00000000000E+00 0.  1.
         12    1    4    4    0    0 -0.15849181351E+02 -0.28488842151E+02  0.58555111541E+01  0.33122464997E+02  0.00000000000E+00 0. -1.
         -5    1    5    5    0  502 -0.26922629463E+02 -0.18448145703E+01 -0.15001518416E+03  0.15249549763E+03  0.47000000000E+01 0.  1.
         11    1    6    6    0    0  0.10445242541E+01 -0.23566122781E+02  0.21443053670E+01  0.23686519781E+02  0.00000000000E+00 0. -1.
        -12    1    6    6    0    0  0.46365961453E+02  0.53470183743E+02 -0.39726493359E+02  0.81160687563E+02  0.00000000000E+00 0.  1.
</event>
<event>
12    1  0.1615162E-001  0.2023438E+03  0.7818608E-02  0.1147938E+00
         21   -1    0    0  503  502  0.00000000000E+00  0.00000000000E+00  0.66574403082E+03  0.66574403082E+03  0.00000000000E+00 0. -1.
         21   -1    0    0  501  503 -0.00000000000E+00 -0.00000000000E+00 -0.61279147574E+02  0.61279147574E+02  0.00000000000E+00 0. -1.
          6    2    1    2  501    0 -0.10156987428E+03 -0.30323146196E+02  0.30842727134E+03  0.36887723485E+03  0.17235747774E+03 0.  0.
         24    2    3    3    0    0  0.40068845081E+01 -0.49335159407E+02  0.99988978508E+02  0.13440651054E+03  0.74948656925E+02 0.  0.
         -6    2    1    2    0  502  0.10156987428E+03  0.30323146196E+02  0.29603761191E+03  0.35814594354E+03  0.17144770822E+03 0.  0.
        -24    2    5    5    0    0  0.11995018067E+03  0.50211570753E+02  0.16862228668E+03  0.22779971153E+03  0.80931979662E+02 0.  0.
          5    1    3    3  501    0 -0.10557675879E+03  0.19012013211E+02  0.20843829283E+03  0.23447072432E+03  0.47000000000E+01 0. -1.
        -11    1    4    4    0    0 -0.24952541697E+02 -0.10982921184E+02  0.75903396118E+02  0.80650972945E+02  0.00000000000E+00 0.  1.
         12    1    4    4    0    0  0.28959426205E+02 -0.38352238223E+02  0.24085582391E+02  0.53755537593E+02  0.00000000000E+00 0. -1.
         -5    1    5    5    0  502 -0.18380306382E+02 -0.19888424557E+02  0.12741532523E+03  0.13034623201E+03  0.47000000000E+01 0.  1.
         11    1    6    6    0    0  0.28787376921E+02 -0.22340523296E+02  0.35149502577E+02  0.50629038926E+02  0.00000000000E+00 0. -1.
        -12    1    6    6    0    0  0.91162803744E+02  0.72552094049E+02  0.13347278410E+03  0.17717067261E+03  0.00000000000E+00 0.  1.
</event>
<event>
12    1  0.1615162E-001  0.2887498E+03  0.7818608E-02  0.1091076E+00
         21   -1    0    0  501  502  0.00000000000E+00  0.00000000000E+00  0.17538428421E+04  0.17538428421E+04  0.00000000000E+00 0. -1.
         21   -1    0    0  502  503 -0.00000000000E+00 -0.00000000000E+00 -0.10144178356E+03  0.10144178356E+03  0.00000000000E+00 0.  1.
         -6    2    1    2    0  503  0.12800961119E+02 -0.22927833420E+03  0.14979930940E+03  0.32529409985E+03  0.17505427490E+03 0.  0.
        -24    2    3    3    0    0  0.21954426070E+02 -0.84846428349E+02  0.13467474990E+03  0.17970837373E+03  0.80479178059E+02 0.  0.
          6    2    1    2  501    0 -0.12800961119E+02  0.22927833420E+03  0.15026017491E+04  0.15299905258E+04  0.17414526532E+03 0.  0.
         24    2    5    5    0    0 -0.14187007873E+02  0.27839945928E+02  0.39842557301E+03  0.40757952118E+03  0.80011218439E+02 0.  0.
          5    1    5    5  501    0  0.13860467543E+01  0.20143838828E+03  0.11041761761E+04  0.11224110046E+04  0.47000000000E+01 0. -1.
        -11    1    6    6    0    0 -0.20720533428E+02  0.20187038975E+01  0.36123811954E+03  0.36183752525E+03  0.00000000000E+00 0.  1.
         12    1    6    6    0    0  0.65335255545E+01  0.25821242030E+02  0.37187453474E+02  0.45741995934E+02  0.00000000000E+00 0. -1.
         -5    1    3    3    0  503 -0.91534649510E+01 -0.14443190586E+03  0.15124559501E+02  0.14558572612E+03  0.47000000000E+01 0.  1.
         13    1    4    4    0    0  0.25425733821E+02 -0.80210646491E+02  0.14512868877E+03  0.16775742027E+03  0.00000000000E+00 0. -1.
        -14    1    4    4    0    0 -0.34713077507E+01 -0.46357818577E+01 -0.10453938867E+02  0.11950953467E+02  0.00000000000E+00 0.  1.
</event>
<event>
12    1  0.1615162E-001  0.2318260E+03  0.7818608E-02  0.1125508E+00
         21   -1    0    0  503  502  0.00000000000E+00  0.00000000000E+00  0.12679140839E+03  0.12679140839E+03  0.00000000000E+00 0. -1.
         21   -1    0    0  501  503 -0.00000000000E+00 -0.00000000000E+00 -0.48212376432E+03  0.48212376432E+03  0.00000000000E+00 0. -1.
          6    2    1    2  501    0  0.15260897229E+03 -0.29852754789E+02 -0.28460236953E+03  0.36653935634E+03  0.17079785012E+03 0.  0.
         24    2    3    3    0    0  0.14811182447E+03 -0.16825788489E+01 -0.15715029843E+03  0.23584925121E+03  0.94808804323E+02 0.  0.
         -6    2    1    2    0  502 -0.15260897229E+03  0.29852754789E+02 -0.70729986398E+02  0.24237581637E+03  0.17193783758E+03 0.  0.
        -24    2    5    5    0    0 -0.53477277486E+02 -0.41751619834E+02 -0.59519863900E+02  0.11948547409E+03  0.78301643361E+02 0.  0.
          5    1    3    3  501    0  0.44971478205E+01 -0.28170175940E+02 -0.12745207110E+03  0.13069010513E+03  0.47000000000E+01 0. -1.
        -13    1    4    4    0    0  0.63521762039E+02 -0.69646845431E+01 -0.13326348343E+03  0.14779268283E+03  0.00000000000E+00 0.  1.
         14    1    4    4    0    0  0.84590062434E+02  0.52821056942E+01 -0.23886815007E+02  0.88056568377E+02  0.00000000000E+00 0. -1.
         -5    1    5    5    0  502 -0.99131694808E+02  0.71604374623E+02 -0.11210122498E+02  0.12289034229E+03  0.47000000000E+01 0.  1.
         11    1    6    6    0    0 -0.68223518752E+02 -0.15934754424E+02 -0.26122226717E+02  0.74771221991E+02  0.00000000000E+00 0. -1.
        -12    1    6    6    0    0  0.14746241266E+02 -0.25816865410E+02 -0.33397637183E+02  0.44714252096E+02  0.00000000000E+00 0.  1.
</event>
<event>
12    1  0.1615162E-001  0.1842675E+03  0.7818608E-02  0.1164127E+00
         21   -1    0    0  503  502  0.00000000000E+00  0.00000000000E+00  0.22443433819E+02  0.22443433819E+02  0.00000000000E+00 0. -1.
         21   -1    0    0  501  503 -0.00000000000E+00 -0.00000000000E+00 -0.17377706253E+04  0.17377706253E+04  0.00000000000E+00 0.  1.
          6    2    1    2  501    0  0.41514018459E+02  0.45650079992E+02 -0.53498822669E+03  0.56583292677E+03  0.17362936041E+03 0.  0.
         24    2    3    3    0    0  0.90925034318E+02  0.54040037798E+02 -0.38545913999E+03  0.40805815804E+03  0.82128096236E+02 0.  0.
         -6    2    1    2    0  502 -0.41514018459E+02 -0.45650079992E+02 -0.11803389648E+04  0.11943811324E+04  0.17186876958E+03 0.  0.
        -24    2    5    5    0    0  0.14409097390E+02 -0.32580761723E+02 -0.39043884747E+03  0.40238208733E+03  0.90552318926E+02 0.  0.
          5    1    3    3  501    0 -0.49411015858E+02 -0.83899578062E+01 -0.14952908669E+03  0.15777476873E+03  0.47000000000E+01 0. -1.
        -11    1    4    4    0    0  0.50999835838E+02  0.18714449583E+02 -0.31528701851E+03  0.31993298973E+03  0.00000000000E+00 0.  1.
         12    1    4    4    0    0  0.39925198480E+02  0.35325588216E+02 -0.70172121484E+02  0.88125168312E+02  0.00000000000E+00 0. -1.
         -5    1    5    5    0  502 -0.55923115849E+02 -0.13069318269E+02 -0.78990011733E+03  0.79199904503E+03  0.47000000000E+01 0.  1.
         11    1    6    6    0    0  0.33097902464E+02  0.19628319991E+02 -0.21406711824E+03  0.21749821425E+03  0.00000000000E+00 0. -1.
        -12    1    6    6    0    0 -0.18688805075E+02 -0.52209081714E+02 -0.17637172923E+03  0.18488387307E+03  0.00000000000E+00 0.  1.
</event>
<event>
12    1  0.1615162E-001  0.2164678E+03  0.7818608E-02  0.1136726E+00
         21   -1    0    0  501  502  0.00000000000E+00  0.00000000000E+00  0.35476707523E+02  0.35476707523E+02  0.00000000000E+00 0.  1.
         21   -1    0    0  502  503 -0.00000000000E+00 -0.00000000000E+00 -0.13827346382E+04  0.13827346382E+04  0.00000000000E+00 0. -1.
         -6    2    1    2    0  503 -0.87254487880E+02 -0.99208405175E+02 -0.51527678082E+03  0.55853062726E+03  0.17026640134E+03 0.  0.
        -24    2    3    3    0    0 -0.29841668499E+02 -0.33659214077E+02 -0.41731676089E+03  0.42733922591E+03  0.80262489458E+02 0.  0.
          6    2    1    2  501    0  0.87254487880E+02  0.99208405175E+02 -0.83198114982E+03  0.85968071843E+03  0.17147201131E+03 0.  0.
         24    2    5    5    0    0  0.11288714537E+03  0.63046364403E+02 -0.40015563582E+03  0.42556081464E+03  0.65261952321E+02 0.  0.
          5    1    5    5  501    0 -0.25632657494E+02  0.36162040773E+02 -0.43182551400E+03  0.43411990379E+03  0.47000000000E+01 0. -1.
        -13    1    6    6    0    0  0.28858372832E+02 -0.28829007511E+01 -0.16167143767E+03  0.16425215541E+03  0.00000000000E+00 0.  1.
         14    1    6    6    0    0  0.84028772541E+02  0.65929265154E+02 -0.23848419815E+03  0.26130865923E+03  0.00000000000E+00 0. -1.
         -5    1    3    3    0  503 -0.57412819381E+02 -0.65549191098E+02 -0.97960019928E+02  0.13119140135E+03  0.47000000000E+01 0.  1.
         11    1    4    4    0    0  0.19341720373E+02 -0.53599323616E+01 -0.24709366579E+03  0.24790746397E+03  0.00000000000E+00 0. -1.
        -12    1    4    4    0    0 -0.49183388872E+02 -0.28299281716E+02 -0.17022309510E+03  0.17943176194E+03  0.00000000000E+00 0.  1.
</event>
<event>
12    1  0.1615162E-001  0.2114151E+03  0.7818608E-02  0.1140776E+00
         21   -1    0    0  501  502  0.00000000000E+00  0.00000000000E+00  0.85624658348E+03  0.85624658348E+03  0.00000000000E+00 0.  1.
         21   -1    0    0  502  503 -0.00000000000E+00 -0.00000000000E+00 -0.55018638455E+02  0.55018638455E+02  0.00000000000E+00 0.  1.
         -6    2    1    2    0  503  0.52815387263E+02 -0.11072786353E+03  0.51241412438E+03  0.55431452427E+03  0.17218081212E+03 0.  0.
        -24    2    3    3    0    0  0.21404403959E+02 -0.19942576048E+02  0.38916578473E+03  0.39797879093E+03  0.77982402971E+02 0.  0.
          6    2    1    2  501    0 -0.52815387263E+02  0.11072786353E+03  0.28881382064E+03  0.35695069766E+03  0.17014773778E+03 0.  0.
         24    2    5    5    0    0 -0.11657832561E+02 -0.18136262169E+01  0.69094081220E+02  0.10663412786E+03  0.80359510110E+02 0.  0.
          5    1    5    5  501    0 -0.41157554702E+02  0.11254148975E+03  0.21971973943E+03  0.25031656980E+03  0.47000000000E+01 0. -1.
        -13    1    6    6    0    0 -0.37937693317E+02  0.19439676078E+02  0.20141146888E+02  0.47146955131E+02  0.00000000000E+00 0.  1.
         14    1    6    6    0    0  0.26279860756E+02 -0.21253302295E+02  0.48952934332E+02  0.59487172731E+02  0.00000000000E+00 0. -1.
         -5    1    3    3    0  503  0.31410983304E+02 -0.90785287481E+02  0.12324833965E+03  0.15633573335E+03  0.47000000000E+01 0.  1.
         11    1    4    4    0    0 -0.14230892969E+02  0.20900135483E+02  0.74376352873E+02  0.78556831940E+02  0.00000000000E+00 0. -1.
        -12    1    4    4    0    0  0.35635296928E+02 -0.40842711530E+02  0.31478943186E+03  0.31942195899E+03  0.00000000000E+00 0.  1.
</event>
<event>
12    1  0.1615162E-001  0.1992354E+03  0.7818608E-02  0.1150687E+00
         21   -1    0    0  503  502  0.00000000000E+00  0.00000000000E+00  0.57580186241E+03  0.57580186241E+03  0.00000000000E+00 0.  1.
         21   -1    0    0  501  503 -0.00000000000E+00 -0.00000000000E+00 -0.10380725573E+03  0.10380725573E+03  0.00000000000E+00 0. -1.
          6    2    1    2  501    0 -0.54007109261E+02  0.82678376472E+02  0.38235635848E+02  0.20287112637E+03  0.17303828559E+03 0.  0.
         24    2    3    3    0    0 -0.88174355305E+02  0.71470433943E+02 -0.13718986152E+02  0.13951190111E+03  0.79953862379E+02 0.  0.
         -6    2    1    2    0  502  0.54007109261E+02 -0.82678376472E+02  0.43375897083E+03  0.47673799178E+03  0.17140532734E+03 0.  0.
        -24    2    5    5    0    0  0.41530600248E+02 -0.37990637419E+02  0.41581079126E+03  0.42676915700E+03  0.77879522041E+02 0.  0.
          5    1    3    3  501    0  0.34167246043E+02  0.11207942529E+02  0.51954622001E+02  0.63359225257E+02  0.47000000000E+01 0. -1.
        -13    1    4    4    0    0 -0.30010248482E+02  0.19502744941E+01  0.26746575746E+02  0.40246712893E+02  0.00000000000E+00 0.  1.
         14    1    4    4    0    0 -0.58164106823E+02  0.69520159449E+02 -0.40465561898E+02  0.99265188219E+02  0.00000000000E+00 0. -1.
         -5    1    5    5    0  502  0.12476509014E+02 -0.44687739053E+02  0.17948179575E+02  0.49968834777E+02  0.47000000000E+01 0.  1.
         13    1    6    6    0    0 -0.21735580753E+02 -0.52963760365E+01  0.63303558934E+02  0.67140357785E+02  0.00000000000E+00 0. -1.
        -14    1    6    6    0    0  0.63266181000E+02 -0.32694261382E+02  0.35250723232E+03  0.35962879922E+03  0.00000000000E+00 0.  1.
</event>
<event>
12    1  0.1615162E-001  0.2647408E+03  0.7818608E-02  0.1104368E+00
         21   -1    0    0  503  502  0.00000000000E+00  0.00000000000E+00  0.63162412786E+02  0.63162412786E+02  0.00000000000E+00 0.  1.
         21   -1    0    0  501  503 -0.00000000000E+00 -0.00000000000E+00 -0.13935531850E+04  0.13935531850E+04  0.00000000000E+00 0. -1.
          6    2    1    2  501    0 -0.12016611913E+03  0.16128746630E+03 -0.99433812420E+03  0.10289082996E+04  0.17172781002E+03 0.  0.
         24    2    3    3    0    0 -0.43208515994E+02  0.15309937836E+03 -0.78159139857E+03  0.80247337133E+03  0.88158957978E+02 0.  0.
         -6    2    1    2    0  502  0.12016611913E+03 -0.16128746630E+03 -0.33605264806E+03  0.42780729825E+03  0.17214574986E+03 0.  0.
        -24    2    5    5    0    0 -0.63457048525E+01 -0.67386176767E+02 -0.13962287088E+03  0.17595527593E+03  0.82973177988E+02 0.  0.
          5    1    3    3  501    0 -0.76957603137E+02  0.81880879494E+01 -0.21274672564E+03  0.22643492825E+03  0.47000000000E+01 0. -1.
        -11    1    4    4    0    0  0.17444347616E+02  0.70765526600E+02 -0.22330013849E+03  0.23489362883E+03  0.00000000000E+00 0.  1.
         12    1    4    4    0    0 -0.60652863611E+02  0.82333851755E+02 -0.55829126008E+03  0.56757974249E+03  0.00000000000E+00 0. -1.
         -5    1    5    5    0  502  0.12651182398E+03 -0.93901289538E+02 -0.19642977717E+03  0.25185202232E+03  0.47000000000E+01 0.  1.
         13    1    6    6    0    0  0.21278277489E+02  0.87090929827E+01 -0.50888494487E+02  0.55841313243E+02  0.00000000000E+00 0. -1.
        -14    1    6    6    0    0 -0.27623982341E+02 -0.76095269749E+02 -0.88734376396E+02  0.12011396269E+03  0.00000000000E+00 0.  1.
</event>
<event>
12    1  0.1615162E-001  0.1752701E+03  0.7818608E-02  0.1173068E+00
         21   -1    0    0  501  502  0.00000000000E+00  0.00000000000E+00  0.89772579055E+03  0.89772579055E+03  0.00000000000E+00 0. -1.
         21   -1    0    0  502  503 -0.00000000000E+00 -0.00000000000E+00 -0.92529864251E+02  0.92529864251E+02  0.00000000000E+00 0. -1.
         -6    2    1    2    0  503 -0.19951973775E+01 -0.37775549953E+01  0.89897077778E+01  0.17550051958E+03  0.17521805499E+03 0.  0.
        -24    2    3    3    0    0  0.39790188134E+02  0.45722519555E+02  0.33645162168E+02  0.10602925031E+03  0.80227159481E+02 0.  0.
          6    2    1    2  501    0  0.19951973775E+01  0.37775549953E+01  0.79620621852E+03  0.81475513522E+03  0.17281011897E+03 0.  0.
         24    2    5    5    0    0  0.29140477538E+02 -0.60208963500E+02  0.47927232797E+03  0.49025502465E+03  0.78573138622E+02 0.  0.
          5    1    5    5  501    0 -0.27145280160E+02  0.63986518495E+02  0.31693389055E+03  0.32450011057E+03  0.47000000000E+01 0. -1.
        -11    1    6    6    0    0 -0.25010949232E+02 -0.45146770412E+01  0.12738148423E+03  0.12989215686E+03  0.00000000000E+00 0.  1.
         12    1    6    6    0    0  0.54151426770E+02 -0.55694286459E+02  0.35189084374E+03  0.36036286778E+03  0.00000000000E+00 0. -1.
         -5    1    3    3    0  503 -0.41785385511E+02 -0.49500074550E+02 -0.24655454390E+02  0.69471269270E+02  0.47000000000E+01 0.  1.
         11    1    4    4    0    0  0.22939424134E+02  0.44445570541E+02 -0.16852400034E+02  0.52779061257E+02  0.00000000000E+00 0. -1.
        -12    1    4    4    0    0  0.16850764000E+02  0.12769490143E+01  0.50497562201E+02  0.53250189055E+02  0.00000000000E+00 0.  1.
</event>
<event>
12    1  0.1615162E-001  0.1773882E+03  0.7818608E-02  0.1170466E+00
         21   -1    0    0  501  502  0.00000000000E+00  0.00000000000E+00  0.15512109952E+03  0.15512109952E+03  0.00000000000E+00 0.  1.
         21   -1    0    0  502  503 -0.00000000000E+00 -0.00000000000E+00 -0.24636501108E+03  0.24636501108E+03  0.00000000000E+00 0.  1.
         -6    2    1    2    0  503  0.34280436102E+02  0.23664665125E+02  0.39191660571E+02  0.18166609415E+03  0.17242801057E+03 0.  0.
        -24    2    3    3    0    0 -0.26768883341E+02  0.51168883173E+02 -0.74756842138E+01  0.99913831281E+02  0.81191502672E+02 0.  0.
          6    2    1    2  501    0 -0.34280436102E+02 -0.23664665125E+02 -0.13043557213E+03  0.21982001645E+03  0.17196580032E+03 0.  0.
         24    2    5    5    0    0 -0.78463545287E+02 -0.31753588024E+02 -0.49007010708E+02  0.12670568658E+03  0.80547039808E+02 0.  0.
          5    1    5    5  501    0  0.44183109186E+02  0.80889228991E+01 -0.81428561423E+02  0.93114329866E+02  0.47000000000E+01 0. -1.
        -11    1    6    6    0    0 -0.19512551611E+02  0.15973175182E+02  0.13333886303E+02  0.28524980626E+02  0.00000000000E+00 0.  1.
         12    1    6    6    0    0 -0.58950993676E+02 -0.47726763206E+02 -0.62340897011E+02  0.98180705954E+02  0.00000000000E+00 0. -1.
         -5    1    3    3    0  503  0.61049319442E+02 -0.27504218049E+02  0.46667344785E+02  0.81752262868E+02  0.47000000000E+01 0.  1.
         11    1    4    4    0    0 -0.25628433743E+02  0.70148810568E+02  0.83849159101E+01  0.75153037564E+02  0.00000000000E+00 0. -1.
        -12    1    4    4    0    0 -0.11404495982E+01 -0.18979927395E+02 -0.15860600124E+02  0.24760793717E+02  0.00000000000E+00 0.  1.
</event>
<event>
12    1  0.1615162E-001  0.2099658E+03  0.7818608E-02  0.1141712E+00
         21   -1    0    0  503  502  0.00000000000E+00  0.00000000000E+00  0.72583992227E+02  0.72583992227E+02  0.00000000000E+00 0. -1.
         21   -1    0    0  501  503 -0.00000000000E+00 -0.00000000000E+00 -0.60656009685E+03  0.60656009685E+03  0.00000000000E+00 0. -1.
          6    2    1    2  501    0 -0.14586767626E+02  0.11920106289E+03 -0.28055793586E+03  0.35042603157E+03  0.17223234610E+03 0.  0.
         24    2    3    3    0    0 -0.37564486128E+02  0.10506357930E+03 -0.29050443830E+03  0.32129071108E+03  0.79908985960E+02 0.  0.
         -6    2    1    2    0  502  0.14586767626E+02 -0.11920106289E+03 -0.25341816876E+03  0.32871805751E+03  0.17150255359E+03 0.  0.
        -24    2    5    5    0    0 -0.48834585567E+02 -0.72199362749E+02 -0.94525463918E+02  0.15123451035E+03  0.79619401303E+02 0.  0.
          5    1    3    3  501    0  0.22977718501E+02  0.14137483589E+02  0.99465024381E+01  0.29135320498E+02  0.47000000000E+01 0. -1.
        -11    1    4    4    0    0 -0.32915000147E+02  0.93400467845E+01 -0.37600198388E+02  0.50837079258E+02  0.00000000000E+00 0.  1.
         12    1    4    4    0    0 -0.46494859802E+01  0.95723532517E+02 -0.25290423991E+03  0.27045363182E+03  0.00000000000E+00 0. -1.
         -5    1    5    5    0  502  0.63421353194E+02 -0.47001700142E+02 -0.15889270485E+03  0.17748354715E+03  0.47000000000E+01 0.  1.
         13    1    6    6    0    0 -0.46305383954E+02 -0.40838617479E+02 -0.10169075476E+03  0.11896634341E+03  0.00000000000E+00 0. -1.
        -14    1    6    6    0    0 -0.25292016137E+01 -0.31360745270E+02  0.71652908467E+01  0.32268166939E+02  0.00000000000E+00 0.  1.
</event>
<event>
12    1  0.1615162E-001  0.2183305E+03  0.7818608E-02  0.1135626E+00
         21   -1    0    0  503  502  0.00000000000E+00  0.00000000000E+00  0.76354481955E+02  0.76354481955E+02  0.00000000000E+00 0. -1.
         21   -1    0    0  501  503 -0.00000000000E+00 -0.00000000000E+00 -0.81131579074E+03  0.81131579074E+03  0.00000000000E+00 0. -1.
          6    2    1    2  501    0 -0.12569811409E+03  0.37218378114E+02 -0.58641432930E+03  0.62573955758E+03  0.17459382795E+03 0.  0.
         24    2    3    3    0    0 -0.12984764562E+02  0.47656002723E+02 -0.36340696848E+03  0.37560436184E+03  0.81082138514E+02 0.  0.
         -6    2    1    2    0  502  0.12569811409E+03 -0.37218378114E+02 -0.14854697948E+03  0.26193071511E+03  0.17133671775E+03 0.  0.
        -24    2    5    5    0    0  0.14114341896E+03 -0.43291656874E+02 -0.70117529929E+02  0.18162685023E+03  0.79222550144E+02 0.  0.
          5    1    3    3  501    0 -0.11271334953E+03 -0.10437624609E+02 -0.22300736082E+03  0.25013519574E+03  0.47000000000E+01 0. -1.
        -13    1    4    4    0    0  0.20019886885E+02 -0.14161378273E+02 -0.10884060090E+03  0.11156888863E+03  0.00000000000E+00 0.  1.
         14    1    4    4    0    0 -0.33004651448E+02  0.61817380996E+02 -0.25456636758E+03  0.26403547321E+03  0.00000000000E+00 0. -1.
         -5    1    5    5    0  502 -0.15445304868E+02  0.60732787606E+01 -0.78429449555E+02  0.80303864881E+02  0.47000000000E+01 0.  1.
         13    1    6    6    0    0  0.92802881959E+02  0.11793980768E+02 -0.47561984400E+02  0.10494577287E+03  0.00000000000E+00 0. -1.
        -14    1    6    6    0    0  0.48340536999E+02 -0.55085637642E+02 -0.22555545529E+02  0.76681077366E+02  0.00000000000E+00 0.  1.
</event>
<event>
12    1  0.1615162E-001  0.1827042E+03  0.7818608E-02  0.1165962E+00
         21   -1    0    0  503  502  0.00000000000E+00  0.00000000000E+00  0.26199701485E+03  0.26199701485E+03  0.00000000000E+00 0.  1.
         21   -1    0    0  501  503 -0.00000000000E+00 -0.00000000000E+00 -0.33287049196E+03  0.33287049196E+03  0.00000000000E+00 0.  1.
          6    2    1    2  501    0 -0.57228767546E+02  0.14677725628E+02 -0.27046076146E+03  0.32638908375E+03  0.17288794937E+03 0.  0.
         24    2    3    3    0    0 -0.29095267414E+01 -0.39092258307E+02 -0.61369678557E+02  0.10371676386E+03  0.73852959687E+02 0.  0.
         -6    2    1    2    0  502  0.57228767546E+02 -0.14677725628E+02  0.19958728436E+03  0.26847842306E+03  0.16957302883E+03 0.  0.
        -24    2    5    5    0    0  0.62321938243E+00  0.46654240014E+02  0.77947474002E+02  0.12088393957E+03  0.79750308020E+02 0.  0.
          5    1    3    3  501    0 -0.54319240805E+02  0.53769983934E+02 -0.20909108290E+03  0.22267231989E+03  0.47000000000E+01 0. -1.
        -11    1    4    4    0    0 -0.79462144360E+00 -0.13003566670E+02 -0.73658149214E+02  0.74801384446E+02  0.00000000000E+00 0.  1.
         12    1    4    4    0    0 -0.21149052978E+01 -0.26088691637E+02  0.12288470657E+02  0.28915379417E+02  0.00000000000E+00 0. -1.
         -5    1    5    5    0  502  0.56605548164E+02 -0.61331965642E+02  0.12163981036E+03  0.14759448349E+03  0.47000000000E+01 0.  1.
         13    1    6    6    0    0 -0.26755339724E+01 -0.21313653674E+02  0.32846161854E+02  0.39246664362E+02  0.00000000000E+00 0. -1.
        -14    1    6    6    0    0  0.32987533549E+01  0.67967893688E+02  0.45101312148E+02  0.81637275209E+02  0.00000000000E+00 0.  1.
</event>
<event>
12    1  0.1615162E-001  0.2029632E+03  0.7818608E-02  0.1147399E+00
         21   -1    0    0  503  502  0.00000000000E+00  0.00000000000E+00  0.14817646389E+03  0.14817646389E+03  0.00000000000E+00 0.  1.
         21   -1    0    0  501  503 -0.00000000000E+00 -0.00000000000E+00 -0.46320387694E+03  0.46320387694E+03  0.00000000000E+00 0.  1.
          6    2    1    2  501    0 -0.54733171441E+02 -0.90837626337E+02 -0.35142802401E+03  0.40582718731E+03  0.17305159775E+03 0.  0.
         24    2    3    3    0    0 -0.70469434459E+02 -0.10931385265E+03 -0.19357369696E+03  0.24604896763E+03  0.78446534315E+02 0.  0.
         -6    2    1    2    0  502  0.54733171441E+02  0.90837626337E+02  0.36400610958E+02  0.20555315353E+03  0.17227855361E+03 0.  0.
        -24    2    5    5    0    0  0.50867840996E+02  0.62349837821E+02 -0.42431404448E+02  0.12151107165E+03  0.80557289708E+02 0.  0.
          5    1    3    3  501    0  0.15736263018E+02  0.18476226312E+02 -0.15785432706E+03  0.15977821968E+03  0.47000000000E+01 0. -1.
        -13    1    4    4    0    0 -0.45129401700E+02 -0.76254773667E+02 -0.18261635321E+03  0.20297828915E+03  0.00000000000E+00 0.  1.
         14    1    4    4    0    0 -0.25340032759E+02 -0.33059078982E+02 -0.10957343746E+02  0.43070678487E+02  0.00000000000E+00 0. -1.
         -5    1    5    5    0  502  0.38653304455E+01  0.28487788515E+02  0.78832015406E+02  0.84042081881E+02  0.47000000000E+01 0.  1.
         13    1    6    6    0    0  0.45203766834E+02  0.79672221112E+02 -0.22146828619E+02  0.94241845116E+02  0.00000000000E+00 0. -1.
        -14    1    6    6    0    0  0.56640741613E+01 -0.17322383291E+02 -0.20284575830E+02  0.27269226530E+02  0.00000000000E+00 0.  1.
</event>
<event>
12    1  0.1615162E-001  0.2058402E+03  0.7818608E-02  0.1146182E+00
         21   -1    0    0  503  502  0.00000000000E+00  0.00000000000E+00  0.43257823125E+03  0.43257823125E+03  0.00000000000E+00 0.  1.
         21   -1    0    0  501  503 -0.00000000000E+00 -0.00000000000E+00 -0.20876806240E+03  0.20876806240E+03  0.00000000000E+00 0. -1.
          6    2    1    2  501    0 -0.53436256633E+02  0.98205162352E+02 -0.12555931584E+03  0.23584753939E+03  0.16540626531E+03 0.  0.
         24    2    3    3    0    0 -0.34634314368E+02  0.10253671437E+03 -0.15172646022E+03  0.20299811290E+03  0.80461180604E+02 0.  0.
         -6    2    1    2    0  502  0.53436256633E+02 -0.98205162352E+02  0.34936948469E+03  0.40549875426E+03  0.17283088681E+03 0.  0.
        -24    2    5    5    0    0  0.47205821225E+02 -0.20623126598E+02  0.76559676732E+02  0.12176459714E+03  0.79445138976E+02 0.  0.
          5    1    3    3  501    0 -0.18801942265E+02 -0.43315520224E+01  0.26167144376E+02  0.32849426488E+02  0.47000000000E+01 0. -1.
        -11    1    4    4    0    0 -0.47505366662E+02  0.82155585165E+02 -0.70367961003E+02  0.11814376823E+03  0.00000000000E+00 0.  1.
         12    1    4    4    0    0  0.12871052295E+02  0.20381129209E+02 -0.81358499217E+02  0.84854344672E+02  0.00000000000E+00 0. -1.
         -5    1    5    5    0  502  0.62304354079E+01 -0.77582035754E+02  0.27280980796E+03  0.28373415712E+03  0.47000000000E+01 0.  1.
         11    1    6    6    0    0  0.59826364530E+02 -0.20475504669E+02  0.23876882906E+02  0.67591018054E+02  0.00000000000E+00 0. -1.
        -12    1    6    6    0    0 -0.12620543305E+02 -0.14762192939E+00  0.52682793827E+02  0.54173579085E+02  0.00000000000E+00 0.  1.
</event>
<event>
12    1  0.1615162E-001  0.1775210E+03  0.7818608E-02  0.1170891E+00
         21   -1    0    0  503  502  0.00000000000E+00  0.00000000000E+00  0.37494294020E+03  0.37494294020E+03  0.00000000000E+00 0.  1.
         21   -1    0    0  501  503 -0.00000000000E+00 -0.00000000000E+00 -0.10170419284E+03  0.10170419284E+03  0.00000000000E+00 0.  1.
          6    2    1    2  501    0 -0.40324186529E+02 -0.16255374974E+02  0.32979401409E+02  0.17791939872E+03  0.16934401167E+03 0.  0.
         24    2    3    3    0    0 -0.76446097448E+02 -0.30784534263E+02 -0.15909336647E+02  0.11524494119E+03  0.78972122373E+02 0.  0.
         -6    2    1    2    0  502  0.40324186529E+02  0.16255374974E+02  0.24025934596E+03  0.29872773432E+03  0.17211458014E+03 0.  0.
        -24    2    5    5    0    0  0.39707091062E+02 -0.57549315403E+02  0.71448281365E+02  0.11442695120E+03  0.55678482990E+02 0.  0.
          5    1    3    3  501    0  0.36121910918E+02  0.14529159289E+02  0.48888738055E+02  0.62674457530E+02  0.47000000000E+01 0. -1.
        -11    1    4    4    0    0 -0.70388312040E+01 -0.43018999774E+02 -0.40771548170E+01  0.43781305116E+02  0.00000000000E+00 0.  1.
         12    1    4    4    0    0 -0.69407266244E+02  0.12234465511E+02 -0.11832181830E+02  0.71463636072E+02  0.00000000000E+00 0. -1.
         -5    1    5    5    0  502  0.61709546715E+00  0.73804690377E+02  0.16881106459E+03  0.18430078311E+03  0.47000000000E+01 0.  1.
         13    1    6    6    0    0  0.63511617211E+01 -0.53719073975E+02  0.54611766900E+02  0.76866906064E+02  0.00000000000E+00 0. -1.
        -14    1    6    6    0    0  0.33355929341E+02 -0.38302414276E+01  0.16836514465E+02  0.37560045140E+02  0.00000000000E+00 0.  1.
</event>
<event>
12    1  0.1615162E-001  0.1967453E+03  0.7818608E-02  0.1153324E+00
         21   -1    0    0  503  502  0.00000000000E+00  0.00000000000E+00  0.21101149757E+04  0.21101149757E+04  0.00000000000E+00 0. -1.
         21   -1    0    0  501  503 -0.00000000000E+00 -0.00000000000E+00 -0.65336268559E+02  0.65336268559E+02  0.00000000000E+00 0.  1.
          6    2    1    2  501    0  0.87167607513E+02  0.12230489388E+02  0.93862552476E+02  0.21463953964E+03  0.17179108403E+03 0.  0.
         24    2    3    3    0    0  0.28454996706E+02  0.68922977643E+02  0.42816967860E+02  0.11826033752E+03  0.81192062481E+02 0.  0.
         -6    2    1    2    0  502 -0.87167607513E+02 -0.12230489388E+02  0.19509161546E+04  0.19608117046E+04  0.17595715886E+03 0.  0.
        -24    2    5    5    0    0 -0.12196258346E+03 -0.18762752604E+02  0.17874250429E+04  0.17934653738E+04  0.80017812717E+02 0.  0.
          5    1    3    3  501    0  0.58712610808E+02 -0.56692488254E+02  0.51045584615E+02  0.96379202119E+02  0.47000000000E+01 0. -1.
        -11    1    4    4    0    0  0.17255478954E+01  0.77860677660E+02  0.16309230839E+02  0.79569175261E+02  0.00000000000E+00 0.  1.
         12    1    4    4    0    0  0.26729448810E+02 -0.89377000168E+01  0.26507737021E+02  0.38691162263E+02  0.00000000000E+00 0. -1.
         -5    1    5    5    0  502  0.34794975949E+02  0.65322632160E+01  0.16349111175E+03  0.16734633081E+03  0.47000000000E+01 0.  1.
         13    1    6    6    0    0  0.31447441525E+00  0.49090976243E+01  0.50124290786E+03  0.50126704541E+03  0.00000000000E+00 0. -1.
        -14    1    6    6    0    0 -0.12227705788E+03 -0.23671850229E+02  0.12861821350E+04  0.12921983284E+04  0.00000000000E+00 0.  1.
</event>
<event>
12    1  0.1615162E-001  0.1859056E+03  0.7818608E-02  0.1162395E+00
         21   -1    0    0  503  502  0.00000000000E+00  0.00000000000E+00  0.54523700692E+03  0.54523700692E+03  0.00000000000E+00 0. -1.
         21   -1    0    0  501  503 -0.00000000000E+00 -0.00000000000E+00 -0.74681785482E+02  0.74681785482E+02  0.00000000000E+00 0. -1.
          6    2    1    2  501    0 -0.13339239677E+02  0.66346206175E+02  0.11284154867E+03  0.21678112845E+03  0.17228200184E+03 0.  0.
         24    2    3    3    0    0 -0.59792064468E+02  0.43367545957E+02  0.26505805435E+02  0.11597520444E+03  0.85392360943E+02 0.  0.
         -6    2    1    2    0  502  0.13339239677E+02 -0.66346206175E+02  0.35771367277E+03  0.40313766395E+03  0.17315065700E+03 0.  0.
        -24    2    5    5    0    0  0.37758886755E+01  0.11365785548E+02  0.27196916910E+03  0.28692741806E+03  0.90645881745E+02 0.  0.
          5    1    3    3  501    0  0.46452824791E+02  0.22978660218E+02  0.86335743231E+02  0.10080592401E+03  0.47000000000E+01 0. -1.
        -11    1    4    4    0    0 -0.55795926773E+02 -0.31542271915E+01 -0.99148688205E+01  0.56757723857E+02  0.00000000000E+00 0.  1.
         12    1    4    4    0    0 -0.39961376941E+01  0.46521773149E+02  0.36420674255E+02  0.59217480583E+02  0.00000000000E+00 0. -1.
         -5    1    5    5    0  502  0.95633510013E+01 -0.77711991724E+02  0.85744503674E+02  0.11621024589E+03  0.47000000000E+01 0.  1.
         13    1    6    6    0    0 -0.29502806458E+02 -0.79594842945E+01  0.33380463869E+02  0.45255102997E+02  0.00000000000E+00 0. -1.
        -14    1    6    6    0    0  0.33278695134E+02  0.19325269843E+02  0.23858870523E+03  0.24167231506E+03  0.00000000000E+00 0.  1.
</event>
<event>
12    1  0.1615162E-001  0.2053630E+03  0.7818608E-02  0.1145373E+00
         21   -1    0    0  503  502  0.00000000000E+00  0.00000000000E+00  0.51197575790E+03  0.51197575790E+03  0.00000000000E+00 0. -1.
         21   -1    0    0  501  503 -0.00000000000E+00 -0.00000000000E+00 -0.92553587515E+02  0.92553587515E+02  0.00000000000E+00 0.  1.
          6    2    1    2  501    0  0.11088972327E+03 -0.28156370662E+01  0.31055562200E+03  0.37209465761E+03  0.17235191130E+03 0.  0.
         24    2    3    3    0    0  0.23837078195E+02  0.53693249026E+02  0.11327114769E+03  0.14912678768E+03  0.77183383022E+02 0.  0.
         -6    2    1    2    0  502 -0.11088972327E+03  0.28156370662E+01  0.10886654839E+03  0.23243468781E+03  0.17282794971E+03 0.  0.
        -24    2    5    5    0    0 -0.11589496250E+03  0.32937163910E+02  0.31356495174E+02  0.14899454670E+03  0.81851365628E+02 0.  0.
          5    1    3    3  501    0  0.87052645072E+02 -0.56508886092E+02  0.19728447431E+03  0.22296786994E+03  0.47000000000E+01 0. -1.
        -11    1    4    4    0    0  0.93485806559E+01  0.11890506203E+02 -0.10016351778E+02  0.18141317510E+02  0.00000000000E+00 0.  1.
         12    1    4    4    0    0  0.14488497539E+02  0.41802742823E+02  0.12328749947E+03  0.13098547017E+03  0.00000000000E+00 0. -1.
         -5    1    5    5    0  502  0.50052392383E+01 -0.30121526844E+02  0.77510053213E+02  0.83440141109E+02  0.47000000000E+01 0.  1.
         13    1    6    6    0    0 -0.56036371551E+02  0.36418218388E+02  0.52950400475E+02  0.85264919384E+02  0.00000000000E+00 0. -1.
        -14    1    6    6    0    0 -0.59858590953E+02 -0.34810544776E+01 -0.21593905301E+02  0.63729627312E+02  0.00000000000E+00 0.  1.
</event>
<event>
12    1  0.1615162E-001  0.1800176E+03  0.7818608E-02  0.1169314E+00
         21   -1    0    0  501  502  0.00000000000E+00  0.00000000000E+00  0.11714302739E+03  0.11714302739E+03  0.00000000000E+00 0. -1.
         21   -1    0    0  502  503 -0.00000000000E+00 -0.00000000000E+00 -0.62279455591E+03  0.62279455591E+03  0.00000000000E+00 0. -1.
         -6    2    1    2    0  503  0.26845115803E+02 -0.47623325719E+02 -0.53046594566E+03  0.55821778159E+03  0.16499797206E+03 0.  0.
        -24    2    3    3    0    0 -0.12015171692E+02 -0.10599888150E+02 -0.46898724911E+03  0.47647075104E+03  0.82574904139E+02 0.  0.
          6    2    1    2  501    0 -0.26845115803E+02  0.47623325719E+02  0.24814417140E+02  0.18171980170E+03  0.17151585827E+03 0.  0.
         24    2    5    5    0    0  0.42499525350E+02  0.61785427746E+02  0.12684952587E+02  0.10975829602E+03  0.79134864540E+02 0.  0.
          5    1    5    5  501    0 -0.69344641152E+02 -0.14162102028E+02  0.12129464553E+02  0.71961505687E+02  0.47000000000E+01 0. -1.
        -13    1    6    6    0    0  0.14721510584E+02  0.92494005523E+01 -0.31313031048E+02  0.35815921011E+02  0.00000000000E+00 0.  1.
         14    1    6    6    0    0  0.27778014766E+02  0.52536027194E+02  0.43997983635E+02  0.73942375007E+02  0.00000000000E+00 0. -1.
         -5    1    3    3    0  503  0.38860287495E+02 -0.37023437569E+02 -0.61478696552E+02  0.81747030547E+02  0.47000000000E+01 0.  1.
         13    1    4    4    0    0  0.12777287836E+02 -0.41690251782E+02 -0.21348765357E+03  0.21789519133E+03  0.00000000000E+00 0. -1.
        -14    1    4    4    0    0 -0.24792459528E+02  0.31090363633E+02 -0.25549959554E+03  0.25857555971E+03  0.00000000000E+00 0.  1.
</event>
<event>
12    1  0.1615162E-001  0.1902459E+03  0.7818608E-02  0.1158391E+00
         21   -1    0    0  503  502  0.00000000000E+00  0.00000000000E+00  0.56434864373E+03  0.56434864373E+03  0.00000000000E+00 0. -1.
         21   -1    0    0  501  503 -0.00000000000E+00 -0.00000000000E+00 -0.64073117358E+02  0.64073117358E+02  0.00000000000E+00 0. -1.
          6    2    1    2  501    0 -0.44767627516E+02 -0.67587841179E+02  0.23463045025E+03  0.30206777276E+03  0.17210820552E+03 0.  0.
         24    2    3    3    0    0 -0.25948038571E+02  0.21489113857E+02  0.46846833656E+02  0.93324730940E+02  0.73347098520E+02 0.  0.
         -6    2    1    2    0  502  0.44767627516E+02  0.67587841179E+02  0.26564507612E+03  0.32635398833E+03  0.17136908263E+03 0.  0.
        -24    2    5    5    0    0  0.16698005133E+02  0.48698431729E+02  0.49575216653E+02  0.10760073084E+03  0.80435406031E+02 0.  0.
          5    1    3    3  501    0 -0.18819588945E+02 -0.89076955036E+02  0.18778361660E+03  0.20874304182E+03  0.47000000000E+01 0. -1.
        -11    1    4    4    0    0  0.19730165169E+01  0.43420515869E+02  0.16080525699E+02  0.46344549834E+02  0.00000000000E+00 0.  1.
         12    1    4    4    0    0 -0.27921055088E+02 -0.21931402012E+02  0.30766307957E+02  0.46980181106E+02  0.00000000000E+00 0. -1.
         -5    1    5    5    0  502  0.28069622383E+02  0.18889409449E+02  0.21606985947E+03  0.21875325749E+03  0.47000000000E+01 0.  1.
         13    1    6    6    0    0 -0.10927125983E+01  0.61117636947E+02  0.58057975504E+02  0.84304733475E+02  0.00000000000E+00 0. -1.
        -14    1    6    6    0    0  0.17790717731E+02 -0.12419205217E+02 -0.84827588506E+01  0.23295997367E+02  0.00000000000E+00 0.  1.
</event>
<event>
12    1  0.1615162E-001  0.3988729E+03  0.7818608E-02  0.1044194E+00
         21   -1    0    0  501  502  0.00000000000E+00  0.00000000000E+00  0.54826866078E+03  0.54826866078E+03  0.00000000000E+00 0. -1.
         21   -1    0    0  502  503 -0.00000000000E+00 -0.00000000000E+00 -0.68287969501E+03  0.68287969501E+03  0.00000000000E+00 0.  1.
         -6    2    1    2    0  503  0.48061280117E+02 -0.35664827637E+03 -0.53423802287E+03  0.66671572173E+03  0.17202240794E+03 0.  0.
        -24    2    3    3    0    0  0.46462835706E+02 -0.15447753422E+03 -0.16111918573E+03  0.24231576810E+03  0.82069700749E+02 0.  0.
          6    2    1    2  501    0 -0.48061280117E+02  0.35664827637E+03  0.39962698864E+03  0.56443263406E+03  0.17139016501E+03 0.  0.
         24    2    5    5    0    0 -0.92946016663E+02  0.26206743355E+03  0.25301631960E+03  0.38421900062E+03  0.79301202449E+02 0.  0.
          5    1    5    5  501    0  0.44884736546E+02  0.94580842815E+02  0.14661066904E+03  0.18021363344E+03  0.47000000000E+01 0. -1.
        -13    1    6    6    0    0 -0.67819309152E+01  0.74362742452E+01 -0.53281080467E+01  0.11387778402E+02  0.00000000000E+00 0.  1.
         14    1    6    6    0    0 -0.86164085748E+02  0.25463115931E+03  0.25834442764E+03  0.37283122222E+03  0.00000000000E+00 0. -1.
         -5    1    3    3    0  503  0.15984444110E+01 -0.20217074215E+03 -0.37311883715E+03  0.42439995363E+03  0.47000000000E+01 0.  1.
         13    1    4    4    0    0 -0.44183725055E+01 -0.24450528821E+02  0.49640026062E+01  0.25337555074E+02  0.00000000000E+00 0. -1.
        -14    1    4    4    0    0  0.50881208211E+02 -0.13002700540E+03 -0.16608318834E+03  0.21697821303E+03  0.00000000000E+00 0.  1.
</event>
<event>
12    1  0.1615162E-001  0.1817644E+03  0.7818608E-02  0.1167090E+00
         21   -1    0    0  503  502  0.00000000000E+00  0.00000000000E+00  0.20415977468E+03  0.20415977468E+03  0.00000000000E+00 0.  1.
         21   -1    0    0  501  503 -0.00000000000E+00 -0.00000000000E+00 -0.15996398537E+03  0.15996398537E+03  0.00000000000E+00 0.  1.
          6    2    1    2  501    0 -0.37678249981E+02 -0.12284454741E+02  0.41335555392E+02  0.18640527549E+03  0.17739148864E+03 0.  0.
         24    2    3    3    0    0 -0.79982980556E+02  0.88543731732E+01  0.68220598549E+02  0.13180274973E+03  0.79007832940E+02 0.  0.
         -6    2    1    2    0  502  0.37678249981E+02  0.12284454741E+02  0.28602339194E+01  0.17771848457E+03  0.17321986164E+03 0.  0.
        -24    2    5    5    0    0  0.16240418862E+01 -0.28323165486E+02  0.57025622038E+02  0.10087537159E+03  0.78224547356E+02 0.  0.
          5    1    3    3  501    0  0.42304730575E+02 -0.21138827914E+02 -0.26885043157E+02  0.54602525767E+02  0.47000000000E+01 0. -1.
        -11    1    4    4    0    0 -0.89684945188E+01  0.35592424676E+02  0.18719276849E+02  0.41202741583E+02  0.00000000000E+00 0.  1.
         12    1    4    4    0    0 -0.71014486037E+02 -0.26738051503E+02  0.49501321700E+02  0.90600008142E+02  0.00000000000E+00 0. -1.
         -5    1    5    5    0  502  0.36054208095E+02  0.40607620228E+02 -0.54165388119E+02  0.76843112977E+02  0.47000000000E+01 0.  1.
         11    1    6    6    0    0  0.38651235507E+02 -0.97091162272E+01  0.38737906048E+02  0.55577066395E+02  0.00000000000E+00 0. -1.
        -12    1    6    6    0    0 -0.37027193621E+02 -0.18614049259E+02  0.18287715990E+02  0.45298305193E+02  0.00000000000E+00 0.  1.
</event>
<event>
12    1  0.1615162E-001  0.2511016E+03  0.7818608E-02  0.1112712E+00
         21   -1    0    0  503  502  0.00000000000E+00  0.00000000000E+00  0.56195842801E+03  0.56195842801E+03  0.00000000000E+00 0.  1.
         21   -1    0    0  501  503 -0.00000000000E+00 -0.00000000000E+00 -0.11205792630E+03  0.11205792630E+03  0.00000000000E+00 0.  1.
          6    2    1    2  501    0 -0.11264882176E+03  0.14417516356E+03  0.21309344444E+03  0.32933393346E+03  0.17197612868E+03 0.  0.
         24    2    3    3    0    0 -0.12461306977E+03  0.13568246773E+03  0.11142587065E+03  0.22650565587E+03  0.70362904185E+02 0.  0.
         -6    2    1    2    0  502  0.11264882176E+03 -0.14417516356E+03  0.23680705727E+03  0.34468242085E+03  0.17103261105E+03 0.  0.
        -24    2    5    5    0    0  0.17177190344E+02 -0.18940914645E+02  0.11940610751E+03  0.14820462946E+03  0.83982019310E+02 0.  0.
          5    1    3    3  501    0  0.11964248013E+02  0.84926958336E+01  0.10166757378E+03  0.10282827759E+03  0.47000000000E+01 0. -1.
        -13    1    4    4    0    0 -0.34511016008E+02  0.67572358514E+02  0.13603745384E+02  0.77084990430E+02  0.00000000000E+00 0.  1.
         14    1    4    4    0    0 -0.90102053763E+02  0.68110109211E+02  0.97822125267E+02  0.14942066544E+03  0.00000000000E+00 0. -1.
         -5    1    5    5    0  502  0.95471631414E+02 -0.12523424891E+03  0.11740094976E+03  0.19647779139E+03  0.47000000000E+01 0.  1.
         11    1    6    6    0    0  0.46382645567E+02 -0.34090640203E+01  0.98889617726E+02  0.10928004402E+03  0.00000000000E+00 0. -1.
        -12    1    6    6    0    0 -0.29205455222E+02 -0.15531850625E+02  0.20516489781E+02  0.38924585438E+02  0.00000000000E+00 0.  1.
</event>
<event>
12    1  0.1615162E-001  0.2115592E+03  0.7818608E-02  0.1140418E+00
         21   -1    0    0  501  502  0.00000000000E+00  0.00000000000E+00  0.32283755493E+03  0.32283755493E+03  0.00000000000E+00 0.  1.
         21   -1    0    0  502  503 -0.00000000000E+00 -0.00000000000E+00 -0.29620127163E+03  0.29620127163E+03  0.00000000000E+00 0. -1.
         -6    2    1    2    0  503 -0.10895880989E+03  0.59329872638E+02 -0.21261659828E+03  0.29993849582E+03  0.17136285295E+03 0.  0.
        -24    2    3    3    0    0 -0.62042899941E+02 -0.25652872804E+02 -0.15503378614E+03  0.18697372307E+03  0.80101853642E+02 0.  0.
          6    2    1    2  501    0  0.10895880989E+03 -0.59329872638E+02  0.23925288157E+03  0.31910033074E+03  0.17085380798E+03 0.  0.
         24    2    5    5    0    0  0.81213075482E+02 -0.98101159891E+02  0.22174754959E+03  0.26809479045E+03  0.80519809467E+02 0.  0.
          5    1    5    5  501    0  0.27745734405E+02  0.38771287253E+02  0.17505331988E+02  0.51005540296E+02  0.47000000000E+01 0. -1.
        -11    1    6    6    0    0  0.58906205229E+02 -0.50800962491E+02  0.19373689107E+03  0.20876939854E+03  0.00000000000E+00 0.  1.
         12    1    6    6    0    0  0.22306870254E+02 -0.47300197399E+02  0.28010658513E+02  0.59325391907E+02  0.00000000000E+00 0. -1.
         -5    1    3    3    0  503 -0.46915909946E+02  0.84982745442E+02 -0.57582812137E+02  0.11296477275E+03  0.47000000000E+01 0.  1.
         11    1    4    4    0    0 -0.68101746237E+02 -0.90741595584E+01 -0.62847583109E+02  0.93112871907E+02  0.00000000000E+00 0. -1.
        -12    1    4    4    0    0  0.60588462962E+01 -0.16578713245E+02 -0.92186203031E+02  0.93860851161E+02  0.00000000000E+00 0.  1.
</event>
<event>
12    1  0.1615162E-001  0.1858632E+03  0.7818608E-02  0.1162254E+00
         21   -1    0    0  503  502  0.00000000000E+00  0.00000000000E+00  0.16016760868E+03  0.16016760868E+03  0.00000000000E+00 0. -1.
         21   -1    0    0  501  503 -0.00000000000E+00 -0.00000000000E+00 -0.22184828099E+03  0.22184828099E+03  0.00000000000E+00 0.  1.
          6    2    1    2  501    0 -0.14742814865E+02 -0.69657629022E+02 -0.62791941480E+02  0.19618348521E+03  0.17168458313E+03 0.  0.
         24    2    3    3    0    0  0.23857162856E+02  0.72319347545E+01 -0.70492157482E+02  0.10967714657E+03  0.80240059285E+02 0.  0.
         -6    2    1    2    0  502  0.14742814865E+02  0.69657629022E+02  0.11112691667E+01  0.18583240446E+03  0.17164763837E+03 0.  0.
        -24    2    5    5    0    0  0.36751379087E+02  0.10861844451E+03  0.29754068960E+01  0.14080033754E+03  0.81653240303E+02 0.  0.
          5    1    3    3  501    0 -0.38599977721E+02 -0.76889563777E+02  0.77002160018E+01  0.86506338637E+02  0.47000000000E+01 0. -1.
        -11    1    4    4    0    0  0.73468426313E-01  0.41581291903E+02 -0.42035616515E+02  0.59127001360E+02  0.00000000000E+00 0.  1.
         12    1    4    4    0    0  0.23783694429E+02 -0.34349357149E+02 -0.28456540967E+02  0.50550145213E+02  0.00000000000E+00 0. -1.
         -5    1    5    5    0  502 -0.22008564221E+02 -0.38960815486E+02 -0.18641377293E+01  0.45032066929E+02  0.47000000000E+01 0.  1.
         11    1    6    6    0    0  0.23443955902E+02  0.29683625812E+02 -0.35598665934E+02  0.51942292267E+02  0.00000000000E+00 0. -1.
        -12    1    6    6    0    0  0.13307423185E+02  0.78934818696E+02  0.38574072830E+02  0.88858045269E+02  0.00000000000E+00 0.  1.
</event>
<event>
12    1  0.1615162E-001  0.1821439E+03  0.7818608E-02  0.1166011E+00
         21   -1    0    0  503  502  0.00000000000E+00  0.00000000000E+00  0.15487878888E+03  0.15487878888E+03  0.00000000000E+00 0. -1.
         21   -1    0    0  501  503 -0.00000000000E+00 -0.00000000000E+00 -0.28898549317E+03  0.28898549317E+03  0.00000000000E+00 0. -1.
          6    2    1    2  501    0 -0.51039448478E+02 -0.27728946513E+02 -0.18077876391E+03  0.25583584046E+03  0.17145581358E+03 0.  0.
         24    2    3    3    0    0  0.37420371610E+02 -0.39746278180E+01 -0.11126102642E+03  0.14075233490E+03  0.77563663541E+02 0.  0.
         -6    2    1    2    0  502  0.51039448478E+02  0.27728946513E+02  0.46672059619E+02  0.18802844159E+03  0.17263398832E+03 0.  0.
        -24    2    5    5    0    0 -0.15800102595E+02 -0.24049004576E+02  0.54413871557E+02  0.10299605095E+03  0.82579169464E+02 0.  0.
          5    1    3    3  501    0 -0.88459820089E+02 -0.23754318695E+02 -0.69517737485E+02  0.11508350556E+03  0.47000000000E+01 0. -1.
        -13    1    4    4    0    0  0.24910678622E+02 -0.21061355705E+02 -0.57334252185E+01  0.33120911495E+02  0.00000000000E+00 0.  1.
         14    1    4    4    0    0  0.12509692989E+02  0.17086727887E+02 -0.10552760121E+03  0.10763142341E+03  0.00000000000E+00 0. -1.
         -5    1    5    5    0  502  0.66839551073E+02  0.51777951090E+02 -0.77418119383E+01  0.85032390645E+02  0.47000000000E+01 0.  1.
         13    1    6    6    0    0  0.30396864131E+02  0.62251855036E+01  0.27908297682E+02  0.41732425799E+02  0.00000000000E+00 0. -1.
        -14    1    6    6    0    0 -0.46196966726E+02 -0.30274190080E+02  0.26505573874E+02  0.61263625146E+02  0.00000000000E+00 0.  1.
</event>
<event>
12    1  0.1615162E-001  0.1880549E+03  0.7818608E-02  0.1160436E+00
         21   -1    0    0  501  502  0.00000000000E+00  0.00000000000E+00  0.20107195228E+04  0.20107195228E+04  0.00000000000E+00 0. -1.
         21   -1    0    0  502  503 -0.00000000000E+00 -0.00000000000E+00 -0.50881987769E+02  0.50881987769E+02  0.00000000000E+00 0. -1.
         -6    2    1    2    0  503 -0.67478843776E+02  0.37704948654E+02  0.14421396715E+03  0.23626493926E+03  0.17043589906E+03 0.  0.
        -24    2    3    3    0    0 -0.20321340660E+02 -0.47076673140E+02  0.68612849253E+02  0.11318215199E+03  0.73981797802E+02 0.  0.
          6    2    1    2  501    0  0.67478843776E+02 -0.37704948654E+02  0.18156235678E+04  0.18253365713E+04  0.17143395471E+03 0.  0.
         24    2    5    5    0    0  0.22665926079E+02 -0.13059559539E+02  0.16465144865E+04  0.16486007113E+04  0.78676901684E+02 0.  0.
          5    1    5    5  501    0  0.44812917697E+02 -0.24645389115E+02  0.16910908135E+03  0.17673585995E+03  0.47000000000E+01 0. -1.
        -11    1    6    6    0    0  0.29870697395E+02  0.87235456409E+01  0.25426048257E+03  0.25615766982E+03  0.00000000000E+00 0.  1.
         12    1    6    6    0    0 -0.72047713155E+01 -0.21783105180E+02  0.13922540039E+04  0.13924430415E+04  0.00000000000E+00 0. -1.
         -5    1    3    3    0  503 -0.47157503116E+02  0.84781621794E+02  0.75601117901E+02  0.12308278727E+03  0.47000000000E+01 0.  1.
         11    1    4    4    0    0 -0.46762343710E+02 -0.37024543762E+02  0.57322634373E+02  0.82724954164E+02  0.00000000000E+00 0. -1.
        -12    1    4    4    0    0  0.26441003049E+02 -0.10052129378E+02  0.11290214880E+02  0.30457197824E+02  0.00000000000E+00 0.  1.
</event>
<event>
12    1  0.1615162E-001  0.2066678E+03  0.7818608E-02  0.1144436E+00
         21   -1    0    0  503  502  0.00000000000E+00  0.00000000000E+00  0.23796205942E+03  0.23796205942E+03  0.00000000000E+00 0. -1.
         21   -1    0    0  501  503 -0.00000000000E+00 -0.00000000000E+00 -0.19200563300E+03  0.19200563300E+03  0.00000000000E+00 0. -1.
          6    2    1    2  501    0  0.36876465535E+02 -0.10705589387E+03  0.79695718436E+02  0.22056393065E+03  0.17168634728E+03 0.  0.
         24    2    3    3    0    0  0.37869670380E+02  0.80135657304E+00  0.94347318263E+01  0.91750619340E+02  0.83032571186E+02 0.  0.
         -6    2    1    2    0  502 -0.36876465535E+02  0.10705589387E+03 -0.33739292020E+02  0.20940376178E+03  0.17288943721E+03 0.  0.
        -24    2    5    5    0    0  0.35428525584E+02  0.10098503318E+03 -0.13473299223E+02  0.13392086600E+03  0.79373239872E+02 0.  0.
          5    1    3    3  501    0 -0.99320484503E+00 -0.10785725045E+03  0.70260986610E+02  0.12881331130E+03  0.47000000000E+01 0. -1.
        -13    1    4    4    0    0  0.23160047648E+02  0.75679699836E+01  0.45836690224E+02  0.51910154569E+02  0.00000000000E+00 0.  1.
         14    1    4    4    0    0  0.14709622732E+02 -0.67666134106E+01 -0.36401958398E+02  0.39840464771E+02  0.00000000000E+00 0. -1.
         -5    1    5    5    0  502 -0.72304991119E+02  0.60708606934E+01 -0.20265992796E+02  0.75482895773E+02  0.47000000000E+01 0.  1.
         13    1    6    6    0    0  0.35742155003E+02  0.13057188204E+02  0.15864673993E+02  0.41227171731E+02  0.00000000000E+00 0. -1.
        -14    1    6    6    0    0 -0.31362941819E+00  0.87927844977E+02 -0.29337973216E+02  0.92693694274E+02  0.00000000000E+00 0.  1.
</event>
<event>
12    1  0.1615162E-001  0.1841794E+03  0.7818608E-02  0.1164070E+00
         21   -1    0    0  503  502  0.00000000000E+00  0.00000000000E+00  0.74153534741E+03  0.74153534741E+03  0.00000000000E+00 0. -1.
         21   -1    0    0  501  503 -0.00000000000E+00 -0.00000000000E+00 -0.59963703715E+02  0.59963703715E+02  0.00000000000E+00 0. -1.
          6    2    1    2  501    0  0.43866138366E+02 -0.45957143401E+02  0.14308234862E+03  0.23238325711E+03  0.17173561824E+03 0.  0.
         24    2    3    3    0    0 -0.29767804400E+02 -0.59218125270E+02  0.10757958827E+03  0.14943539903E+03  0.79778832598E+02 0.  0.
         -6    2    1    2    0  502 -0.43866138366E+02  0.45957143401E+02  0.53848929508E+03  0.56911579402E+03  0.17287500966E+03 0.  0.
        -24    2    5    5    0    0 -0.52537415229E+02 -0.24852537901E+00  0.15377185456E+03  0.18150806202E+03  0.80865020610E+02 0.  0.
          5    1    3    3  501    0  0.73633942767E+02  0.13260981869E+02  0.35502760345E+02  0.82947858077E+02  0.47000000000E+01 0. -1.
        -11    1    4    4    0    0 -0.33187557769E+02 -0.64550709455E+02  0.42625825602E+02  0.84173446467E+02  0.00000000000E+00 0.  1.
         12    1    4    4    0    0  0.34197533686E+01  0.53325841852E+01  0.64953762669E+02  0.65261952561E+02  0.00000000000E+00 0. -1.
         -5    1    5    5    0  502  0.86712768625E+01  0.46205668780E+02  0.38471744052E+03  0.38760773200E+03  0.47000000000E+01 0.  1.
         13    1    6    6    0    0 -0.40145776853E+02 -0.34422405741E+02  0.55184108871E+02  0.76432135179E+02  0.00000000000E+00 0. -1.
        -14    1    6    6    0    0 -0.12391638376E+02  0.34173880362E+02  0.98587745688E+02  0.10507592684E+03  0.00000000000E+00 0.  1.
</event>
<event>
12    1  0.1615162E-001  0.1872994E+03  0.7818608E-02  0.1161280E+00
         21   -1    0    0  501  502  0.00000000000E+00  0.00000000000E+00  0.13913967833E+03  0.13913967833E+03  0.00000000000E+00 0. -1.
         21   -1    0    0  502  503 -0.00000000000E+00 -0.00000000000E+00 -0.40867322075E+03  0.40867322075E+03  0.00000000000E+00 0. -1.
         -6    2    1    2    0  503 -0.58030080108E+02 -0.46636496537E+02 -0.30576539965E+03  0.35857151235E+03  0.17186796340E+03 0.  0.
        -24    2    3    3    0    0 -0.10044322060E+03 -0.14004908996E+02 -0.17523105852E+03  0.21741557304E+03  0.79237803408E+02 0.  0.
          6    2    1    2  501    0  0.58030080108E+02  0.46636496537E+02  0.36231857224E+02  0.18924138673E+03  0.17016786409E+03 0.  0.
         24    2    5    5    0    0  0.27361017212E+02 -0.37988139101E+02  0.12627514314E+01  0.92562284876E+02  0.79840203312E+02 0.  0.
          5    1    5    5  501    0  0.30669062896E+02  0.84624635638E+02  0.34969105793E+02  0.96679101857E+02  0.47000000000E+01 0. -1.
        -11    1    6    6    0    0  0.14764686464E+02  0.20618302852E+02 -0.16240681831E+02  0.30114284405E+02  0.00000000000E+00 0.  1.
         12    1    6    6    0    0  0.12596330748E+02 -0.58606441954E+02  0.17503433262E+02  0.62448000470E+02  0.00000000000E+00 0. -1.
         -5    1    3    3    0  503  0.42413140488E+02 -0.32631587541E+02 -0.13053434113E+03  0.14115593932E+03  0.47000000000E+01 0.  1.
         11    1    4    4    0    0 -0.89739700911E+02 -0.77537681627E+00 -0.17877268337E+03  0.20003371577E+03  0.00000000000E+00 0. -1.
        -12    1    4    4    0    0 -0.10703519685E+02 -0.13229532179E+02  0.35416248452E+01  0.17381857262E+02  0.00000000000E+00 0.  1.
</event>
<event>
12    1  0.1615162E-001  0.1971493E+03  0.7818608E-02  0.1152350E+00
         21   -1    0    0  503  502  0.00000000000E+00  0.00000000000E+00  0.13100096910E+04  0.13100096910E+04  0.00000000000E+00 0.  1.
         21   -1    0    0  501  503 -0.00000000000E+00 -0.00000000000E+00 -0.29542911503E+02  0.29542911503E+02  0.00000000000E+00 0. -1.
          6    2    1    2  501    0 -0.61786657551E+02 -0.72500370999E+02  0.64206413557E+03  0.67140158109E+03  0.17163867297E+03 0.  0.
         24    2    3    3    0    0 -0.66013889898E+02 -0.22800365819E+02  0.58957881827E+03  0.59884292523E+03  0.78306933312E+02 0.  0.
         -6    2    1    2    0  502  0.61786657551E+02  0.72500370999E+02  0.63840264393E+03  0.66815102142E+03  0.17260926046E+03 0.  0.
        -24    2    5    5    0    0 -0.87541303414E+01  0.65790964181E+02  0.21567333755E+03  0.23949827691E+03  0.80245562798E+02 0.  0.
          5    1    3    3  501    0  0.42272323474E+01 -0.49700005180E+02  0.52485317305E+02  0.72558655865E+02  0.47000000000E+01 0. -1.
        -13    1    4    4    0    0 -0.26666842933E+02 -0.20198974837E+02  0.49816140925E+03  0.49928339524E+03  0.00000000000E+00 0.  1.
         14    1    4    4    0    0 -0.39347046965E+02 -0.26013909819E+01  0.91417409018E+02  0.99559529988E+02  0.00000000000E+00 0. -1.
         -5    1    5    5    0  502  0.70540787892E+02  0.67094068188E+01  0.42272930638E+03  0.42865274450E+03  0.47000000000E+01 0.  1.
         11    1    6    6    0    0 -0.98537399914E+01  0.83417286363E+02  0.19491568696E+03  0.21224435181E+03  0.00000000000E+00 0. -1.
        -12    1    6    6    0    0  0.10996096501E+01 -0.17626322183E+02  0.20757650592E+02  0.27253925096E+02  0.00000000000E+00 0.  1.
</event>
<event>
12    1  0.1615162E-001  0.1886076E+03  0.7818608E-02  0.1159934E+00
         21   -1    0    0  501  502  0.00000000000E+00  0.00000000000E+00  0.62252534031E+03  0.62252534031E+03  0.00000000000E+00 0.  1.
         21   -1    0    0  502  503 -0.00000000000E+00 -0.00000000000E+00 -0.57744490444E+02  0.57744490444E+02  0.00000000000E+00 0.  1.
         -6    2    1    2    0  503 -0.29854381387E+02 -0.70465257975E+02  0.23968923991E+03  0.30442761922E+03  0.17137271353E+03 0.  0.
        -24    2    3    3    0    0 -0.75705388829E+00 -0.70184715626E+02  0.60994801101E+02  0.12331846530E+03  0.80997596776E+02 0.  0.
          6    2    1    2  501    0  0.29854381387E+02  0.70465257975E+02  0.32509160995E+03  0.37584221153E+03  0.17238380562E+03 0.  0.
         24    2    5    5    0    0  0.85683005917E+02  0.35570872508E+02  0.18186748686E+03  0.21814093415E+03  0.76829811275E+02 0.  0.
          5    1    5    5  501    0 -0.55828624530E+02  0.34894385467E+02  0.14322412309E+03  0.15770127738E+03  0.47000000000E+01 0. -1.
        -13    1    6    6    0    0  0.61539273635E+02  0.16994259462E+02  0.17586144805E+03  0.18709125037E+03  0.00000000000E+00 0.  1.
         14    1    6    6    0    0  0.24143732282E+02  0.18576613046E+02  0.60060388119E+01  0.31049683782E+02  0.00000000000E+00 0. -1.
         -5    1    3    3    0  503 -0.29097327499E+02 -0.28054234856E+00  0.17869443881E+03  0.18110915392E+03  0.47000000000E+01 0.  1.
         11    1    4    4    0    0  0.12742002543E+02 -0.38616727482E+02  0.75729731179E+02  0.85956980255E+02  0.00000000000E+00 0. -1.
        -12    1    4    4    0    0 -0.13499056431E+02 -0.31567988144E+02 -0.14734930078E+02  0.37361485040E+02  0.00000000000E+00 0.  1.
</event>
<event>
12    1  0.1615162E-001  0.1867020E+03  0.7818608E-02  0.1161574E+00
         21   -1    0    0  503  502  0.00000000000E+00  0.00000000000E+00  0.18237166248E+02  0.18237166248E+02  0.00000000000E+00 0.  1.
         21   -1    0    0  501  503 -0.00000000000E+00 -0.00000000000E+00 -0.19116885300E+04  0.19116885300E+04  0.00000000000E+00 0.  1.
          6    2    1    2  501    0  0.57796588166E+01 -0.73685163459E+02 -0.89874142778E+03  0.91792908182E+03  0.17144893547E+03 0.  0.
         24    2    3    3    0    0 -0.47226683649E+02 -0.66847489518E+02 -0.38359435217E+03  0.39999566367E+03  0.78440789357E+02 0.  0.
         -6    2    1    2    0  502 -0.57796588166E+01  0.73685163459E+02 -0.99470993598E+03  0.10119966144E+04  0.17095725525E+03 0.  0.
        -24    2    5    5    0    0  0.37996131006E+02 -0.11496552102E+02 -0.51077683176E+03  0.51865536966E+03  0.80836525962E+02 0.  0.
          5    1    3    3  501    0  0.53006342465E+02 -0.68376739405E+01 -0.51514707561E+03  0.51793341815E+03  0.47000000000E+01 0. -1.
        -11    1    4    4    0    0  0.17376691408E+02 -0.21939229408E+02 -0.17169304959E+03  0.17395914023E+03  0.00000000000E+00 0.  1.
         12    1    4    4    0    0 -0.64603375057E+02 -0.44908260111E+02 -0.21190130259E+03  0.22603652345E+03  0.00000000000E+00 0. -1.
         -5    1    5    5    0  502 -0.43775789822E+02  0.85181715560E+02 -0.48393310422E+03  0.49334124478E+03  0.47000000000E+01 0.  1.
         11    1    6    6    0    0  0.13918169582E+01 -0.17576858086E+02 -0.42287852802E+03  0.42324594807E+03  0.00000000000E+00 0. -1.
        -12    1    6    6    0    0  0.36604314047E+02  0.60803059846E+01 -0.87898303737E+02  0.95409421587E+02  0.00000000000E+00 0.  1.
</event>
<event>
12    1  0.1615162E-001  0.1790713E+03  0.7818608E-02  0.1169153E+00
         21   -1    0    0  503  502  0.00000000000E+00  0.00000000000E+00  0.19001904368E+03  0.19001904368E+03  0.00000000000E+00 0. -1.
         21   -1    0    0  501  503 -0.00000000000E+00 -0.00000000000E+00 -0.21309808679E+03  0.21309808679E+03  0.00000000000E+00 0. -1.
          6    2    1    2  501    0  0.32638758435E+02 -0.30293079952E+02 -0.10529608822E+03  0.20773488359E+03  0.17344611965E+03 0.  0.
         24    2    3    3    0    0 -0.12390475665E+02 -0.65732049863E+01 -0.12776783882E+03  0.15190179334E+03  0.80949387093E+02 0.  0.
         -6    2    1    2    0  502 -0.32638758435E+02  0.30293079952E+02  0.82217045102E+02  0.19538224688E+03  0.17155646489E+03 0.  0.
        -24    2    5    5    0    0 -0.40447041199E+02  0.66191373826E+02  0.10376355178E+03  0.15253369110E+03  0.80513297862E+02 0.  0.
          5    1    3    3  501    0  0.45029234101E+02 -0.23719874965E+02  0.22471750606E+02  0.55833090255E+02  0.47000000000E+01 0. -1.
        -11    1    4    4    0    0  0.27954799409E+00  0.27539921005E+02 -0.11106213570E+02  0.29696352906E+02  0.00000000000E+00 0.  1.
         12    1    4    4    0    0 -0.12670023659E+02 -0.34113125991E+02 -0.11666162525E+03  0.12220544043E+03  0.00000000000E+00 0. -1.
         -5    1    5    5    0  502  0.78082827638E+01 -0.35898293874E+02 -0.21546506674E+02  0.42848555782E+02  0.47000000000E+01 0.  1.
         13    1    6    6    0    0 -0.64131544173E+02  0.43783136347E+02  0.60932864508E+02  0.98704771736E+02  0.00000000000E+00 0. -1.
        -14    1    6    6    0    0  0.23684502973E+02  0.22408237479E+02  0.42830687268E+02  0.53828919364E+02  0.00000000000E+00 0.  1.
</event>
<event>
12    1  0.1615162E-001  0.2054691E+03  0.7818608E-02  0.1146407E+00
         21   -1    0    0  503  502  0.00000000000E+00  0.00000000000E+00  0.17361999447E+04  0.17361999447E+04  0.00000000000E+00 0.  1.
         21   -1    0    0  501  503 -0.00000000000E+00 -0.00000000000E+00 -0.83461530173E+02  0.83461530173E+02  0.00000000000E+00 0. -1.
          6    2    1    2  501    0  0.43662551143E+01 -0.10816798628E+03  0.52714569933E+02  0.20649879409E+03  0.16776039056E+03 0.  0.
         24    2    3    3    0    0  0.13371952626E+02 -0.71524833979E+02  0.98517180292E+02  0.14696903420E+03  0.81238237345E+02 0.  0.
         -6    2    1    2    0  502 -0.43662551143E+01  0.10816798628E+03  0.16000238445E+04  0.16131626807E+04  0.17463720665E+03 0.  0.
        -24    2    5    5    0    0 -0.15091990334E+02  0.14442788022E+03  0.13856943920E+04  0.13954724753E+04  0.78149219997E+02 0.  0.
          5    1    3    3  501    0 -0.90056975122E+01 -0.36643152297E+02 -0.45802610359E+02  0.59529759899E+02  0.47000000000E+01 0. -1.
        -13    1    4    4    0    0  0.42004831317E+02 -0.68085558795E+02  0.76456289220E+02  0.11065989938E+03  0.00000000000E+00 0.  1.
         14    1    4    4    0    0 -0.28632878690E+02 -0.34392751842E+01  0.22060891071E+02  0.36309134811E+02  0.00000000000E+00 0. -1.
         -5    1    5    5    0  502  0.10725735219E+02 -0.36259893947E+02  0.21432945259E+03  0.21769020545E+03  0.47000000000E+01 0.  1.
         11    1    6    6    0    0 -0.32912708188E+02  0.81398183530E+02  0.52517283212E+03  0.53246165518E+03  0.00000000000E+00 0. -1.
        -12    1    6    6    0    0  0.17820717854E+02  0.63029696693E+02  0.86052155984E+03  0.86301082010E+03  0.00000000000E+00 0.  1.
</event>
<event>
12    1  0.1615162E-001  0.1809156E+03  0.7818608E-02  0.1167079E+00
         21   -1    0    0  501  502  0.00000000000E+00  0.00000000000E+00  0.69043923041E+02  0.69043923041E+02  0.00000000000E+00 0. -1.
         21   -1    0    0  502  503 -0.00000000000E+00 -0.00000000000E+00 -0.62122317900E+03  0.62122317900E+03  0.00000000000E+00 0. -1.
         -6    2    1    2    0  503  0.10367803692E+02  0.55157430367E+02 -0.44544127778E+03  0.48077892082E+03  0.17199013133E+03 0.  0.
        -24    2    3    3    0    0  0.47013565595E+02  0.16759086165E+02 -0.39990998728E+03  0.41068945572E+03  0.79035996835E+02 0.  0.
          6    2    1    2  501    0 -0.10367803692E+02 -0.55157430367E+02 -0.10673797818E+03  0.20948818122E+03  0.17129643490E+03 0.  0.
         24    2    5    5    0    0 -0.12809657752E+02  0.20237255545E+02 -0.10460689184E+03  0.13387764727E+03  0.80043667930E+02 0.  0.
          5    1    5    5  501    0  0.24418540595E+01 -0.75394685912E+02 -0.21310863394E+01  0.75610533949E+02  0.47000000000E+01 0. -1.
        -13    1    6    6    0    0 -0.26615309880E+02  0.13314976233E+02 -0.11261505675E+03  0.11648096119E+03  0.00000000000E+00 0.  1.
         14    1    6    6    0    0  0.13805652128E+02  0.69222793122E+01  0.80081649120E+01  0.17396686087E+02  0.00000000000E+00 0. -1.
         -5    1    3    3    0  503 -0.36645761902E+02  0.38398344202E+02 -0.45531290504E+02  0.70089465099E+02  0.47000000000E+01 0.  1.
         13    1    4    4    0    0 -0.21209679656E+02  0.12976777659E+02 -0.93109724733E+02  0.96372548526E+02  0.00000000000E+00 0. -1.
        -14    1    4    4    0    0  0.68223245251E+02  0.37823085054E+01 -0.30680026255E+03  0.31431690720E+03  0.00000000000E+00 0.  1.
</event>
<event>
12    1  0.1615162E-001  0.2898131E+03  0.7818608E-02  0.1091447E+00
         21   -1    0    0  503  502  0.00000000000E+00  0.00000000000E+00  0.52927685213E+02  0.52927685213E+02  0.00000000000E+00 0. -1.
         21   -1    0    0  501  503 -0.00000000000E+00 -0.00000000000E+00 -0.17947509163E+04  0.17947509163E+04  0.00000000000E+00 0. -1.
          6    2    1    2  501    0 -0.19923016882E+03 -0.10220022764E+03 -0.12248427208E+04  0.12586625149E+04  0.18399480672E+03 0.  0.
         24    2    3    3    0    0 -0.13800529932E+03 -0.95153222381E+02 -0.11308190566E+04  0.11461428083E+04  0.82413590784E+02 0.  0.
         -6    2    1    2    0  502  0.19923016882E+03  0.10220022764E+03 -0.51698051022E+03  0.58901608659E+03  0.17185329681E+03 0.  0.
        -24    2    5    5    0    0  0.16795427664E+03  0.50648350333E+02 -0.48171071152E+03  0.51900304362E+03  0.80901515836E+02 0.  0.
          5    1    3    3  501    0 -0.61224869503E+02 -0.70470052610E+01 -0.94023664274E+02  0.11251970660E+03  0.47000000000E+01 0. -1.
        -13    1    4    4    0    0 -0.31837171237E+02  0.59316348603E+01 -0.10438111166E+03  0.10928955227E+03  0.00000000000E+00 0.  1.
         14    1    4    4    0    0 -0.10616812808E+03 -0.10108485724E+03 -0.10264379449E+04  0.10368532560E+04  0.00000000000E+00 0. -1.
         -5    1    5    5    0  502  0.31275892179E+02  0.51551877309E+02 -0.35269798697E+02  0.70013042969E+02  0.47000000000E+01 0.  1.
         13    1    6    6    0    0  0.32690836091E+02  0.38718749990E+02 -0.19933034331E+03  0.20567065451E+03  0.00000000000E+00 0. -1.
        -14    1    6    6    0    0  0.13526344055E+03  0.11929600344E+02 -0.28238036821E+03  0.31333238911E+03  0.00000000000E+00 0.  1.
</event>
<event>
12    1  0.1615162E-001  0.3072619E+03  0.7818608E-02  0.1081874E+00
         21   -1    0    0  503  502  0.00000000000E+00  0.00000000000E+00  0.13948869176E+04  0.13948869176E+04  0.00000000000E+00 0. -1.
         21   -1    0    0  501  503 -0.00000000000E+00 -0.00000000000E+00 -0.97864300623E+02  0.97864300623E+02  0.00000000000E+00 0.  1.
          6    2    1    2  501    0  0.20806562432E+03  0.14644527179E+03  0.23268830982E+03  0.38542666751E+03  0.17225662497E+03 0.  0.
         24    2    3    3    0    0  0.87130102585E+02  0.12624790372E+03  0.18536226859E+03  0.25391553386E+03  0.81140247406E+02 0.  0.
         -6    2    1    2    0  502 -0.20806562432E+03 -0.14644527179E+03  0.10643343071E+04  0.11073245507E+04  0.16918221410E+03 0.  0.
        -24    2    5    5    0    0 -0.81884332843E+02 -0.82937512852E+02  0.74383555708E+03  0.75704395952E+03  0.78997124428E+02 0.  0.
          5    1    3    3  501    0  0.12093552173E+03  0.20197368072E+02  0.47326041229E+02  0.13151113364E+03  0.47000000000E+01 0. -1.
        -13    1    4    4    0    0  0.33009720026E+02  0.35300577436E+02  0.10401541306E+02  0.49436468776E+02  0.00000000000E+00 0.  1.
         14    1    4    4    0    0  0.54120382559E+02  0.90947326286E+02  0.17496072728E+03  0.20447906509E+03  0.00000000000E+00 0. -1.
         -5    1    5    5    0  502 -0.12618129148E+03 -0.63507758942E+02  0.32049875006E+03  0.35028059118E+03  0.47000000000E+01 0.  1.
         13    1    6    6    0    0 -0.63450933380E+02 -0.32873853918E+02  0.58806201737E+03  0.59238808858E+03  0.00000000000E+00 0. -1.
        -14    1    6    6    0    0 -0.18433399464E+02 -0.50063658935E+02  0.15577353971E+03  0.16465587094E+03  0.00000000000E+00 0.  1.
</event>
<event>
12    1  0.1615162E-001  0.2788779E+03  0.7818608E-02  0.1096486E+00
         21   -1    0    0  503  502  0.00000000000E+00  0.00000000000E+00  0.78153185815E+03  0.78153185815E+03  0.00000000000E+00 0.  1.
         21   -1    0    0  501  503 -0.00000000000E+00 -0.00000000000E+00 -0.23327680653E+03  0.23327680653E+03  0.00000000000E+00 0. -1.
          6    2    1    2  501    0 -0.69311428699E+02 -0.20637605436E+03 -0.11105556655E+03  0.29894317780E+03  0.17215845821E+03 0.  0.
         24    2    3    3    0    0 -0.79592942535E+02 -0.15528507766E+03 -0.18636865788E+02  0.19273911160E+03  0.79702826359E+02 0.  0.
         -6    2    1    2    0  502  0.69311428699E+02  0.20637605436E+03  0.65931061817E+03  0.71586548688E+03  0.17429215161E+03 0.  0.
        -24    2    5    5    0    0  0.92907083401E+02  0.13273514551E+03  0.31872110486E+03  0.36657614414E+03  0.80898589397E+02 0.  0.
          5    1    3    3  501    0  0.10281513837E+02 -0.51090976696E+02 -0.92418700764E+02  0.10620406620E+03  0.47000000000E+01 0. -1.
        -13    1    4    4    0    0 -0.13294461455E+02 -0.11113527566E+03 -0.59900531059E+01  0.11208779121E+03  0.00000000000E+00 0.  1.
         14    1    4    4    0    0 -0.66298481081E+02 -0.44149801995E+02 -0.12646812682E+02  0.80651320391E+02  0.00000000000E+00 0. -1.
         -5    1    5    5    0  502 -0.23595654702E+02  0.73640908842E+02  0.34058951331E+03  0.34928934274E+03  0.47000000000E+01 0.  1.
         11    1    6    6    0    0  0.72593701384E+02  0.36686610233E+02  0.12059525993E+03  0.14546123046E+03  0.00000000000E+00 0. -1.
        -12    1    6    6    0    0  0.20313382017E+02  0.96048535280E+02  0.19812584493E+03  0.22111491367E+03  0.00000000000E+00 0.  1.
</event>
<event>
12    1  0.1615162E-001  0.1921031E+03  0.7818608E-02  0.1156898E+00
         21   -1    0    0  501  502  0.00000000000E+00  0.00000000000E+00  0.69260040423E+02  0.69260040423E+02  0.00000000000E+00 0.  1.
         21   -1    0    0  502  503 -0.00000000000E+00 -0.00000000000E+00 -0.52893061630E+03  0.52893061630E+03  0.00000000000E+00 0.  1.
         -6    2    1    2    0  503 -0.48483368321E+02 -0.70449397865E+02 -0.22723267379E+03  0.29755387066E+03  0.17201704346E+03 0.  0.
        -24    2    3    3    0    0 -0.33016353656E+02  0.91613322621E+01 -0.46153171380E+02  0.99087316580E+02  0.80710417302E+02 0.  0.
          6    2    1    2  501    0  0.48483368321E+02  0.70449397865E+02 -0.23243790208E+03  0.30063678606E+03  0.17041521102E+03 0.  0.
         24    2    5    5    0    0  0.73529389881E+02 -0.36449370607E+01 -0.10535927872E+03  0.15134398591E+03  0.79903489999E+02 0.  0.
          5    1    5    5  501    0 -0.25046021560E+02  0.74094334926E+02 -0.12707862336E+03  0.14929280016E+03  0.47000000000E+01 0. -1.
        -11    1    6    6    0    0  0.11323234504E+02  0.32955641809E+02 -0.47102751131E+02  0.58591459538E+02  0.00000000000E+00 0.  1.
         12    1    6    6    0    0  0.62206155377E+02 -0.36600578870E+02 -0.58256527594E+02  0.92752526368E+02  0.00000000000E+00 0. -1.
         -5    1    3    3    0  503 -0.15467014665E+02 -0.79610730127E+02 -0.18107950241E+03  0.19846655408E+03  0.47000000000E+01 0.  1.
         11    1    4    4    0    0 -0.56165511108E+02  0.22690540519E+02 -0.28193115619E+02  0.66815245531E+02  0.00000000000E+00 0. -1.
        -12    1    4    4    0    0  0.23149157452E+02 -0.13529208257E+02 -0.17960055761E+02  0.32272071049E+02  0.00000000000E+00 0.  1.
</event>
<event>
12    1  0.1615162E-001  0.2211282E+03  0.7818608E-02  0.1133081E+00
         21   -1    0    0  501  502  0.00000000000E+00  0.00000000000E+00  0.11887882025E+03  0.11887882025E+03  0.00000000000E+00 0. -1.
         21   -1    0    0  502  503 -0.00000000000E+00 -0.00000000000E+00 -0.42508067090E+03  0.42508067090E+03  0.00000000000E+00 0.  1.
         -6    2    1    2    0  503  0.12152478241E+03 -0.66397728298E+02 -0.10359134365E+03  0.24419014327E+03  0.17239700847E+03 0.  0.
        -24    2    3    3    0    0  0.12125966107E+03 -0.61918853513E+00 -0.33579634792E+02  0.14801002080E+03  0.77942835379E+02 0.  0.
          6    2    1    2  501    0 -0.12152478241E+03  0.66397728298E+02 -0.20261050700E+03  0.29976934788E+03  0.17214445480E+03 0.  0.
         24    2    5    5    0    0 -0.18245988791E+01  0.20787322745E+02 -0.41711367715E+02  0.94053363928E+02  0.81674690826E+02 0.  0.
          5    1    5    5  501    0 -0.11970018353E+03  0.45610405553E+02 -0.16089913928E+03  0.20571598395E+03  0.47000000000E+01 0. -1.
        -11    1    6    6    0    0  0.61549432328E+01  0.42534290705E+02  0.36371639945E+01  0.43130942187E+02  0.00000000000E+00 0.  1.
         12    1    6    6    0    0 -0.79795421119E+01 -0.21746967960E+02 -0.45348531709E+02  0.50922421741E+02  0.00000000000E+00 0. -1.
         -5    1    3    3    0  503  0.26512133852E+00 -0.65778539763E+02 -0.70011708855E+02  0.96180122476E+02  0.47000000000E+01 0.  1.
         11    1    4    4    0    0  0.58365535642E+02  0.37193829385E+02 -0.54711247435E+01  0.69425138826E+02  0.00000000000E+00 0. -1.
        -12    1    4    4    0    0  0.62894125427E+02 -0.37813017920E+02 -0.28108510049E+02  0.78584881972E+02  0.00000000000E+00 0.  1.
</event>
<event>
12    1  0.1615162E-001  0.3317968E+03  0.7818608E-02  0.1070412E+00
         21   -1    0    0  501  502  0.00000000000E+00  0.00000000000E+00  0.21330994174E+03  0.21330994174E+03  0.00000000000E+00 0.  1.
         21   -1    0    0  502  503 -0.00000000000E+00 -0.00000000000E+00 -0.51789921309E+03  0.51789921309E+03  0.00000000000E+00 0.  1.
         -6    2    1    2    0  503 -0.24402354165E+03  0.14352302326E+03 -0.17879335035E+03  0.37636594379E+03  0.17186597811E+03 0.  0.
        -24    2    3    3    0    0 -0.11745427571E+03  0.77086708998E+01 -0.49928492425E+02  0.15032709979E+03  0.79059800707E+02 0.  0.
          6    2    1    2  501    0  0.24402354165E+03 -0.14352302326E+03 -0.12579592100E+03  0.35484321103E+03  0.17303971680E+03 0.  0.
         24    2    5    5    0    0  0.15341481700E+03 -0.13263371828E+03 -0.14505516413E+03  0.26145409822E+03  0.78672965725E+02 0.  0.
          5    1    5    5  501    0  0.90608724648E+02 -0.10889304983E+02  0.19259243132E+02  0.93389112809E+02  0.47000000000E+01 0. -1.
        -13    1    6    6    0    0  0.10086382823E+03 -0.71719196075E+02 -0.41955647568E+02  0.13068064621E+03  0.00000000000E+00 0.  1.
         14    1    6    6    0    0  0.52550988776E+02 -0.60914522203E+02 -0.10309951656E+03  0.13077345202E+03  0.00000000000E+00 0. -1.
         -5    1    3    3    0  503 -0.12656926595E+03  0.13581435236E+03 -0.12886485792E+03  0.22603884400E+03  0.47000000000E+01 0.  1.
         13    1    4    4    0    0 -0.12344068412E+03  0.37600519496E+01 -0.27150930573E+02  0.12644727565E+03  0.00000000000E+00 0. -1.
        -14    1    4    4    0    0  0.59864084174E+01  0.39486189502E+01 -0.22777561852E+02  0.23879824147E+02  0.00000000000E+00 0.  1.
</event>
<event>
12    1  0.1615162E-001  0.1784974E+03  0.7818608E-02  0.1170130E+00
         21   -1    0    0  501  502  0.00000000000E+00  0.00000000000E+00  0.26227670629E+03  0.26227670629E+03  0.00000000000E+00 0. -1.
         21   -1    0    0  502  503 -0.00000000000E+00 -0.00000000000E+00 -0.12637816296E+03  0.12637816296E+03  0.00000000000E+00 0. -1.
         -6    2    1    2    0  503 -0.21641117093E+02  0.38387468971E+02  0.20720125803E+02  0.17622282399E+03  0.16936122448E+03 0.  0.
        -24    2    3    3    0    0  0.31268608999E+02  0.17505844985E+01 -0.32266547823E+02  0.92728045701E+02  0.81096053518E+02 0.  0.
          6    2    1    2  501    0  0.21641117093E+02 -0.38387468971E+02  0.11517841753E+03  0.21243204526E+03  0.17297216616E+03 0.  0.
         24    2    5    5    0    0  0.49806976786E+02 -0.61453871744E+02  0.35821362648E+02  0.12499631602E+03  0.89908818849E+02 0.  0.
          5    1    5    5  501    0 -0.28165859693E+02  0.23066402773E+02  0.79357054879E+02  0.87435729243E+02  0.47000000000E+01 0. -1.
        -13    1    6    6    0    0  0.70265120709E+02 -0.30879924501E+02  0.42310762949E+02  0.87641072488E+02  0.00000000000E+00 0.  1.
         14    1    6    6    0    0 -0.20458143923E+02 -0.30573947243E+02 -0.64894003012E+01  0.37355243528E+02  0.00000000000E+00 0. -1.
         -5    1    3    3    0  503 -0.52909726092E+02  0.36636884472E+02  0.52986673626E+02  0.83494778285E+02  0.47000000000E+01 0.  1.
         11    1    4    4    0    0  0.36512455571E+02  0.70982517945E+01  0.18408840706E+02  0.41502168696E+02  0.00000000000E+00 0. -1.
        -12    1    4    4    0    0 -0.52438465723E+01 -0.53476672960E+01 -0.50675388528E+02  0.51225877004E+02  0.00000000000E+00 0.  1.
</event>
<event>
12    1  0.1615162E-001  0.3115782E+03  0.7818608E-02  0.1079652E+00
         21   -1    0    0  503  502  0.00000000000E+00  0.00000000000E+00  0.77927905821E+02  0.77927905821E+02  0.00000000000E+00 0.  1.
         21   -1    0    0  501  503 -0.00000000000E+00 -0.00000000000E+00 -0.13000868423E+04  0.13000868423E+04  0.00000000000E+00 0.  1.
          6    2    1    2  501    0 -0.14670454517E+03  0.21435407765E+03 -0.46814113613E+03  0.56234961068E+03  0.17207866549E+03 0.  0.
         24    2    3    3    0    0 -0.12749349598E+03  0.14923623639E+03 -0.22296604792E+03  0.30790450552E+03  0.81026416835E+02 0.  0.
         -6    2    1    2    0  502  0.14670454517E+03 -0.21435407765E+03 -0.75401780035E+03  0.81566513744E+03  0.17116331093E+03 0.  0.
        -24    2    5    5    0    0  0.59769729629E+01 -0.90221398430E+02 -0.35830621506E+03  0.37768920161E+03  0.78039504893E+02 0.  0.
          5    1    3    3  501    0 -0.19211049188E+02  0.65117841256E+02 -0.24517508821E+03  0.25444510516E+03  0.47000000000E+01 0. -1.
        -13    1    4    4    0    0 -0.27826887038E+02  0.22345618129E+02 -0.96526589585E+02  0.10291280187E+03  0.00000000000E+00 0.  1.
         14    1    4    4    0    0 -0.99666608947E+02  0.12689061827E+03 -0.12643945834E+03  0.20499170365E+03  0.00000000000E+00 0. -1.
         -5    1    5    5    0  502  0.14072757221E+03 -0.12413267922E+03 -0.39571158529E+03  0.43797593583E+03  0.47000000000E+01 0.  1.
         11    1    6    6    0    0 -0.26065467910E+02 -0.76827528998E+02 -0.20436940263E+03  0.21988344768E+03  0.00000000000E+00 0. -1.
        -12    1    6    6    0    0  0.32042440873E+02 -0.13393869432E+02 -0.15393681242E+03  0.15780575393E+03  0.00000000000E+00 0.  1.
</event>
<event>
12    1  0.1615162E-001  0.2254524E+03  0.7818608E-02  0.1130133E+00
         21   -1    0    0  503  502  0.00000000000E+00  0.00000000000E+00  0.31413315139E+03  0.31413315139E+03  0.00000000000E+00 0. -1.
         21   -1    0    0  501  503 -0.00000000000E+00 -0.00000000000E+00 -0.16489246112E+03  0.16489246112E+03  0.00000000000E+00 0. -1.
          6    2    1    2  501    0  0.13369335972E+03 -0.50123097420E+02  0.37172793645E+02  0.22849636367E+03  0.17447788483E+03 0.  0.
         24    2    3    3    0    0  0.17835992031E+02  0.10519493880E+02  0.69593199165E+02  0.93686771203E+02  0.59204859304E+02 0.  0.
         -6    2    1    2    0  502 -0.13369335972E+03  0.50123097420E+02  0.11206789662E+03  0.25052924884E+03  0.17268309629E+03 0.  0.
        -24    2    5    5    0    0 -0.14345906052E+03  0.83336288772E+02  0.11165982687E+03  0.21559013733E+03  0.80534162356E+02 0.  0.
          5    1    3    3  501    0  0.11585736769E+03 -0.60642591300E+02 -0.32420405520E+02  0.13480959247E+03  0.47000000000E+01 0. -1.
        -11    1    4    4    0    0 -0.21832788985E+02  0.17584549327E+01  0.27950493939E+02  0.35510462543E+02  0.00000000000E+00 0.  1.
         12    1    4    4    0    0  0.39668781016E+02  0.87610389471E+01  0.41642705226E+02  0.58176308660E+02  0.00000000000E+00 0. -1.
         -5    1    5    5    0  502  0.97657008036E+01 -0.33213191352E+02  0.40806975018E+00  0.34939111507E+02  0.47000000000E+01 0.  1.
         13    1    6    6    0    0 -0.77766525455E+02  0.71200588241E+02  0.29084337490E+02  0.10937575113E+03  0.00000000000E+00 0. -1.
        -14    1    6    6    0    0 -0.65692535067E+02  0.12135700531E+02  0.82575489380E+02  0.10621438621E+03  0.00000000000E+00 0.  1.
</event>
<event>
12    1  0.1615162E-001  0.2178083E+03  0.7818608E-02  0.1135610E+00
         21   -1    0    0  501  502  0.00000000000E+00  0.00000000000E+00  0.15953314747E+03  0.15953314747E+03  0.00000000000E+00 0. -1.
         21   -1    0    0  502  503 -0.00000000000E+00 -0.00000000000E+00 -0.29707271848E+03  0.29707271848E+03  0.00000000000E+00 0.  1.
         -6    2    1    2    0  503  0.12989448758E+03 -0.28336897940E+02 -0.76064973660E+02  0.23070832180E+03  0.17252504699E+03 0.  0.
        -24    2    3    3    0    0  0.25041849037E+01  0.13485501927E+02  0.15589530500E+02  0.68227429136E+02  0.64990914142E+02 0.  0.
          6    2    1    2  501    0 -0.12989448758E+03  0.28336897940E+02 -0.61474597350E+02  0.22589754415E+03  0.17197388362E+03 0.  0.
         24    2    5    5    0    0 -0.59129318525E+02 -0.49874562367E+02 -0.32802069625E+02  0.11649486813E+03  0.80692814106E+02 0.  0.
          5    1    5    5  501    0 -0.70765169056E+02  0.78211460308E+02 -0.28672527725E+02  0.10940267602E+03  0.47000000000E+01 0. -1.
        -11    1    6    6    0    0  0.15910361760E+02 -0.27074666986E+02  0.20766085460E+00  0.31404145057E+02  0.00000000000E+00 0.  1.
         12    1    6    6    0    0 -0.75039680285E+02 -0.22799895382E+02 -0.33009730479E+02  0.85090723073E+02  0.00000000000E+00 0. -1.
         -5    1    3    3    0  503  0.12739030268E+03 -0.41822399867E+02 -0.91654504160E+02  0.16248089266E+03  0.47000000000E+01 0.  1.
         13    1    4    4    0    0 -0.16543518138E+02 -0.10133696117E+02  0.29131169153E+02  0.35000068651E+02  0.00000000000E+00 0. -1.
        -14    1    4    4    0    0  0.19047703042E+02  0.23619198044E+02 -0.13541638652E+02  0.33227360485E+02  0.00000000000E+00 0.  1.
</event>
<event>
12    1  0.1615162E-001  0.2372971E+03  0.7818608E-02  0.1121754E+00
         21   -1    0    0  503  502  0.00000000000E+00  0.00000000000E+00  0.15521468669E+03  0.15521468669E+03  0.00000000000E+00 0. -1.
         21   -1    0    0  501  503 -0.00000000000E+00 -0.00000000000E+00 -0.64541574198E+03  0.64541574198E+03  0.00000000000E+00 0.  1.
          6    2    1    2  501    0  0.15356300532E+03 -0.53051144978E+02 -0.51087693514E+03  0.56329845647E+03  0.17295631707E+03 0.  0.
         24    2    3    3    0    0  0.17460546064E+03 -0.42856463376E+01 -0.38568774738E+03  0.42722758700E+03  0.57122140804E+02 0.  0.
         -6    2    1    2    0  502 -0.15356300532E+03  0.53051144978E+02  0.20675879844E+02  0.23733197221E+03  0.17176423504E+03 0.  0.
        -24    2    5    5    0    0 -0.74778856812E+02  0.33545541705E+02  0.76683572087E+02  0.13860830632E+03  0.81330877032E+02 0.  0.
          5    1    3    3  501    0 -0.21042455321E+02 -0.48765498640E+02 -0.12518918776E+03  0.13607086946E+03  0.47000000000E+01 0. -1.
        -13    1    4    4    0    0  0.71815287172E+02  0.22981261683E+02 -0.19181526999E+03  0.20610354597E+03  0.00000000000E+00 0.  1.
         14    1    4    4    0    0  0.10279017347E+03 -0.27266908021E+02 -0.19387247739E+03  0.22112404103E+03  0.00000000000E+00 0. -1.
         -5    1    5    5    0  502 -0.78784148509E+02  0.19505603273E+02 -0.56007692243E+02  0.98723665885E+02  0.47000000000E+01 0.  1.
         13    1    6    6    0    0  0.63285182193E+01  0.12097508272E+02  0.48064428424E+02  0.49965879648E+02  0.00000000000E+00 0. -1.
        -14    1    6    6    0    0 -0.81107375031E+02  0.21448033433E+02  0.28619143663E+02  0.88642426673E+02  0.00000000000E+00 0.  1.
</event>
<event>
12    1  0.1615162E-001  0.2703952E+03  0.7818608E-02  0.1101442E+00
         21   -1    0    0  501  502  0.00000000000E+00  0.00000000000E+00  0.14837578048E+03  0.14837578048E+03  0.00000000000E+00 0.  1.
         21   -1    0    0  502  503 -0.00000000000E+00 -0.00000000000E+00 -0.49940485476E+03  0.49940485476E+03  0.00000000000E+00 0. -1.
         -6    2    1    2    0  503  0.18265975115E+03 -0.93733064927E+02 -0.22565262612E+03  0.35218270748E+03  0.17596329055E+03 0.  0.
        -24    2    3    3    0    0  0.21140295640E+02 -0.55834850311E+02 -0.57392989493E+02  0.11583930372E+03  0.80995965550E+02 0.  0.
          6    2    1    2  501    0 -0.18265975115E+03  0.93733064927E+02 -0.12537644815E+03  0.29559792776E+03  0.17178011817E+03 0.  0.
         24    2    5    5    0    0 -0.15466727703E+03  0.21964521095E+02 -0.39314182169E+02  0.17999902588E+03  0.80309635951E+02 0.  0.
          5    1    5    5  501    0 -0.27992474118E+02  0.71768543832E+02 -0.86062265984E+02  0.11559890189E+03  0.47000000000E+01 0. -1.
        -13    1    6    6    0    0 -0.24481027093E+02  0.37906778332E+01  0.23649251704E+02  0.34248752271E+02  0.00000000000E+00 0.  1.
         14    1    6    6    0    0 -0.13018624994E+03  0.18173843261E+02 -0.62963433872E+02  0.14575027361E+03  0.00000000000E+00 0. -1.
         -5    1    3    3    0  503  0.16151945551E+03 -0.37898214616E+02 -0.16825963663E+03  0.23634340375E+03  0.47000000000E+01 0.  1.
         11    1    4    4    0    0  0.27408335644E+02 -0.67248375581E+02 -0.67662098620E+02  0.99255833434E+02  0.00000000000E+00 0. -1.
        -12    1    4    4    0    0 -0.62680400047E+01  0.11413525270E+02  0.10269109127E+02  0.16583470290E+02  0.00000000000E+00 0.  1.
</event>
<event>
12    1  0.1615162E-001  0.1808926E+03  0.7818608E-02  0.1167327E+00
         21   -1    0    0  503  502  0.00000000000E+00  0.00000000000E+00  0.14824936651E+03  0.14824936651E+03  0.00000000000E+00 0.  1.
         21   -1    0    0  501  503 -0.00000000000E+00 -0.00000000000E+00 -0.22379344560E+03  0.22379344560E+03  0.00000000000E+00 0.  1.
          6    2    1    2  501    0  0.52225516342E+02  0.20422025262E+02 -0.65765547018E+02  0.19247660277E+03  0.17198131226E+03 0.  0.
         24    2    3    3    0    0  0.92477820599E+00  0.59047369628E+02  0.58512781164E+00  0.10002020758E+03  0.80723308127E+02 0.  0.
         -6    2    1    2    0  502 -0.52225516342E+02 -0.20422025262E+02 -0.97785320774E+01  0.17956620935E+03  0.17030513843E+03 0.  0.
        -24    2    5    5    0    0  0.88774327192E+01 -0.61912403791E+02  0.11881033730E+02  0.10245428624E+03  0.80273079244E+02 0.  0.
          5    1    3    3  501    0  0.51300738136E+02 -0.38625344366E+02 -0.66350674830E+02  0.92456395187E+02  0.47000000000E+01 0. -1.
        -11    1    4    4    0    0 -0.11920838672E+02  0.16223048339E+02 -0.36663758583E+02  0.41827322237E+02  0.00000000000E+00 0.  1.
         12    1    4    4    0    0  0.12845616878E+02  0.42824321289E+02  0.37248886395E+02  0.58192885343E+02  0.00000000000E+00 0. -1.
         -5    1    5    5    0  502 -0.61102949061E+02  0.41490378529E+02 -0.21659565807E+02  0.77111923108E+02  0.47000000000E+01 0.  1.
         11    1    6    6    0    0  0.36062890684E+02 -0.21111243342E+02 -0.17491333687E+02  0.45300810523E+02  0.00000000000E+00 0. -1.
        -12    1    6    6    0    0 -0.27185457965E+02 -0.40801160449E+02  0.29372367416E+02  0.57153475716E+02  0.00000000000E+00 0.  1.
</event>
<event>
12    1  0.1615162E-001  0.2540928E+03  0.7818608E-02  0.1110898E+00
         21   -1    0    0  501  502  0.00000000000E+00  0.00000000000E+00  0.12564278289E+03  0.12564278289E+03  0.00000000000E+00 0.  1.
         21   -1    0    0  502  503 -0.00000000000E+00 -0.00000000000E+00 -0.54026867373E+03  0.54026867373E+03  0.00000000000E+00 0.  1.
         -6    2    1    2    0  503  0.39794646707E+02 -0.18657104827E+03 -0.28326774253E+03  0.37987276939E+03  0.16634403207E+03 0.  0.
        -24    2    3    3    0    0 -0.38160154194E+02 -0.95094724254E+02 -0.11980452660E+03  0.17692651591E+03  0.80316022618E+02 0.  0.
          6    2    1    2  501    0 -0.39794646707E+02  0.18657104827E+03 -0.13135814830E+03  0.28603868723E+03  0.16784158456E+03 0.  0.
         24    2    5    5    0    0 -0.34409441411E+02  0.32661822372E+02 -0.16241793243E+02  0.93708462213E+02  0.79162337912E+02 0.  0.
          5    1    5    5  501    0 -0.53852052956E+01  0.15390922590E+03 -0.11511635506E+03  0.19233022502E+03  0.47000000000E+01 0. -1.
        -13    1    6    6    0    0 -0.57617290902E+02  0.12978642523E+02 -0.21449448253E+02  0.62835310161E+02  0.00000000000E+00 0.  1.
         14    1    6    6    0    0  0.23207849491E+02  0.19683179849E+02  0.52076550106E+01  0.30873152052E+02  0.00000000000E+00 0. -1.
         -5    1    3    3    0  503  0.77954800901E+02 -0.91476324016E+02 -0.16346321593E+03  0.20294625348E+03  0.47000000000E+01 0.  1.
         11    1    4    4    0    0 -0.31232279380E+02  0.13686467961E+00 -0.13469383292E+02  0.34013207633E+02  0.00000000000E+00 0. -1.
        -12    1    4    4    0    0 -0.69278748134E+01 -0.95231588933E+02 -0.10633514331E+03  0.14291330828E+03  0.00000000000E+00 0.  1.
</event>
<event>
12    1  0.1615162E-001  0.3002279E+03  0.7818608E-02  0.1085245E+00
         21   -1    0    0  501  502  0.00000000000E+00  0.00000000000E+00  0.14642689512E+04  0.14642689512E+04  0.00000000000E+00 0. -1.
         21   -1    0    0  502  503 -0.00000000000E+00 -0.00000000000E+00 -0.24343831999E+03  0.24343831999E+03  0.00000000000E+00 0.  1.
         -6    2    1    2    0  503 -0.14956755844E+03 -0.19386052597E+03 -0.12777884486E+03  0.32628857935E+03  0.17373671390E+03 0.  0.
        -24    2    3    3    0    0 -0.14993963843E+03 -0.20500009122E+03 -0.78015424832E+02  0.27507611671E+03  0.71228722410E+02 0.  0.
          6    2    1    2  501    0  0.14956755844E+03  0.19386052597E+03  0.13486094761E+04  0.13814186919E+04  0.17209801031E+03 0.  0.
         24    2    5    5    0    0  0.36287026436E+02  0.55991741618E+02  0.73595896119E+03  0.74329407704E+03  0.79991680772E+02 0.  0.
          5    1    5    5  501    0  0.11328053201E+03  0.13786878435E+03  0.61265051493E+03  0.63812461485E+03  0.47000000000E+01 0. -1.
        -13    1    6    6    0    0  0.34876843832E+02 -0.10383946091E+02  0.20555918237E+03  0.20875535449E+03  0.00000000000E+00 0.  1.
         14    1    6    6    0    0  0.14101826037E+01  0.66375687709E+02  0.53039977882E+03  0.53453872255E+03  0.00000000000E+00 0. -1.
         -5    1    3    3    0  503  0.37207999263E+00  0.11139565253E+02 -0.49763420026E+02  0.51212462645E+02  0.47000000000E+01 0.  1.
         13    1    4    4    0    0 -0.17079375995E+02 -0.75507523413E+02 -0.13071314675E+02  0.78510830105E+02  0.00000000000E+00 0. -1.
        -14    1    4    4    0    0 -0.13286026244E+03 -0.12949256781E+03 -0.64944110157E+02  0.19656528660E+03  0.00000000000E+00 0.  1.
</event>
<event>
12    1  0.1615162E-001  0.2619896E+03  0.7818608E-02  0.1106305E+00
         21   -1    0    0  503  502  0.00000000000E+00  0.00000000000E+00  0.87762580032E+03  0.87762580032E+03  0.00000000000E+00 0.  1.
         21   -1    0    0  501  503 -0.00000000000E+00 -0.00000000000E+00 -0.80350259680E+02  0.80350259680E+02  0.00000000000E+00 0.  1.
          6    2    1    2  501    0  0.15005941633E+03  0.12775092159E+03  0.48697046544E+03  0.55186305462E+03  0.16903984871E+03 0.  0.
         24    2    3    3    0    0  0.16918899180E+02  0.53139051228E+02  0.26344974300E+03  0.28116593261E+03  0.80861033011E+02 0.  0.
         -6    2    1    2    0  502 -0.15005941633E+03 -0.12775092159E+03  0.31030507520E+03  0.40611300537E+03  0.17262794398E+03 0.  0.
        -24    2    5    5    0    0 -0.11682886031E+03 -0.16040060442E+03  0.26870363375E+03  0.34347881684E+03  0.79991989161E+02 0.  0.
          5    1    3    3  501    0  0.13314051715E+03  0.74611870360E+02  0.22352072244E+03  0.27069712201E+03  0.47000000000E+01 0. -1.
        -13    1    4    4    0    0  0.23951556561E+02  0.64248942073E+02  0.25795951049E+03  0.26691705204E+03  0.00000000000E+00 0.  1.
         14    1    4    4    0    0 -0.70326573810E+01 -0.11109890845E+02  0.54902325106E+01  0.14248880569E+02  0.00000000000E+00 0. -1.
         -5    1    5    5    0  502 -0.33230556027E+02  0.32649682827E+02  0.41601441445E+02  0.62634188530E+02  0.47000000000E+01 0.  1.
         13    1    6    6    0    0 -0.50990853972E+02 -0.92813747171E+02  0.20151890052E+03  0.22764956868E+03  0.00000000000E+00 0. -1.
        -14    1    6    6    0    0 -0.65838006335E+02 -0.67586857244E+02  0.67184733229E+02  0.11582924816E+03  0.00000000000E+00 0.  1.
</event>
<event>
12    1  0.1615162E-001  0.4679623E+03  0.7818608E-02  0.1022662E+00
         21   -1    0    0  503  502  0.00000000000E+00  0.00000000000E+00  0.23867750062E+03  0.23867750062E+03  0.00000000000E+00 0.  1.
         21   -1    0    0  501  503 -0.00000000000E+00 -0.00000000000E+00 -0.12416465154E+04  0.12416465154E+04  0.00000000000E+00 0.  1.
          6    2    1    2  501    0 -0.43343927649E+03 -0.32594762776E+02 -0.88138024642E+03  0.99682374541E+03  0.16701621374E+03 0.  0.
         24    2    3    3    0    0 -0.26209272674E+03  0.18901345277E+02 -0.42090469613E+03  0.50278800614E+03  0.81148984143E+02 0.  0.
         -6    2    1    2    0  502  0.43343927649E+03  0.32594762776E+02 -0.12158876834E+03  0.48350027059E+03  0.17336856148E+03 0.  0.
        -24    2    5    5    0    0  0.31108301842E+03  0.65179328684E+02 -0.13968273610E+03  0.35550695243E+03  0.76504491523E+02 0.  0.
          5    1    3    3  501    0 -0.17134654975E+03 -0.51496108052E+02 -0.46047555029E+03  0.49403573927E+03  0.47000000000E+01 0. -1.
        -11    1    4    4    0    0 -0.23503550600E+03 -0.58053889611E+01 -0.38727870983E+03  0.45305649836E+03  0.00000000000E+00 0.  1.
         12    1    4    4    0    0 -0.27057220739E+02  0.24706734238E+02 -0.33625986306E+02  0.49731507777E+02  0.00000000000E+00 0. -1.
         -5    1    5    5    0  502  0.12235625807E+03 -0.32584565908E+02  0.18093967766E+02  0.12799331816E+03  0.47000000000E+01 0.  1.
         11    1    6    6    0    0  0.86609761439E+02 -0.13789436721E+02 -0.51691819796E+02  0.10180099987E+03  0.00000000000E+00 0. -1.
        -12    1    6    6    0    0  0.22447325698E+03  0.78968765404E+02 -0.87990916307E+02  0.25370595256E+03  0.00000000000E+00 0.  1.
</event>
<event>
12    1  0.1615162E-001  0.1980539E+03  0.7818608E-02  0.1151613E+00
         21   -1    0    0  503  502  0.00000000000E+00  0.00000000000E+00  0.73498477848E+02  0.73498477848E+02  0.00000000000E+00 0. -1.
         21   -1    0    0  501  503 -0.00000000000E+00 -0.00000000000E+00 -0.56277727759E+03  0.56277727759E+03  0.00000000000E+00 0. -1.
          6    2    1    2  501    0 -0.42587060220E+02  0.86488442436E+02 -0.16832146749E+03  0.25912997360E+03  0.17182059954E+03 0.  0.
         24    2    3    3    0    0 -0.29549136674E+02 -0.13208921622E+02 -0.37093296390E+02  0.93744137623E+02  0.79777337716E+02 0.  0.
         -6    2    1    2    0  502  0.42587060220E+02 -0.86488442436E+02 -0.32095733225E+03  0.37714578184E+03  0.17300700350E+03 0.  0.
        -24    2    5    5    0    0  0.74737161015E+02 -0.82172988754E+02 -0.31615869513E+03  0.34401922090E+03  0.77812984310E+02 0.  0.
          5    1    3    3  501    0 -0.13037923546E+02  0.99697364057E+02 -0.13122817110E+03  0.16538583598E+03  0.47000000000E+01 0. -1.
        -11    1    4    4    0    0  0.10258115352E+02  0.21069361650E+02  0.77426059436E+01  0.24679847603E+02  0.00000000000E+00 0.  1.
         12    1    4    4    0    0 -0.39807252026E+02 -0.34278283271E+02 -0.44835902334E+02  0.69064290020E+02  0.00000000000E+00 0. -1.
         -5    1    5    5    0  502 -0.32150100795E+02 -0.43154536814E+01 -0.47986371260E+01  0.33126560942E+02  0.47000000000E+01 0.  1.
         13    1    6    6    0    0  0.61236886023E+02 -0.38310842560E+02 -0.10192734362E+03  0.12492741991E+03  0.00000000000E+00 0. -1.
        -14    1    6    6    0    0  0.13500274992E+02 -0.43862146195E+02 -0.21423135151E+03  0.21909180099E+03  0.00000000000E+00 0.  1.
</event>
<event>
12    1  0.1615162E-001  0.1862968E+03  0.7818608E-02  0.1162107E+00
         21   -1    0    0  503  502  0.00000000000E+00  0.00000000000E+00  0.34134790186E+03  0.34134790186E+03  0.00000000000E+00 0.  1.
         21   -1    0    0  501  503 -0.00000000000E+00 -0.00000000000E+00 -0.11004619296E+03  0.11004619296E+03  0.00000000000E+00 0.  1.
          6    2    1    2  501    0  0.52261819944E+02 -0.43650996997E+02  0.17982927477E+03  0.25811728225E+03  0.17218959308E+03 0.  0.
         24    2    3    3    0    0  0.48166429820E+02  0.30290871997E+02  0.14892681871E+03  0.17773554302E+03  0.78569612662E+02 0.  0.
         -6    2    1    2    0  502 -0.52261819944E+02  0.43650996997E+02  0.51472434124E+02  0.19327681257E+03  0.17340648039E+03 0.  0.
        -24    2    5    5    0    0 -0.17415916433E+02  0.92809205824E+02  0.45998274164E+02  0.13259054630E+03  0.80916925988E+02 0.  0.
          5    1    3    3  501    0  0.40953901249E+01 -0.73941868993E+02  0.30902456067E+02  0.80381739229E+02  0.47000000000E+01 0. -1.
        -11    1    4    4    0    0  0.19975403170E+02  0.13932532675E+02  0.14243476655E+03  0.14450188553E+03  0.00000000000E+00 0.  1.
         12    1    4    4    0    0  0.28191026650E+02  0.16358339322E+02  0.64920521543E+01  0.33233657489E+02  0.00000000000E+00 0. -1.
         -5    1    5    5    0  502 -0.34845903512E+02 -0.49158208827E+02  0.54741599599E+01  0.60686266271E+02  0.47000000000E+01 0.  1.
         13    1    6    6    0    0  0.70129223058E+01  0.63109575892E+02  0.63977572465E+02  0.90139499816E+02  0.00000000000E+00 0. -1.
        -14    1    6    6    0    0 -0.24428838739E+02  0.29699629932E+02 -0.17979298301E+02  0.42451046485E+02  0.00000000000E+00 0.  1.
</event>
<event>
12    1  0.1615162E-001  0.4051594E+03  0.7818608E-02  0.1042100E+00
         21   -1    0    0  501  502  0.00000000000E+00  0.00000000000E+00  0.68069154445E+03  0.68069154445E+03  0.00000000000E+00 0.  1.
         21   -1    0    0  502  503 -0.00000000000E+00 -0.00000000000E+00 -0.26007232335E+03  0.26007232335E+03  0.00000000000E+00 0. -1.
         -6    2    1    2    0  503  0.29548429204E+03 -0.21663139161E+03  0.81566143094E+02  0.41328825042E+03  0.17295668696E+03 0.  0.
        -24    2    3    3    0    0  0.23694775972E+03 -0.92832324055E+02  0.38402312245E+02  0.26962913642E+03  0.80393111602E+02 0.  0.
          6    2    1    2  501    0 -0.29548429204E+03  0.21663139161E+03  0.33905307800E+03  0.52747561738E+03  0.17039193218E+03 0.  0.
         24    2    5    5    0    0 -0.88923004893E+02  0.13510646431E+03  0.17177553022E+03  0.24941492776E+03  0.80869746569E+02 0.  0.
          5    1    5    5  501    0 -0.20656128715E+03  0.81524927303E+02  0.16727754778E+03  0.27806068962E+03  0.47000000000E+01 0. -1.
        -13    1    6    6    0    0 -0.85092788188E+02  0.61971441352E+02  0.12055017632E+03  0.16004245423E+03  0.00000000000E+00 0.  1.
         14    1    6    6    0    0 -0.38302167051E+01  0.73135022954E+02  0.51225353893E+02  0.89372473525E+02  0.00000000000E+00 0. -1.
         -5    1    3    3    0  503  0.58536532324E+02 -0.12379906755E+03  0.43163830849E+02  0.14365911401E+03  0.47000000000E+01 0.  1.
         11    1    4    4    0    0  0.31289280864E+02 -0.24163824990E+02 -0.21074064856E+02  0.44799840900E+02  0.00000000000E+00 0. -1.
        -12    1    4    4    0    0  0.20565847886E+03 -0.68668499065E+02  0.59476377101E+02  0.22482929552E+03  0.00000000000E+00 0.  1.
</event>
<event>
12    1  0.1615162E-001  0.2737786E+03  0.7818608E-02  0.1099216E+00
         21   -1    0    0  501  502  0.00000000000E+00  0.00000000000E+00  0.16506328434E+03  0.16506328434E+03  0.00000000000E+00 0. -1.
         21   -1    0    0  502  503 -0.00000000000E+00 -0.00000000000E+00 -0.46409939307E+03  0.46409939307E+03  0.00000000000E+00 0.  1.
         -6    2    1    2    0  503 -0.20731002622E+03 -0.48796550417E+02 -0.10106691078E+03  0.29130693817E+03  0.17113346099E+03 0.  0.
        -24    2    3    3    0    0 -0.16584827299E+03 -0.45159729547E+02 -0.13881912610E+03  0.23491879040E+03  0.79818779033E+02 0.  0.
          6    2    1    2  501    0  0.20731002622E+03  0.48796550417E+02 -0.19796919796E+03  0.33785573924E+03  0.17203530712E+03 0.  0.
         24    2    5    5    0    0  0.71217918564E+02 -0.15862809678E+02 -0.31078707042E+02  0.11296371944E+03  0.80444361039E+02 0.  0.
          5    1    5    5  501    0  0.13609210765E+03  0.64659360095E+02 -0.16689049091E+03  0.22489201980E+03  0.47000000000E+01 0. -1.
        -11    1    6    6    0    0  0.50668543951E+02  0.52061593691E+01 -0.55054720897E+02  0.75002851509E+02  0.00000000000E+00 0.  1.
         12    1    6    6    0    0  0.20549374613E+02 -0.21068969047E+02  0.23976013855E+02  0.37960867931E+02  0.00000000000E+00 0. -1.
         -5    1    3    3    0  503 -0.41461753232E+02 -0.36368208704E+01  0.37752215326E+02  0.56388147771E+02  0.47000000000E+01 0.  1.
         11    1    4    4    0    0 -0.78978760388E+02  0.18924233512E+02 -0.66716987747E+02  0.10510436556E+03  0.00000000000E+00 0. -1.
        -12    1    4    4    0    0 -0.86869512597E+02 -0.64083963059E+02 -0.72102138356E+02  0.12981442484E+03  0.00000000000E+00 0.  1.
</event>
<event>
12    1  0.1615162E-001  0.1771141E+03  0.7818608E-02  0.1171162E+00
         21   -1    0    0  503  502  0.00000000000E+00  0.00000000000E+00  0.11012813341E+03  0.11012813341E+03  0.00000000000E+00 0.  1.
         21   -1    0    0  501  503 -0.00000000000E+00 -0.00000000000E+00 -0.39050062298E+03  0.39050062298E+03  0.00000000000E+00 0.  1.
          6    2    1    2  501    0  0.29283483430E+02 -0.19123348548E+02 -0.27311833368E+03  0.32551965296E+03  0.17362659764E+03 0.  0.
         24    2    3    3    0    0  0.14808019461E+02  0.31907612730E+02 -0.25476407052E+03  0.26919322007E+03  0.79516570053E+02 0.  0.
         -6    2    1    2    0  502 -0.29283483430E+02  0.19123348548E+02 -0.72541558875E+01  0.17510910344E+03  0.17142739124E+03 0.  0.
        -24    2    5    5    0    0 -0.15665699158E+01 -0.48251376193E+02 -0.29450313092E+02  0.98804842589E+02  0.81021148671E+02 0.  0.
          5    1    3    3  501    0  0.14475463970E+02 -0.51030961278E+02 -0.18354263165E+02  0.56326432893E+02  0.47000000000E+01 0. -1.
        -13    1    4    4    0    0  0.33954845412E+02 -0.14343449343E+02 -0.10444159025E+03  0.11075518877E+03  0.00000000000E+00 0.  1.
         14    1    4    4    0    0 -0.19146825951E+02  0.46251062073E+02 -0.15032248027E+03  0.15843803130E+03  0.00000000000E+00 0. -1.
         -5    1    5    5    0  502 -0.27716913515E+02  0.67374724741E+02  0.22196157205E+02  0.76304260847E+02  0.47000000000E+01 0.  1.
         11    1    6    6    0    0 -0.21745427697E+02 -0.58892035036E+02 -0.15929148999E+01  0.62798668730E+02  0.00000000000E+00 0. -1.
        -12    1    6    6    0    0  0.20178857781E+02  0.10640658843E+02 -0.27857398192E+02  0.36006173859E+02  0.00000000000E+00 0.  1.
</event>
<event>
12    1  0.1615162E-001  0.2115402E+03  0.7818608E-02  0.1140413E+00
         21   -1    0    0  503  502  0.00000000000E+00  0.00000000000E+00  0.88387226489E+03  0.88387226489E+03  0.00000000000E+00 0.  1.
         21   -1    0    0  501  503 -0.00000000000E+00 -0.00000000000E+00 -0.67095318496E+02  0.67095318496E+02  0.00000000000E+00 0. -1.
          6    2    1    2  501    0 -0.58324121792E+01 -0.12262804806E+03  0.17207598572E+03  0.27244818072E+03  0.17189011347E+03 0.  0.
         24    2    3    3    0    0  0.46555289545E+02 -0.21506326148E+02  0.73325853915E+02  0.12163786122E+03  0.82396428201E+02 0.  0.
         -6    2    1    2    0  502  0.58324121792E+01  0.12262804806E+03  0.64470096067E+03  0.67851940267E+03  0.17227186627E+03 0.  0.
        -24    2    5    5    0    0  0.20900103208E+02 -0.53308548877E+01  0.27795563603E+03  0.28977174763E+03  0.79013276058E+02 0.  0.
          5    1    3    3  501    0 -0.52387701724E+02 -0.10112172191E+03  0.98750131808E+02  0.15081031950E+03  0.47000000000E+01 0. -1.
        -13    1    4    4    0    0 -0.12875895917E+02  0.13366498718E+02  0.42053053936E+02  0.45966415229E+02  0.00000000000E+00 0.  1.
         14    1    4    4    0    0  0.59431185462E+02 -0.34872824866E+02  0.31272799980E+02  0.75671445989E+02  0.00000000000E+00 0. -1.
         -5    1    5    5    0  502 -0.15067691028E+02  0.12795890295E+03  0.36674532464E+03  0.38874765504E+03  0.47000000000E+01 0.  1.
         13    1    6    6    0    0  0.33733386018E+01 -0.38420488991E+02  0.86796109474E+02  0.94979355691E+02  0.00000000000E+00 0. -1.
        -14    1    6    6    0    0  0.17526764606E+02  0.33089634104E+02  0.19115952656E+03  0.19479239193E+03  0.00000000000E+00 0.  1.
</event>
<event>
12    1  0.1615162E-001  0.1760684E+03  0.7818608E-02  0.1172380E+00
         21   -1    0    0  503  502  0.00000000000E+00  0.00000000000E+00  0.65243018023E+02  0.65243018023E+02  0.00000000000E+00 0.  1.
         21   -1    0    0  501  503 -0.00000000000E+00 -0.00000000000E+00 -0.46814054033E+03  0.46814054033E+03  0.00000000000E+00 0.  1.
          6    2    1    2  501    0  0.15044849923E+01  0.35426107992E+02 -0.18975786022E+03  0.25692631165E+03  0.16954589791E+03 0.  0.
         24    2    3    3    0    0 -0.13088017516E+02 -0.42179443686E+02 -0.80706012690E+02  0.12220453082E+03  0.80436839790E+02 0.  0.
         -6    2    1    2    0  502 -0.15044849923E+01 -0.35426107992E+02 -0.21313966208E+03  0.27645724670E+03  0.17246107126E+03 0.  0.
        -24    2    5    5    0    0 -0.33430376604E+02  0.27644367521E+02 -0.63281598087E+02  0.11069634425E+03  0.79795481318E+02 0.  0.
          5    1    3    3  501    0  0.14592502508E+02  0.77605551677E+02 -0.10905184753E+03  0.13472178083E+03  0.47000000000E+01 0. -1.
        -11    1    4    4    0    0 -0.28610556570E+01 -0.13756478463E+02  0.15763297993E+02  0.21116531505E+02  0.00000000000E+00 0.  1.
         12    1    4    4    0    0 -0.10226961859E+02 -0.28422965223E+02 -0.96469310683E+02  0.10108799931E+03  0.00000000000E+00 0. -1.
         -5    1    5    5    0  502  0.31925891611E+02 -0.63070475513E+02 -0.14985806400E+03  0.16576090245E+03  0.47000000000E+01 0.  1.
         11    1    6    6    0    0  0.18995237032E+02 -0.80597132731E+01  0.64128531316E+00  0.20644351644E+02  0.00000000000E+00 0. -1.
        -12    1    6    6    0    0 -0.52425613636E+02  0.35704080795E+02 -0.63922883400E+02  0.90051992607E+02  0.00000000000E+00 0.  1.
</event>
<event>
12    1  0.1615162E-001  0.2001971E+03  0.7818608E-02  0.1149578E+00
         21   -1    0    0  501  502  0.00000000000E+00  0.00000000000E+00  0.10891225812E+04  0.10891225812E+04  0.00000000000E+00 0. -1.
         21   -1    0    0  502  503 -0.00000000000E+00 -0.00000000000E+00 -0.36864530208E+02  0.36864530208E+02  0.00000000000E+00 0.  1.
         -6    2    1    2    0  503 -0.78633891828E+02 -0.65462469177E+02  0.50167219066E+03  0.54014244683E+03  0.17207629753E+03 0.  0.
        -24    2    3    3    0    0 -0.81023892949E+02  0.53534239557E+01  0.20193832768E+03  0.23211147202E+03  0.80641905236E+02 0.  0.
          6    2    1    2  501    0  0.78633891828E+02  0.65462469177E+02  0.55058586031E+03  0.58584466456E+03  0.17204812583E+03 0.  0.
         24    2    5    5    0    0 -0.27335427701E+02  0.40169539141E+02  0.24559377435E+03  0.26194423003E+03  0.77056214297E+02 0.  0.
          5    1    5    5  501    0  0.10596931953E+03  0.25292930036E+02  0.30499208596E+03  0.32390043453E+03  0.47000000000E+01 0. -1.
        -13    1    6    6    0    0 -0.49482428918E+02  0.81915721210E+01  0.16499454481E+03  0.17244944894E+03  0.00000000000E+00 0.  1.
         14    1    6    6    0    0  0.22147001218E+02  0.31977967020E+02  0.80599229547E+02  0.89494781084E+02  0.00000000000E+00 0. -1.
         -5    1    3    3    0  503  0.23900011209E+01 -0.70815893132E+02  0.29973386298E+03  0.30803097481E+03  0.47000000000E+01 0.  1.
         11    1    4    4    0    0 -0.35579361158E+02  0.64751613252E+01  0.17619889056E+03  0.17987180905E+03  0.00000000000E+00 0. -1.
        -12    1    4    4    0    0 -0.45444531791E+02 -0.11217373695E+01  0.25739437122E+02  0.52239662976E+02  0.00000000000E+00 0.  1.
</event>
<event>
12    1  0.1615162E-001  0.2072787E+03  0.7818608E-02  0.1143749E+00
         21   -1    0    0  501  502  0.00000000000E+00  0.00000000000E+00  0.22805892289E+03  0.22805892289E+03  0.00000000000E+00 0. -1.
         21   -1    0    0  502  503 -0.00000000000E+00 -0.00000000000E+00 -0.29689481889E+03  0.29689481889E+03  0.00000000000E+00 0. -1.
         -6    2    1    2    0  503 -0.11202992700E+03 -0.29652330195E+02  0.12428720634E+03  0.24168528067E+03  0.17185604442E+03 0.  0.
        -24    2    3    3    0    0 -0.62300680715E+02 -0.34538148800E+02  0.15138304549E+03  0.18464894436E+03  0.78129044867E+02 0.  0.
          6    2    1    2  501    0  0.11202992700E+03  0.29652330195E+02 -0.19312310233E+03  0.28326846111E+03  0.17179791377E+03 0.  0.
         24    2    5    5    0    0  0.44056057828E+02 -0.46423520534E+02 -0.10625635716E+03  0.14919421537E+03  0.82900066176E+02 0.  0.
          5    1    5    5  501    0  0.67973869176E+02  0.76075850729E+02 -0.86866745165E+02  0.13407424574E+03  0.47000000000E+01 0. -1.
        -13    1    6    6    0    0  0.25255671957E+01 -0.18838757746E+01  0.14025341094E+02  0.14374897231E+02  0.00000000000E+00 0.  1.
         14    1    6    6    0    0  0.41530490633E+02 -0.44539644759E+02 -0.12028169826E+03  0.13481931814E+03  0.00000000000E+00 0. -1.
         -5    1    3    3    0  503 -0.49729246289E+02  0.48858186050E+01 -0.27095839156E+02  0.57036336308E+02  0.47000000000E+01 0.  1.
         11    1    4    4    0    0 -0.53554673584E+02 -0.58983372580E+02  0.11071109962E+03  0.13639680671E+03  0.00000000000E+00 0. -1.
        -12    1    4    4    0    0 -0.87460071312E+01  0.24445223779E+02  0.40671945875E+02  0.48252137649E+02  0.00000000000E+00 0.  1.
</event>
<event>
12    1  0.1615162E-001  0.3093437E+03  0.7818608E-02  0.1080705E+00
         21   -1    0    0  503  502  0.00000000000E+00  0.00000000000E+00  0.83909424650E+03  0.83909424650E+03  0.00000000000E+00 0. -1.
         21   -1    0    0  501  503 -0.00000000000E+00 -0.00000000000E+00 -0.19652255259E+03  0.19652255259E+03  0.00000000000E+00 0.  1.
          6    2    1    2  501    0  0.25063761971E+03 -0.56246988050E+02 -0.14555634855E+02  0.30931804729E+03  0.17170570111E+03 0.  0.
         24    2    3    3    0    0  0.12302188311E+03 -0.69691270392E+02  0.44355720506E+02  0.16804114632E+03  0.79241024879E+02 0.  0.
         -6    2    1    2    0  502 -0.25063761971E+03  0.56246988050E+02  0.65712732877E+03  0.72629875181E+03  0.17236766107E+03 0.  0.
        -24    2    5    5    0    0 -0.12410444674E+03  0.23069764698E+02  0.50542584604E+03  0.52593208324E+03  0.72215944139E+02 0.  0.
          5    1    3    3  501    0  0.12761573661E+03  0.13444282342E+02 -0.58911355361E+02  0.14127690097E+03  0.47000000000E+01 0. -1.
        -13    1    4    4    0    0  0.65611416717E+02  0.36338198080E+00 -0.32997797199E+01  0.65695346839E+02  0.00000000000E+00 0.  1.
         14    1    4    4    0    0  0.57410466389E+02 -0.70054652373E+02  0.47655500226E+02  0.10234579948E+03  0.00000000000E+00 0. -1.
         -5    1    5    5    0  502 -0.12653317297E+03  0.33177223352E+02  0.15170148272E+03  0.20036666857E+03  0.47000000000E+01 0.  1.
         13    1    6    6    0    0 -0.50604124898E+02 -0.22383169295E+02  0.14267137036E+03  0.15302582673E+03  0.00000000000E+00 0. -1.
        -14    1    6    6    0    0 -0.73500321841E+02  0.45452933994E+02  0.36275447568E+03  0.37290625651E+03  0.00000000000E+00 0.  1.
</event>
<event>
12    1  0.1615162E-001  0.2233309E+03  0.7818608E-02  0.1131514E+00
         21   -1    0    0  501  502  0.00000000000E+00  0.00000000000E+00  0.12260169420E+03  0.12260169420E+03  0.00000000000E+00 0. -1.
         21   -1    0    0  502  503 -0.00000000000E+00 -0.00000000000E+00 -0.91925027999E+03  0.91925027999E+03  0.00000000000E+00 0.  1.
         -6    2    1    2    0  503 -0.12266412145E+03 -0.70067633754E+02 -0.78740476759E+03  0.81832981993E+03  0.17234113315E+03 0.  0.
        -24    2    3    3    0    0  0.44288043283E+01 -0.37240427057E+02 -0.23686149823E+03  0.25233492709E+03  0.78505301556E+02 0.  0.
          6    2    1    2  501    0  0.12266412145E+03  0.70067633754E+02 -0.92438181980E+01  0.22352215426E+03  0.17297614078E+03 0.  0.
         24    2    5    5    0    0  0.73448778125E+02 -0.27900774882E+02 -0.32125444408E+02  0.11142568720E+03  0.72183539281E+02 0.  0.
          5    1    5    5  501    0  0.49215343321E+02  0.97968408635E+02  0.22881626210E+02  0.11209646706E+03  0.47000000000E+01 0. -1.
        -11    1    6    6    0    0  0.17660490230E+02  0.15999351262E+02 -0.32665294012E+02  0.40433817392E+02  0.00000000000E+00 0.  1.
         12    1    6    6    0    0  0.55788287894E+02 -0.43900126144E+02  0.53984960425E+00  0.70991869811E+02  0.00000000000E+00 0. -1.
         -5    1    3    3    0  503 -0.12709292577E+03 -0.32827206696E+02 -0.55054326936E+03  0.56599489284E+03  0.47000000000E+01 0.  1.
         11    1    4    4    0    0 -0.25662407486E+02  0.12358493911E+02 -0.91257993446E+02  0.95599753648E+02  0.00000000000E+00 0. -1.
        -12    1    4    4    0    0  0.30091211815E+02 -0.49598920968E+02 -0.14560350478E+03  0.15673517345E+03  0.00000000000E+00 0.  1.
</event>
<event>
12    1  0.1615162E-001  0.2241984E+03  0.7818608E-02  0.1130870E+00
         21   -1    0    0  501  502  0.00000000000E+00  0.00000000000E+00  0.45000527384E+03  0.45000527384E+03  0.00000000000E+00 0.  1.
         21   -1    0    0  502  503 -0.00000000000E+00 -0.00000000000E+00 -0.11547466289E+03  0.11547466289E+03  0.00000000000E+00 0.  1.
         -6    2    1    2    0  503 -0.78417011742E+02 -0.12012286413E+03  0.11485677176E+03  0.25190669758E+03  0.17229676738E+03 0.  0.
        -24    2    3    3    0    0 -0.25668410747E+02 -0.12244370206E+03  0.33191793104E+02  0.15454623366E+03  0.84448302079E+02 0.  0.
          6    2    1    2  501    0  0.78417011742E+02  0.12012286413E+03  0.21967383919E+03  0.31357323915E+03  0.17173482602E+03 0.  0.
         24    2    5    5    0    0  0.85414431540E+02  0.28032077390E+02  0.17041815652E+03  0.20879781664E+03  0.80453450420E+02 0.  0.
          5    1    5    5  501    0 -0.69974197975E+01  0.92090786738E+02  0.49255682671E+02  0.10477542251E+03  0.47000000000E+01 0. -1.
        -11    1    6    6    0    0  0.88412494049E+02  0.42013466620E+02  0.11242607498E+03  0.14906885261E+03  0.00000000000E+00 0.  1.
         12    1    6    6    0    0 -0.29980625093E+01 -0.13981389230E+02  0.57992081540E+02  0.59728964038E+02  0.00000000000E+00 0. -1.
         -5    1    3    3    0  503 -0.52748600995E+02  0.23208379364E+01  0.81664978655E+02  0.97360463918E+02  0.47000000000E+01 0.  1.
         11    1    4    4    0    0  0.25957080432E+00  0.11602334844E+02 -0.52052249821E+01  0.12719116241E+02  0.00000000000E+00 0. -1.
        -12    1    4    4    0    0 -0.25927981551E+02 -0.13404603691E+03  0.38397018086E+02  0.14182711742E+03  0.00000000000E+00 0.  1.
</event>
<event>
12    1  0.1615162E-001  0.2943084E+03  0.7818608E-02  0.1088327E+00
         21   -1    0    0  503  502  0.00000000000E+00  0.00000000000E+00  0.70808865048E+03  0.70808865048E+03  0.00000000000E+00 0. -1.
         21   -1    0    0  501  503 -0.00000000000E+00 -0.00000000000E+00 -0.17077987147E+03  0.17077987147E+03  0.00000000000E+00 0. -1.
          6    2    1    2  501    0  0.13137935432E+03 -0.19709551286E+03  0.33507875094E+02  0.29620973923E+03  0.17467185231E+03 0.  0.
         24    2    3    3    0    0  0.60791855829E+02 -0.19867065311E+03  0.25952373087E+02  0.22504618381E+03  0.82502006251E+02 0.  0.
         -6    2    1    2    0  502 -0.13137935432E+03  0.19709551286E+03  0.50380090391E+03  0.58265878272E+03  0.17195560582E+03 0.  0.
        -24    2    5    5    0    0 -0.16559850449E+01  0.10714903523E+03  0.26274079219E+03  0.29447379208E+03  0.78730123207E+02 0.  0.
          5    1    3    3  501    0  0.70587498486E+02  0.15751402499E+01  0.75555020072E+01  0.71163555419E+02  0.47000000000E+01 0. -1.
        -11    1    4    4    0    0  0.51486702326E+01  0.55081760099E+01  0.10406602480E+02  0.12850921496E+02  0.00000000000E+00 0.  1.
         12    1    4    4    0    0  0.55643185597E+02 -0.20417882912E+03  0.15545770607E+02  0.21219526231E+03  0.00000000000E+00 0. -1.
         -5    1    5    5    0  502 -0.12972336927E+03  0.89946477626E+02  0.24106011172E+03  0.28818499065E+03  0.47000000000E+01 0.  1.
         13    1    6    6    0    0 -0.39321441436E+02  0.67941824022E+02  0.14941776764E+03  0.16878369736E+03  0.00000000000E+00 0. -1.
        -14    1    6    6    0    0  0.37665456391E+02  0.39207211212E+02  0.11332302456E+03  0.12569009472E+03  0.00000000000E+00 0.  1.
</event>
<event>
12    1  0.1615162E-001  0.2626965E+03  0.7818608E-02  0.1105549E+00
         21   -1    0    0  501  502  0.00000000000E+00  0.00000000000E+00  0.24149962402E+03  0.24149962402E+03  0.00000000000E+00 0. -1.
         21   -1    0    0  502  503 -0.00000000000E+00 -0.00000000000E+00 -0.45409601470E+03  0.45409601470E+03  0.00000000000E+00 0. -1.
         -6    2    1    2    0  503 -0.19767200940E+03 -0.16012491300E+02 -0.31814214460E+03  0.41258198386E+03  0.17227549464E+03 0.  0.
        -24    2    3    3    0    0 -0.14425483703E+03 -0.17420499386E+02 -0.31832966640E+03  0.35893963161E+03  0.79943422652E+02 0.  0.
          6    2    1    2  501    0  0.19767200940E+03  0.16012491300E+02  0.10554575392E+03  0.28301365486E+03  0.17212262921E+03 0.  0.
         24    2    5    5    0    0  0.35021274527E+02  0.35597401847E+02  0.65437594776E+02  0.11428433107E+03  0.79279031466E+02 0.  0.
          5    1    5    5  501    0  0.16265073487E+03 -0.19584910548E+02  0.40108159146E+02  0.16872932379E+03  0.47000000000E+01 0. -1.
        -11    1    6    6    0    0 -0.17363437060E+02 -0.16868523247E+01 -0.57397456224E+01  0.18365159871E+02  0.00000000000E+00 0.  1.
         12    1    6    6    0    0  0.52384711587E+02  0.37284254172E+02  0.71177340398E+02  0.95919171198E+02  0.00000000000E+00 0. -1.
         -5    1    3    3    0  503 -0.53417172366E+02  0.14080080865E+01  0.18752179196E+00  0.53642352249E+02  0.47000000000E+01 0.  1.
         13    1    4    4    0    0 -0.14416737784E+03 -0.22942025869E+02 -0.24349911869E+03  0.28390560084E+03  0.00000000000E+00 0. -1.
        -14    1    4    4    0    0 -0.87459193964E-01  0.55215264832E+01 -0.74830547707E+02  0.75034030772E+02  0.00000000000E+00 0.  1.
</event>
<event>
12    1  0.1615162E-001  0.3196686E+03  0.7818608E-02  0.1075816E+00
         21   -1    0    0  501  502  0.00000000000E+00  0.00000000000E+00  0.78498723055E+02  0.78498723055E+02  0.00000000000E+00 0.  1.
         21   -1    0    0  502  503 -0.00000000000E+00 -0.00000000000E+00 -0.14162661244E+04  0.14162661244E+04  0.00000000000E+00 0.  1.
         -6    2    1    2    0  503  0.26476954147E+03 -0.50332936158E+02 -0.88171038491E+03  0.93783035808E+03  0.17168652574E+03 0.  0.
        -24    2    3    3    0    0  0.11245313531E+03 -0.75235746673E+02 -0.34311117443E+03  0.37753433178E+03  0.80627342965E+02 0.  0.
          6    2    1    2  501    0 -0.26476954147E+03  0.50332936158E+02 -0.45605701640E+03  0.55693448934E+03  0.17190610419E+03 0.  0.
         24    2    5    5    0    0 -0.22102967903E+03  0.80567262978E+02 -0.28745818423E+03  0.38008724934E+03  0.80553749501E+02 0.  0.
          5    1    5    5  501    0 -0.43739862442E+02 -0.30234326820E+02 -0.16859883217E+03  0.17684724000E+03  0.47000000000E+01 0. -1.
        -11    1    6    6    0    0 -0.63015774340E+02  0.30601078418E+02 -0.14703103216E+03  0.16286662714E+03  0.00000000000E+00 0.  1.
         12    1    6    6    0    0 -0.15801390469E+03  0.49966184559E+02 -0.14042715206E+03  0.21722062221E+03  0.00000000000E+00 0. -1.
         -5    1    3    3    0  503  0.15231640616E+03  0.24902810515E+02 -0.53859921048E+03  0.56029602630E+03  0.47000000000E+01 0.  1.
         13    1    4    4    0    0  0.77683455991E+02 -0.37270046518E+02 -0.29407244787E+03  0.30643495280E+03  0.00000000000E+00 0. -1.
        -14    1    4    4    0    0  0.34769679319E+02 -0.37965700155E+02 -0.49038726561E+02  0.71099378977E+02  0.00000000000E+00 0.  1.
</event>
<event>
12    1  0.1615162E-001  0.2692465E+03  0.7818608E-02  0.1101851E+00
         21   -1    0    0  501  502  0.00000000000E+00  0.00000000000E+00  0.98695363785E+03  0.98695363785E+03  0.00000000000E+00 0. -1.
         21   -1    0    0  502  503 -0.00000000000E+00 -0.00000000000E+00 -0.13708187811E+03  0.13708187811E+03  0.00000000000E+00 0. -1.
         -6    2    1    2    0  503 -0.79725353317E+02 -0.19038969200E+03  0.40827529324E+02  0.27136543748E+03  0.17137078727E+03 0.  0.
        -24    2    3    3    0    0 -0.76089683081E+02 -0.16002006060E+03 -0.28774846896E+02  0.19519383264E+03  0.76658860018E+02 0.  0.
          6    2    1    2  501    0  0.79725353317E+02  0.19038969200E+03  0.80904423042E+03  0.85267007848E+03  0.17288530643E+03 0.  0.
         24    2    5    5    0    0  0.97445400812E+02  0.12855928905E+03  0.40017641337E+03  0.43874740379E+03  0.79592873839E+02 0.  0.
          5    1    5    5  501    0 -0.17720047495E+02  0.61830402946E+02  0.40886781705E+03  0.41392267470E+03  0.47000000000E+01 0. -1.
        -13    1    6    6    0    0  0.84711770785E+02  0.10513173287E+03  0.38517513735E+03  0.40815273097E+03  0.00000000000E+00 0.  1.
         14    1    6    6    0    0  0.12733630027E+02  0.23427556182E+02  0.15001276025E+02  0.30594672816E+02  0.00000000000E+00 0. -1.
         -5    1    3    3    0  503 -0.36356702357E+01 -0.30369631400E+02  0.69602376220E+02  0.76171604847E+02  0.47000000000E+01 0.  1.
         13    1    4    4    0    0 -0.56658535754E+01  0.29914544539E+01 -0.15914096861E+02  0.17155441568E+02  0.00000000000E+00 0. -1.
        -14    1    4    4    0    0 -0.70423829506E+02 -0.16301151505E+03 -0.12860750035E+02  0.17803839107E+03  0.00000000000E+00 0.  1.
</event>
<event>
12    1  0.1615162E-001  0.2023931E+03  0.7818608E-02  0.1147737E+00
         21   -1    0    0  503  502  0.00000000000E+00  0.00000000000E+00  0.77351501753E+03  0.77351501753E+03  0.00000000000E+00 0.  1.
         21   -1    0    0  501  503 -0.00000000000E+00 -0.00000000000E+00 -0.88563094892E+02  0.88563094892E+02  0.00000000000E+00 0.  1.
          6    2    1    2  501    0 -0.69287022287E+02  0.80865731812E+02  0.69164656308E+02  0.21388486120E+03  0.17211341066E+03 0.  0.
         24    2    3    3    0    0 -0.78131320499E+02  0.86266847750E+02 -0.24885949815E+01  0.14133369246E+03  0.80140796458E+02 0.  0.
         -6    2    1    2    0  502  0.69287022287E+02 -0.80865731812E+02  0.61578726633E+03  0.64819325123E+03  0.17210629135E+03 0.  0.
        -24    2    5    5    0    0  0.51400731426E+02 -0.97612231796E+02  0.28139004175E+03  0.31286660679E+03  0.80839192599E+02 0.  0.
          5    1    3    3  501    0  0.88442982113E+01 -0.54011159373E+01  0.71653251290E+02  0.72551168733E+02  0.47000000000E+01 0. -1.
        -11    1    4    4    0    0 -0.26000913949E+02 -0.11420302358E+02 -0.10595879953E+02  0.30310781978E+02  0.00000000000E+00 0.  1.
         12    1    4    4    0    0 -0.52130406550E+02  0.97687150107E+02  0.81072849720E+01  0.11102291049E+03  0.00000000000E+00 0. -1.
         -5    1    5    5    0  502  0.17886290861E+02  0.16746499984E+02  0.33439722458E+03  0.33532664444E+03  0.47000000000E+01 0.  1.
         11    1    6    6    0    0 -0.70836274260E+01 -0.66741748095E+01 -0.16563947857E+01  0.98724885710E+01  0.00000000000E+00 0. -1.
        -12    1    6    6    0    0  0.58484358852E+02 -0.90938056986E+02  0.28304643654E+03  0.30299411822E+03  0.00000000000E+00 0.  1.
</event>
<event>
12    1  0.1615162E-001  0.2066749E+03  0.7818608E-02  0.1144237E+00
         21   -1    0    0  501  502  0.00000000000E+00  0.00000000000E+00  0.47843954611E+03  0.47843954611E+03  0.00000000000E+00 0.  1.
         21   -1    0    0  502  503 -0.00000000000E+00 -0.00000000000E+00 -0.13340882581E+03  0.13340882581E+03  0.00000000000E+00 0.  1.
         -6    2    1    2    0  503 -0.94755364264E+02  0.62881437934E+02  0.34852385125E+03  0.40519549582E+03  0.17257421779E+03 0.  0.
        -24    2    3    3    0    0  0.12853899392E+02  0.41468500799E+02  0.20754419312E+03  0.22649009157E+03  0.79613505092E+02 0.  0.
          6    2    1    2  501    0  0.94755364264E+02 -0.62881437934E+02 -0.34931309619E+01  0.20665287610E+03  0.17251247765E+03 0.  0.
         24    2    5    5    0    0  0.82853520567E+01 -0.48454690547E+01 -0.46959217854E+02  0.93707635366E+02  0.80522215291E+02 0.  0.
          5    1    5    5  501    0  0.86470012207E+02 -0.58035968879E+02  0.43466086892E+02  0.11294524073E+03  0.47000000000E+01 0. -1.
        -11    1    6    6    0    0  0.23252112177E+02 -0.26502836139E+02  0.48543897834E+01  0.35589691545E+02  0.00000000000E+00 0.  1.
         12    1    6    6    0    0 -0.14966760120E+02  0.21657367085E+02 -0.51813607637E+02  0.58117943821E+02  0.00000000000E+00 0. -1.
         -5    1    3    3    0  503 -0.10760926366E+03  0.21412937134E+02  0.14097965813E+03  0.17870540425E+03  0.47000000000E+01 0.  1.
         11    1    4    4    0    0  0.43479557280E+02  0.29987623772E+02  0.88770091361E+02  0.10329500763E+03  0.00000000000E+00 0. -1.
        -12    1    4    4    0    0 -0.30625657889E+02  0.11480877027E+02  0.11877410176E+03  0.12319508394E+03  0.00000000000E+00 0.  1.
</event>
<event>
12    1  0.1615162E-001  0.1979760E+03  0.7818608E-02  0.1151620E+00
         21   -1    0    0  503  502  0.00000000000E+00  0.00000000000E+00  0.75861182903E+02  0.75861182903E+02  0.00000000000E+00 0. -1.
         21   -1    0    0  501  503 -0.00000000000E+00 -0.00000000000E+00 -0.14122544236E+04  0.14122544236E+04  0.00000000000E+00 0.  1.
          6    2    1    2  501    0 -0.90007481426E+02  0.37276743322E+02 -0.12618409010E+04  0.12772771572E+04  0.17234724982E+03 0.  0.
         24    2    3    3    0    0 -0.10138901605E+03  0.12709203767E+02 -0.55668169667E+03  0.57158267883E+03  0.79818487155E+02 0.  0.
         -6    2    1    2    0  502  0.90007481426E+02 -0.37276743322E+02 -0.74552339653E+02  0.21083844928E+03  0.17147564853E+03 0.  0.
        -24    2    5    5    0    0  0.10832739784E+03 -0.51242939896E+01 -0.12681512330E+02  0.13859242095E+03  0.85357805025E+02 0.  0.
          5    1    3    3  501    0  0.11381534627E+02  0.24567539555E+02 -0.70515920437E+03  0.70569447840E+03  0.47000000000E+01 0. -1.
        -11    1    4    4    0    0 -0.28011705133E+02  0.35925055110E+02 -0.30540669936E+03  0.30878555216E+03  0.00000000000E+00 0.  1.
         12    1    4    4    0    0 -0.73377310919E+02 -0.23215851343E+02 -0.25127499732E+03  0.26279712667E+03  0.00000000000E+00 0. -1.
         -5    1    5    5    0  502 -0.18319916412E+02 -0.32152449332E+02 -0.61870827322E+02  0.72246028327E+02  0.47000000000E+01 0.  1.
         11    1    6    6    0    0  0.38844644752E+02 -0.34500674509E+02  0.20922863376E+02  0.56008652718E+02  0.00000000000E+00 0. -1.
        -12    1    6    6    0    0  0.69482753086E+02  0.29376380519E+02 -0.33604375706E+02  0.82583768232E+02  0.00000000000E+00 0.  1.
</event>
<event>
12    1  0.1615162E-001  0.2801390E+03  0.7818608E-02  0.1095695E+00
         21   -1    0    0  501  502  0.00000000000E+00  0.00000000000E+00  0.25069972411E+03  0.25069972411E+03  0.00000000000E+00 0. -1.
         21   -1    0    0  502  503 -0.00000000000E+00 -0.00000000000E+00 -0.32911039598E+03  0.32911039598E+03  0.00000000000E+00 0. -1.
         -6    2    1    2    0  503  0.17537939311E+03  0.13287279563E+03 -0.10463943670E+03  0.29904392511E+03  0.17339188587E+03 0.  0.
        -24    2    3    3    0    0  0.16893350294E+03  0.12877368436E+03 -0.36393628061E+02  0.23021128307E+03  0.80941636312E+02 0.  0.
          6    2    1    2  501    0 -0.17537939311E+03 -0.13287279563E+03  0.26228764836E+02  0.28076619498E+03  0.17241982715E+03 0.  0.
         24    2    5    5    0    0 -0.18353996380E+03 -0.13245222239E+03 -0.13387227524E+02  0.24004410458E+03  0.78812719505E+02 0.  0.
          5    1    5    5  501    0  0.81605706938E+01 -0.42057323817E+00  0.39615992360E+02  0.40722090400E+02  0.47000000000E+01 0. -1.
        -13    1    6    6    0    0  0.55275876849E+01 -0.17382719437E+02  0.80597788963E+00  0.18258224476E+02  0.00000000000E+00 0.  1.
         14    1    6    6    0    0 -0.18906755149E+03 -0.11506950295E+03 -0.14193205414E+02  0.22178588011E+03  0.00000000000E+00 0. -1.
         -5    1    3    3    0  503  0.64458901662E+01  0.40991112638E+01 -0.68245808639E+02  0.68832642039E+02  0.47000000000E+01 0.  1.
         11    1    4    4    0    0  0.12576256543E+03  0.83369741004E+02 -0.61202254320E+02  0.16282644906E+03  0.00000000000E+00 0. -1.
        -12    1    4    4    0    0  0.43170937512E+02  0.45403943360E+02  0.24808626259E+02  0.67384834014E+02  0.00000000000E+00 0.  1.
</event>
<event>
12    1  0.1615162E-001  0.2138461E+03  0.7818608E-02  0.1138578E+00
         21   -1    0    0  501  502  0.00000000000E+00  0.00000000000E+00  0.12346788922E+03  0.12346788922E+03  0.00000000000E+00 0. -1.
         21   -1    0    0  502  503 -0.00000000000E+00 -0.00000000000E+00 -0.61688480112E+03  0.61688480112E+03  0.00000000000E+00 0. -1.
         -6    2    1    2    0  503 -0.92289695824E+02 -0.87211336015E+02 -0.48084183752E+03  0.52624995599E+03  0.17206666842E+03 0.  0.
        -24    2    3    3    0    0 -0.10709820419E+03 -0.11821642806E+03 -0.41880174286E+03  0.45517484784E+03  0.79649815309E+02 0.  0.
          6    2    1    2  501    0  0.92289695824E+02  0.87211336015E+02 -0.12575074380E+02  0.21410273435E+03  0.17192627279E+03 0.  0.
         24    2    5    5    0    0  0.10008356827E+03  0.10773700092E+03 -0.46326822268E+02  0.17356487731E+03  0.79715808787E+02 0.  0.
          5    1    5    5  501    0 -0.77938724504E+01 -0.20525664903E+02  0.33751747888E+02  0.40537857035E+02  0.47000000000E+01 0. -1.
        -11    1    6    6    0    0  0.37488031177E+02  0.12643553849E+02 -0.44718540346E+02  0.59707284196E+02  0.00000000000E+00 0.  1.
         12    1    6    6    0    0  0.62595537098E+02  0.95093447069E+02 -0.16082819220E+01  0.11385759312E+03  0.00000000000E+00 0. -1.
         -5    1    3    3    0  503  0.14808508371E+02  0.31005092043E+02 -0.62040094656E+02  0.71075108144E+02  0.47000000000E+01 0.  1.
         11    1    4    4    0    0 -0.27860565689E+02 -0.30498698288E+02 -0.22032504895E+03  0.22416402234E+03  0.00000000000E+00 0. -1.
        -12    1    4    4    0    0 -0.79237638506E+02 -0.87717729769E+02 -0.19847669392E+03  0.23101082550E+03  0.00000000000E+00 0.  1.
</event>
<event>
12    1  0.1615162E-001  0.1895766E+03  0.7818608E-02  0.1159124E+00
         21   -1    0    0  503  502  0.00000000000E+00  0.00000000000E+00  0.62492044022E+02  0.62492044022E+02  0.00000000000E+00 0. -1.
         21   -1    0    0  501  503 -0.00000000000E+00 -0.00000000000E+00 -0.57342968383E+03  0.57342968383E+03  0.00000000000E+00 0. -1.
          6    2    1    2  501    0  0.79360297321E+02  0.17713573492E+01 -0.27539916562E+03  0.33434110574E+03  0.17215713771E+03 0.  0.
         24    2    3    3    0    0  0.89433145462E+02  0.53911744331E+02 -0.15649962338E+03  0.20403656487E+03  0.78955835780E+02 0.  0.
         -6    2    1    2    0  502 -0.79360297321E+02 -0.17713573492E+01 -0.23553847419E+03  0.30158062211E+03  0.17079608987E+03 0.  0.
        -24    2    5    5    0    0  0.13062323535E+02  0.31847960389E+02 -0.13429188518E+03  0.16035328355E+03  0.80585037350E+02 0.  0.
          5    1    3    3  501    0 -0.10072848141E+02 -0.52140386982E+02 -0.11889954224E+03  0.13030454086E+03  0.47000000000E+01 0. -1.
        -13    1    4    4    0    0  0.27727417665E+02  0.61869421166E+02 -0.93493993824E+02  0.11548922827E+03  0.00000000000E+00 0.  1.
         14    1    4    4    0    0  0.61705727797E+02 -0.79576768350E+01 -0.63005629555E+02  0.88547336602E+02  0.00000000000E+00 0. -1.
         -5    1    5    5    0  502 -0.92422620856E+02 -0.33619317738E+02 -0.10124658901E+03  0.14122733856E+03  0.47000000000E+01 0.  1.
         13    1    6    6    0    0 -0.18882594154E+02  0.28716605348E+02 -0.16233992242E+02  0.38009713085E+02  0.00000000000E+00 0. -1.
        -14    1    6    6    0    0  0.31944917689E+02  0.31313550411E+01 -0.11805789293E+03  0.12234357047E+03  0.00000000000E+00 0.  1.
</event>
<event>
12    1  0.1615162E-001  0.1977178E+03  0.7818608E-02  0.1151862E+00
         21   -1    0    0  503  502  0.00000000000E+00  0.00000000000E+00  0.86602465638E+02  0.86602465638E+02  0.00000000000E+00 0.  1.
         21   -1    0    0  501  503 -0.00000000000E+00 -0.00000000000E+00 -0.66330173879E+03  0.66330173879E+03  0.00000000000E+00 0. -1.
          6    2    1    2  501    0 -0.91578251529E+02 -0.28109909860E+02 -0.50166944067E+03  0.53922587303E+03  0.17296118423E+03 0.  0.
         24    2    3    3    0    0 -0.60543917963E+02 -0.41351146470E+02 -0.14593599389E+03  0.18186494152E+03  0.80012869744E+02 0.  0.
         -6    2    1    2    0  502  0.91578251529E+02  0.28109909860E+02 -0.75029832481E+02  0.21067833140E+03  0.17198587260E+03 0.  0.
        -24    2    5    5    0    0  0.90537510802E+02  0.73982545935E+02 -0.86053597680E+02  0.16325475835E+03  0.74675541415E+02 0.  0.
          5    1    3    3  501    0 -0.31034333566E+02  0.13241236610E+02 -0.35573344679E+03  0.35736093151E+03  0.47000000000E+01 0. -1.
        -13    1    4    4    0    0 -0.53946517240E+02 -0.11878342832E+02 -0.14077530310E+03  0.15122502343E+03  0.00000000000E+00 0.  1.
         14    1    4    4    0    0 -0.65974007225E+01 -0.29472803639E+02 -0.51606907882E+01  0.30639918081E+02  0.00000000000E+00 0. -1.
         -5    1    5    5    0  502  0.10407407273E+01 -0.45872636075E+02  0.11023765200E+02  0.47423573051E+02  0.47000000000E+01 0.  1.
         13    1    6    6    0    0  0.39178517447E+02  0.50270317037E+02 -0.85553408149E+02  0.10668386312E+03  0.00000000000E+00 0. -1.
        -14    1    6    6    0    0  0.51358993355E+02  0.23712228898E+02 -0.50018953115E+00  0.56570895232E+02  0.00000000000E+00 0.  1.
</event>
<event>
12    1  0.1615162E-001  0.1807345E+03  0.7818608E-02  0.1168096E+00
         21   -1    0    0  503  502  0.00000000000E+00  0.00000000000E+00  0.71826619336E+02  0.71826619336E+02  0.00000000000E+00 0.  1.
         21   -1    0    0  501  503 -0.00000000000E+00 -0.00000000000E+00 -0.45821056427E+03  0.45821056427E+03  0.00000000000E+00 0.  1.
          6    2    1    2  501    0 -0.33680772334E+02  0.44346772370E+02 -0.14948669498E+03  0.23454472460E+03  0.17194163316E+03 0.  0.
         24    2    3    3    0    0 -0.22553098493E+02  0.91923681838E+02 -0.74438606569E+02  0.14486923734E+03  0.80544299901E+02 0.  0.
         -6    2    1    2    0  502  0.33680772334E+02 -0.44346772370E+02 -0.23689724995E+03  0.29549245901E+03  0.16761400792E+03 0.  0.
        -24    2    5    5    0    0  0.18318466475E+02 -0.42112579836E+02 -0.25274479582E+03  0.27281589032E+03  0.91866983182E+02 0.  0.
          5    1    3    3  501    0 -0.11127673842E+02 -0.47576909468E+02 -0.75048088411E+02  0.89675487252E+02  0.47000000000E+01 0. -1.
        -11    1    4    4    0    0 -0.20615947460E+02  0.33066617240E+02  0.11555383233E+02  0.40644130536E+02  0.00000000000E+00 0.  1.
         12    1    4    4    0    0 -0.19371510330E+01  0.58857064598E+02 -0.85993989802E+02  0.10422510681E+03  0.00000000000E+00 0. -1.
         -5    1    5    5    0  502  0.15362305859E+02 -0.22341925336E+01  0.15847545870E+02  0.22676568693E+02  0.47000000000E+01 0.  1.
         11    1    6    6    0    0  0.24028047618E+02 -0.47396378209E+02 -0.60944408400E+02  0.80857805157E+02  0.00000000000E+00 0. -1.
        -12    1    6    6    0    0 -0.57095811432E+01  0.52837983726E+01 -0.19180038742E+03  0.19195808516E+03  0.00000000000E+00 0.  1.
</event>
<event>
12    1  0.1615162E-001  0.2766993E+03  0.7818608E-02  0.1097584E+00
         21   -1    0    0  501  502  0.00000000000E+00  0.00000000000E+00  0.86068500267E+03  0.86068500267E+03  0.00000000000E+00 0. -1.
         21   -1    0    0  502  503 -0.00000000000E+00 -0.00000000000E+00 -0.13047535604E+03  0.13047535604E+03  0.00000000000E+00 0.  1.
         -6    2    1    2    0  503 -0.40273746425E+02 -0.21175562399E+03  0.84677839955E+02  0.28882582061E+03  0.17259084312E+03 0.  0.
        -24    2    3    3    0    0 -0.21489075460E+02 -0.40303341098E+02  0.71370557570E+02  0.11577113869E+03  0.78886376498E+02 0.  0.
          6    2    1    2  501    0  0.40273746425E+02  0.21175562399E+03  0.64553180667E+03  0.70233453810E+03  0.17349372049E+03 0.  0.
         24    2    5    5    0    0  0.31348666444E+02  0.27598045102E+02  0.26183677050E+03  0.27661439329E+03  0.78820284260E+02 0.  0.
          5    1    5    5  501    0  0.89250799809E+01  0.18415757889E+03  0.38369503617E+03  0.42572014481E+03  0.47000000000E+01 0. -1.
        -13    1    6    6    0    0  0.52565445187E+02  0.35729687288E+02  0.22010250680E+03  0.22909572253E+03  0.00000000000E+00 0.  1.
         14    1    6    6    0    0 -0.21216778742E+02 -0.81316421857E+01  0.41734263702E+02  0.47518670769E+02  0.00000000000E+00 0. -1.
         -5    1    3    3    0  503 -0.18784670966E+02 -0.17145228289E+03  0.13307282385E+02  0.17305468192E+03  0.47000000000E+01 0.  1.
         11    1    4    4    0    0 -0.41104840422E+02  0.26269100596E+01  0.19281172701E+02  0.45478260557E+02  0.00000000000E+00 0. -1.
        -12    1    4    4    0    0  0.19615764963E+02 -0.42930251158E+02  0.52089384869E+02  0.70292878128E+02  0.00000000000E+00 0.  1.
</event>
<event>
12    1  0.1615162E-001  0.2430197E+03  0.7818608E-02  0.1117827E+00
         21   -1    0    0  503  502  0.00000000000E+00  0.00000000000E+00  0.12465209848E+03  0.12465209848E+03  0.00000000000E+00 0. -1.
         21   -1    0    0  501  503 -0.00000000000E+00 -0.00000000000E+00 -0.47344326372E+03  0.47344326372E+03  0.00000000000E+00 0. -1.
          6    2    1    2  501    0 -0.16789645680E+03 -0.27970129779E+02 -0.17604358376E+03  0.30008319754E+03  0.17345614344E+03 0.  0.
         24    2    3    3    0    0 -0.45949215975E+02  0.38290054481E+02 -0.92193729737E+02  0.13786596793E+03  0.83245916357E+02 0.  0.
         -6    2    1    2    0  502  0.16789645680E+03  0.27970129779E+02 -0.17274758148E+03  0.29801216465E+03  0.17319923501E+03 0.  0.
        -24    2    5    5    0    0  0.16887008902E+03  0.58778046773E+02 -0.10197086915E+03  0.22067195055E+03  0.79536695024E+02 0.  0.
          5    1    3    3  501    0 -0.12194724082E+03 -0.66260184260E+02 -0.83849854025E+02  0.16221722961E+03  0.47000000000E+01 0. -1.
        -11    1    4    4    0    0 -0.44134393096E+02  0.32223832425E+02 -0.10153304020E+02  0.55581558206E+02  0.00000000000E+00 0.  1.
         12    1    4    4    0    0 -0.18148228790E+01  0.60662220566E+01 -0.82040425717E+02  0.82284409726E+02  0.00000000000E+00 0. -1.
         -5    1    5    5    0  502 -0.97363222559E+00 -0.30807916994E+02 -0.70776712328E+02  0.77340214100E+02  0.47000000000E+01 0.  1.
         11    1    6    6    0    0  0.12942289988E+03  0.51199515283E+02 -0.11270664006E+03  0.17909345072E+03  0.00000000000E+00 0. -1.
        -12    1    6    6    0    0  0.39447189142E+02  0.75785314903E+01  0.10735770910E+02  0.41578499826E+02  0.00000000000E+00 0.  1.
</event>
<event>
12    1  0.1615162E-001  0.1837721E+03  0.7818608E-02  0.1164538E+00
         21   -1    0    0  503  502  0.00000000000E+00  0.00000000000E+00  0.30392243774E+03  0.30392243774E+03  0.00000000000E+00 0. -1.
         21   -1    0    0  501  503 -0.00000000000E+00 -0.00000000000E+00 -0.14905514594E+03  0.14905514594E+03  0.00000000000E+00 0. -1.
          6    2    1    2  501    0  0.59527084806E+02  0.20904311253E+02 -0.37887266433E+02  0.18763698355E+03  0.17260280584E+03 0.  0.
         24    2    3    3    0    0 -0.19258374249E+02  0.51610977172E+02 -0.43609634350E+01  0.96553774986E+02  0.79177241165E+02 0.  0.
         -6    2    1    2    0  502 -0.59527084806E+02 -0.20904311253E+02  0.19275455823E+03  0.26534060012E+03  0.17108725931E+03 0.  0.
        -24    2    5    5    0    0 -0.33432924014E+02  0.48855726656E+02  0.14656232748E+03  0.17757283668E+03  0.80913250187E+02 0.  0.
          5    1    3    3  501    0  0.78785459055E+02 -0.30706665919E+02 -0.33526302998E+02  0.91083208568E+02  0.47000000000E+01 0. -1.
        -13    1    4    4    0    0 -0.40224148530E+02  0.13169642755E+02  0.19596047124E+02  0.46641469510E+02  0.00000000000E+00 0.  1.
         14    1    4    4    0    0  0.20965774281E+02  0.38441334417E+02 -0.23957010559E+02  0.49912305475E+02  0.00000000000E+00 0. -1.
         -5    1    5    5    0  502 -0.26094160792E+02 -0.69760037909E+02  0.46192230750E+02  0.87767763434E+02  0.47000000000E+01 0.  1.
         13    1    6    6    0    0 -0.12467435237E+01 -0.64425095337E+00  0.10583611669E+03  0.10584542042E+03  0.00000000000E+00 0. -1.
        -14    1    6    6    0    0 -0.32186180490E+02  0.49499977610E+02  0.40726210793E+02  0.71727416261E+02  0.00000000000E+00 0.  1.
</event>
<event>
12    1  0.1615162E-001  0.1848353E+03  0.7818608E-02  0.1163339E+00
         21   -1    0    0  503  502  0.00000000000E+00  0.00000000000E+00  0.25048518661E+02  0.25048518661E+02  0.00000000000E+00 0.  1.
         21   -1    0    0  501  503 -0.00000000000E+00 -0.00000000000E+00 -0.15017038691E+04  0.15017038691E+04  0.00000000000E+00 0. -1.
          6    2    1    2  501    0 -0.45816593106E+02 -0.51928924426E+02 -0.97205408036E+03  0.98936377742E+03  0.17075062383E+03 0.  0.
         24    2    3    3    0    0 -0.58059060078E+02  0.27208162379E+01 -0.84137068723E+03  0.84710798179E+03  0.79429479285E+02 0.  0.
         -6    2    1    2    0  502  0.45816593106E+02  0.51928924426E+02 -0.50460127006E+03  0.53738861032E+03  0.17137182779E+03 0.  0.
        -24    2    5    5    0    0 -0.13345198337E+02  0.73102810111E+02 -0.21596727287E+03  0.24195651095E+03  0.79868486132E+02 0.  0.
          5    1    3    3  501    0  0.12242466972E+02 -0.54649740664E+02 -0.13068339313E+03  0.14225579564E+03  0.47000000000E+01 0. -1.
        -11    1    4    4    0    0 -0.30296644041E+02  0.74382978523E+01 -0.90808386824E+02  0.96017592308E+02  0.00000000000E+00 0.  1.
         12    1    4    4    0    0 -0.27762416038E+02 -0.47174816144E+01 -0.75056230041E+03  0.75109038948E+03  0.00000000000E+00 0. -1.
         -5    1    5    5    0  502  0.59161791443E+02 -0.21173885685E+02 -0.28863399719E+03  0.29543209937E+03  0.47000000000E+01 0.  1.
         11    1    6    6    0    0  0.19574290911E+02 -0.83141563112E+01 -0.41197980334E+02  0.46363257472E+02  0.00000000000E+00 0. -1.
        -12    1    6    6    0    0 -0.32919489248E+02  0.81416966422E+02 -0.17476929253E+03  0.19559325348E+03  0.00000000000E+00 0.  1.
</event>
<event>
12    1  0.1615162E-001  0.2189470E+03  0.7818608E-02  0.1134808E+00
         21   -1    0    0  501  502  0.00000000000E+00  0.00000000000E+00  0.73164654852E+02  0.73164654852E+02  0.00000000000E+00 0.  1.
         21   -1    0    0  502  503 -0.00000000000E+00 -0.00000000000E+00 -0.69698339493E+03  0.69698339493E+03  0.00000000000E+00 0.  1.
         -6    2    1    2    0  503 -0.11830506968E+03  0.67946837861E+02 -0.21470222697E+03  0.30612854914E+03  0.17030789777E+03 0.  0.
        -24    2    3    3    0    0 -0.50630023370E+02  0.99938018628E+02 -0.10485349381E+03  0.17311658833E+03  0.80150428301E+02 0.  0.
          6    2    1    2  501    0  0.11830506968E+03 -0.67946837861E+02 -0.40911651310E+03  0.46401950064E+03  0.17124518503E+03 0.  0.
         24    2    5    5    0    0  0.84646099561E+02  0.23747421506E+02 -0.19459091360E+03  0.22825672514E+03  0.80663540196E+02 0.  0.
          5    1    5    5  501    0  0.33658970123E+02 -0.91694259367E+02 -0.21452559951E+03  0.23576277551E+03  0.47000000000E+01 0. -1.
        -13    1    6    6    0    0  0.13151400770E+02  0.29687540623E+02 -0.12180294301E+03  0.12605659974E+03  0.00000000000E+00 0.  1.
         14    1    6    6    0    0  0.71494698791E+02 -0.59401191173E+01 -0.72787970584E+02  0.10220012540E+03  0.00000000000E+00 0. -1.
         -5    1    3    3    0  503 -0.67675046313E+02 -0.31991180767E+02 -0.10984873316E+03  0.13301196081E+03  0.47000000000E+01 0.  1.
         13    1    4    4    0    0 -0.66254623505E+02  0.86467423594E+02 -0.10659956402E+03  0.15241311468E+03  0.00000000000E+00 0. -1.
        -14    1    4    4    0    0  0.15624600134E+02  0.13470595034E+02  0.17460702047E+01  0.20703473648E+02  0.00000000000E+00 0.  1.
</event>
<event>
12    1  0.1615162E-001  0.3374733E+03  0.7818608E-02  0.1067912E+00
         21   -1    0    0  503  502  0.00000000000E+00  0.00000000000E+00  0.68167269862E+03  0.68167269862E+03  0.00000000000E+00 0.  1.
         21   -1    0    0  501  503 -0.00000000000E+00 -0.00000000000E+00 -0.16830326460E+03  0.16830326460E+03  0.00000000000E+00 0. -1.
          6    2    1    2  501    0  0.23953025647E+03 -0.16350244354E+03  0.21792045376E+03  0.40144688133E+03  0.17193743501E+03 0.  0.
         24    2    3    3    0    0  0.21358316966E+03 -0.19170969276E+03  0.19943587507E+03  0.35863718767E+03  0.80471034869E+02 0.  0.
         -6    2    1    2    0  502 -0.23953025647E+03  0.16350244354E+03  0.29544898025E+03  0.44852908189E+03  0.17257011491E+03 0.  0.
        -24    2    5    5    0    0 -0.73809474115E+02  0.62625296490E+02  0.36010539553E+02  0.12453838601E+03  0.69593709501E+02 0.  0.
          5    1    3    3  501    0  0.25947086811E+02  0.28207249219E+02  0.18484578692E+02  0.42809693667E+02  0.47000000000E+01 0. -1.
        -11    1    4    4    0    0  0.15745448092E+03 -0.11718021472E+03  0.93293014926E+02  0.21731705620E+03  0.00000000000E+00 0.  1.
         12    1    4    4    0    0  0.56128688736E+02 -0.74529478044E+02  0.10614286015E+03  0.14132013146E+03  0.00000000000E+00 0. -1.
         -5    1    5    5    0  502 -0.16572078236E+03  0.10087714705E+03  0.25943844070E+03  0.32399069588E+03  0.47000000000E+01 0.  1.
         11    1    6    6    0    0 -0.65603830931E+02  0.19624214662E+02  0.99998626353E+00  0.68483373212E+02  0.00000000000E+00 0. -1.
        -12    1    6    6    0    0 -0.82056431833E+01  0.43001081827E+02  0.35010553290E+02  0.56055012800E+02  0.00000000000E+00 0.  1.
</event>
<event>
12    1  0.1615162E-001  0.1884987E+03  0.7818608E-02  0.1160922E+00
         21   -1    0    0  503  502  0.00000000000E+00  0.00000000000E+00  0.94896379255E+03  0.94896379255E+03  0.00000000000E+00 0. -1.
         21   -1    0    0  501  503 -0.00000000000E+00 -0.00000000000E+00 -0.36749724649E+02  0.36749724649E+02  0.00000000000E+00 0. -1.
          6    2    1    2  501    0 -0.69764358995E+02 -0.82030311641E+01  0.50224513309E+03  0.53645311513E+03  0.17492116944E+03 0.  0.
         24    2    3    3    0    0 -0.10537093370E+03  0.27173356172E+02  0.40507565765E+03  0.42698479140E+03  0.79926833524E+02 0.  0.
         -6    2    1    2    0  502  0.69764358995E+02  0.82030311641E+01  0.40996893481E+03  0.44926040207E+03  0.16978228956E+03 0.  0.
        -24    2    5    5    0    0  0.17529507149E+02  0.49016750751E+02  0.12691784356E+03  0.15851265966E+03  0.79424170024E+02 0.  0.
          5    1    3    3  501    0  0.35606574701E+02 -0.35376387336E+02  0.97169475442E+02  0.10946832373E+03  0.47000000000E+01 0. -1.
        -11    1    4    4    0    0 -0.94364194905E+02  0.49516738083E+02  0.28312494670E+03  0.30251651868E+03  0.00000000000E+00 0.  1.
         12    1    4    4    0    0 -0.11006738791E+02 -0.22343381911E+02  0.12195071094E+03  0.12446827272E+03  0.00000000000E+00 0. -1.
         -5    1    5    5    0  502  0.52234851846E+02 -0.40813719587E+02  0.28305109125E+03  0.29074774240E+03  0.47000000000E+01 0.  1.
         13    1    6    6    0    0  0.46067599722E+02  0.11122009910E+02  0.67634446695E+02  0.82585357227E+02  0.00000000000E+00 0. -1.
        -14    1    6    6    0    0 -0.28538092573E+02  0.37894740841E+02  0.59283396867E+02  0.75927302436E+02  0.00000000000E+00 0.  1.
</event>
<event>
12    1  0.1615162E-001  0.2173369E+03  0.7818608E-02  0.1135967E+00
         21   -1    0    0  501  502  0.00000000000E+00  0.00000000000E+00  0.18778118516E+03  0.18778118516E+03  0.00000000000E+00 0. -1.
         21   -1    0    0  502  503 -0.00000000000E+00 -0.00000000000E+00 -0.52411730654E+03  0.52411730654E+03  0.00000000000E+00 0.  1.
         -6    2    1    2    0  503 -0.41758273438E+02 -0.12633145452E+03 -0.42517956819E+03  0.47750707571E+03  0.17184863209E+03 0.  0.
        -24    2    3    3    0    0 -0.90982370454E+02 -0.11368634705E+03 -0.32811925256E+03  0.36784529869E+03  0.80284136844E+02 0.  0.
          6    2    1    2  501    0  0.41758273438E+02  0.12633145452E+03  0.88843446804E+02  0.23439141599E+03  0.17129736731E+03 0.  0.
         24    2    5    5    0    0  0.31108094836E+02  0.17048777544E+02 -0.84884550891E+01  0.87586378890E+02  0.79630054108E+02 0.  0.
          5    1    5    5  501    0  0.10650178603E+02  0.10928267698E+03  0.97331901893E+02  0.14680503710E+03  0.47000000000E+01 0. -1.
        -13    1    6    6    0    0 -0.20724574315E+02  0.91132970626E+01  0.17921454513E+02  0.28874533689E+02  0.00000000000E+00 0.  1.
         14    1    6    6    0    0  0.51832669151E+02  0.79354804814E+01 -0.26409909602E+02  0.58711845201E+02  0.00000000000E+00 0. -1.
         -5    1    3    3    0  503  0.49224097016E+02 -0.12645107469E+02 -0.97060315627E+02  0.10966177702E+03  0.47000000000E+01 0.  1.
         13    1    4    4    0    0 -0.62331758127E+02 -0.25201065331E+02 -0.18806018205E+03  0.19971723471E+03  0.00000000000E+00 0. -1.
        -14    1    4    4    0    0 -0.28650612327E+02 -0.88485281720E+02 -0.14005907051E+03  0.16812806399E+03  0.00000000000E+00 0.  1.
</event>
<event>
12    1  0.1615162E-001  0.1993057E+03  0.7818608E-02  0.1150563E+00
         21   -1    0    0  501  502  0.00000000000E+00  0.00000000000E+00  0.17954357522E+03  0.17954357522E+03  0.00000000000E+00 0.  1.
         21   -1    0    0  502  503 -0.00000000000E+00 -0.00000000000E+00 -0.22041610890E+03  0.22041610890E+03  0.00000000000E+00 0.  1.
         -6    2    1    2    0  503  0.10042184704E+03  0.63628416728E+00 -0.28990935043E+02  0.20030018073E+03  0.17086467121E+03 0.  0.
        -24    2    3    3    0    0  0.56143956842E+02 -0.64212511624E+02 -0.33643564456E+02  0.12149894447E+03  0.79716457144E+02 0.  0.
          6    2    1    2  501    0 -0.10042184704E+03 -0.63628416728E+00 -0.11881598635E+02  0.19965950339E+03  0.17215630308E+03 0.  0.
         24    2    5    5    0    0  0.16101277813E+02 -0.94003944780E-01  0.10230882429E+02  0.80962475161E+02  0.78682853564E+02 0.  0.
          5    1    5    5  501    0 -0.11652312485E+03 -0.54228022250E+00 -0.22112481065E+02  0.11869702823E+03  0.47000000000E+01 0. -1.
        -11    1    6    6    0    0  0.11392552510E+02 -0.19170724324E+02  0.39705088998E+02  0.45539005437E+02  0.00000000000E+00 0.  1.
         12    1    6    6    0    0  0.47087253024E+01  0.19076720379E+02 -0.29474206569E+02  0.35423469724E+02  0.00000000000E+00 0. -1.
         -5    1    3    3    0  503  0.44277890193E+02  0.64848795791E+02  0.46526294131E+01  0.78801236259E+02  0.47000000000E+01 0.  1.
         11    1    4    4    0    0  0.75595392346E+02 -0.59354452547E+02 -0.32340588862E+02  0.10140773180E+03  0.00000000000E+00 0. -1.
        -12    1    4    4    0    0 -0.19451435504E+02 -0.48580590767E+01 -0.13029755944E+01  0.20091212670E+02  0.00000000000E+00 0.  1.
</event>
<event>
12    1  0.1615162E-001  0.1916420E+03  0.7818608E-02  0.1157210E+00
         21   -1    0    0  503  502  0.00000000000E+00  0.00000000000E+00  0.87382545584E+03  0.87382545584E+03  0.00000000000E+00 0. -1.
         21   -1    0    0  501  503 -0.00000000000E+00 -0.00000000000E+00 -0.44510499026E+02  0.44510499026E+02  0.00000000000E+00 0.  1.
          6    2    1    2  501    0 -0.58177441136E+02  0.57885975548E+02  0.30263003735E+03  0.35820610233E+03  0.17317988167E+03 0.  0.
         24    2    3    3    0    0 -0.26273764765E+02 -0.33934164860E+02  0.12643994553E+03  0.15692564822E+03  0.82442470751E+02 0.  0.
         -6    2    1    2    0  502  0.58177441136E+02 -0.57885975548E+02  0.52668491946E+03  0.56012985254E+03  0.17208441676E+03 0.  0.
        -24    2    5    5    0    0  0.93557846791E+02 -0.79172811655E+02  0.44818710864E+03  0.47131037945E+03  0.78996105114E+02 0.  0.
          5    1    3    3  501    0 -0.31903676371E+02  0.91820140408E+02  0.17619009182E+03  0.20128045411E+03  0.47000000000E+01 0. -1.
        -13    1    4    4    0    0 -0.42489730112E+02 -0.41245824476E+02  0.47235179817E+02  0.75747986204E+02  0.00000000000E+00 0.  1.
         14    1    4    4    0    0  0.16215965347E+02  0.73116596158E+01  0.79204765712E+02  0.81177662013E+02  0.00000000000E+00 0. -1.
         -5    1    5    5    0  502 -0.35380405654E+02  0.21286836107E+02  0.78497810821E+02  0.88819473087E+02  0.47000000000E+01 0.  1.
         13    1    6    6    0    0  0.69279710888E+02 -0.59428144370E+02  0.18523526266E+03  0.20650299082E+03  0.00000000000E+00 0. -1.
        -14    1    6    6    0    0  0.24278135903E+02 -0.19744667285E+02  0.26295184598E+03  0.26480738863E+03  0.00000000000E+00 0.  1.
</event>
<event>
12    1  0.1615162E-001  0.1758985E+03  0.7818608E-02  0.1172582E+00
         21   -1    0    0  503  502  0.00000000000E+00  0.00000000000E+00  0.13671451799E+03  0.13671451799E+03  0.00000000000E+00 0. -1.
         21   -1    0    0  501  503 -0.00000000000E+00 -0.00000000000E+00 -0.24920775839E+03  0.24920775839E+03  0.00000000000E+00 0. -1.
          6    2    1    2  501    0 -0.25258524222E+02  0.22936269895E+02 -0.11898877409E+03  0.20990386639E+03  0.16952061598E+03 0.  0.
         24    2    3    3    0    0  0.27790315142E+02  0.56353658015E+02 -0.39913569423E+02  0.10887971492E+03  0.79458560961E+02 0.  0.
         -6    2    1    2    0  502  0.25258524222E+02 -0.22936269895E+02  0.64955336845E+01  0.17601840999E+03  0.17255788355E+03 0.  0.
        -24    2    5    5    0    0 -0.53333111758E+01  0.25191962687E+02  0.56169838929E+02  0.10024365321E+03  0.78934529904E+02 0.  0.
          5    1    3    3  501    0 -0.53048839364E+02 -0.33417388120E+02 -0.79075204664E+02  0.10102415147E+03  0.47000000000E+01 0. -1.
        -13    1    4    4    0    0 -0.55698402971E+01  0.64260589192E+02 -0.37266676993E+02  0.74493299419E+02  0.00000000000E+00 0.  1.
         14    1    4    4    0    0  0.33360155439E+02 -0.79069311773E+01 -0.26468924298E+01  0.34386415502E+02  0.00000000000E+00 0. -1.
         -5    1    5    5    0  502  0.30591835398E+02 -0.48128232582E+02 -0.49674305245E+02  0.75774756786E+02  0.47000000000E+01 0.  1.
         13    1    6    6    0    0 -0.15460754927E+02  0.51934611601E+02  0.40379045223E+02  0.67577408341E+02  0.00000000000E+00 0. -1.
        -14    1    6    6    0    0  0.10127443751E+02 -0.26742648914E+02  0.15790793707E+02  0.32666244867E+02  0.00000000000E+00 0.  1.
</event>
<event>
12    1  0.1615162E-001  0.1994703E+03  0.7818608E-02  0.1153351E+00
         21   -1    0    0  501  502  0.00000000000E+00  0.00000000000E+00  0.83351342168E+03  0.83351342168E+03  0.00000000000E+00 0. -1.
         21   -1    0    0  502  503 -0.00000000000E+00 -0.00000000000E+00 -0.92361731530E+02  0.92361731530E+02  0.00000000000E+00 0.  1.
         -6    2    1    2    0  503 -0.86785393851E+02 -0.43817344673E+02  0.43598169851E+02  0.20417928683E+03  0.17417438524E+03 0.  0.
        -24    2    3    3    0    0 -0.11561563815E+03 -0.20093234599E+02 -0.51544415110E+01  0.14259257154E+03  0.80841569313E+02 0.  0.
          6    2    1    2  501    0  0.86785393851E+02  0.43817344673E+02  0.69755352030E+03  0.72169586638E+03  0.15751934989E+03 0.  0.
         24    2    5    5    0    0  0.70949246416E+02 -0.15662636487E+02  0.29339488681E+03  0.31284999965E+03  0.80718330775E+02 0.  0.
          5    1    5    5  501    0  0.15836147435E+02  0.59479981160E+02  0.40415863348E+03  0.40884586673E+03  0.47000000000E+01 0. -1.
        -11    1    6    6    0    0 -0.17053520123E+01  0.99079173703E+01  0.57559013297E+00  0.10070072299E+02  0.00000000000E+00 0.  1.
         12    1    6    6    0    0  0.72654598429E+02 -0.25570553857E+02  0.29281929668E+03  0.30277992735E+03  0.00000000000E+00 0. -1.
         -5    1    3    3    0  503  0.28830244302E+02 -0.23724110075E+02  0.48752611362E+02  0.61586715288E+02  0.47000000000E+01 0.  1.
         13    1    4    4    0    0  0.11635878648E+02 -0.58682071497E+01  0.54167955891E+01  0.14112802752E+02  0.00000000000E+00 0. -1.
        -14    1    4    4    0    0 -0.12725151680E+03 -0.14225027449E+02 -0.10571237100E+02  0.12847976879E+03  0.00000000000E+00 0.  1.
</event>
<event>
12    1  0.1615162E-001  0.3205762E+03  0.7818608E-02  0.1075559E+00
         21   -1    0    0  503  502  0.00000000000E+00  0.00000000000E+00  0.58211400251E+03  0.58211400251E+03  0.00000000000E+00 0. -1.
         21   -1    0    0  501  503 -0.00000000000E+00 -0.00000000000E+00 -0.23229103469E+03  0.23229103469E+03  0.00000000000E+00 0.  1.
          6    2    1    2  501    0  0.23746151312E+03 -0.12727449299E+03 -0.25742646464E+02  0.32160814146E+03  0.17373067096E+03 0.  0.
         24    2    3    3    0    0  0.13205813768E+03  0.85399897963E-01 -0.27305448393E+02  0.15621483380E+03  0.78855106156E+02 0.  0.
         -6    2    1    2    0  502 -0.23746151312E+03  0.12727449299E+03  0.37556561429E+03  0.49279689574E+03  0.17091659672E+03 0.  0.
        -24    2    5    5    0    0 -0.10173552049E+03  0.32193330794E+02  0.25509439089E+03  0.28786427718E+03  0.80038535335E+02 0.  0.
          5    1    3    3  501    0  0.10540337544E+03 -0.12735989289E+03  0.15628019284E+01  0.16539330767E+03  0.47000000000E+01 0. -1.
        -11    1    4    4    0    0 -0.96801367307E+01  0.68613821392E+01 -0.31174290001E+01  0.12267924664E+02  0.00000000000E+00 0.  1.
         12    1    4    4    0    0  0.14173827441E+03 -0.67759822412E+01 -0.24188019393E+02  0.14394690913E+03  0.00000000000E+00 0. -1.
         -5    1    5    5    0  502 -0.13572599263E+03  0.95081162194E+02  0.12047122340E+03  0.20493261855E+03  0.47000000000E+01 0.  1.
         11    1    6    6    0    0 -0.85094497162E+02  0.31432341134E+02  0.11351888237E+03  0.14531208543E+03  0.00000000000E+00 0. -1.
        -12    1    6    6    0    0 -0.16641023326E+02  0.76098965989E+00  0.14157550851E+03  0.14255219175E+03  0.00000000000E+00 0.  1.
</event>
<event>
12    1  0.1615162E-001  0.1840147E+03  0.7818608E-02  0.1164127E+00
         21   -1    0    0  503  502  0.00000000000E+00  0.00000000000E+00  0.79145505524E+02  0.79145505524E+02  0.00000000000E+00 0. -1.
         21   -1    0    0  501  503 -0.00000000000E+00 -0.00000000000E+00 -0.55922689426E+03  0.55922689426E+03  0.00000000000E+00 0. -1.
          6    2    1    2  501    0  0.42828505915E+02 -0.42452037368E+02 -0.39532171893E+03  0.43577519584E+03  0.17315976281E+03 0.  0.
         24    2    3    3    0    0 -0.22260308885E+02 -0.75208538432E+02 -0.23329452133E+03  0.25805506491E+03  0.77551513468E+02 0.  0.
         -6    2    1    2    0  502 -0.42828505915E+02  0.42452037368E+02 -0.84759669804E+02  0.20259720394E+03  0.17385329742E+03 0.  0.
        -24    2    5    5    0    0  0.41975193566E+02  0.19129590106E+02 -0.59901605697E+02  0.11107880501E+03  0.81378378362E+02 0.  0.
          5    1    3    3  501    0  0.65088814800E+02  0.32756501064E+02 -0.16202719760E+03  0.17772013093E+03  0.47000000000E+01 0. -1.
        -11    1    4    4    0    0  0.16742754383E+02 -0.68431781457E+02 -0.15774734813E+03  0.17276415826E+03  0.00000000000E+00 0.  1.
         12    1    4    4    0    0 -0.39003063268E+02 -0.67767569755E+01 -0.75547173197E+02  0.85290906652E+02  0.00000000000E+00 0. -1.
         -5    1    5    5    0  502 -0.84803699481E+02  0.23322447262E+02 -0.24858064107E+02  0.91518398932E+02  0.47000000000E+01 0.  1.
         13    1    6    6    0    0 -0.89856498066E+01 -0.21805180736E+02 -0.18499385310E+01  0.23656501895E+02  0.00000000000E+00 0. -1.
        -14    1    6    6    0    0  0.50960843372E+02  0.40934770841E+02 -0.58051667166E+02  0.87422303114E+02  0.00000000000E+00 0.  1.
</event>
<event>
12    1  0.1615162E-001  0.1764490E+03  0.7818608E-02  0.1171830E+00
         21   -1    0    0  501  502  0.00000000000E+00  0.00000000000E+00  0.10681720830E+04  0.10681720830E+04  0.00000000000E+00 0.  1.
         21   -1    0    0  502  503 -0.00000000000E+00 -0.00000000000E+00 -0.78988411683E+02  0.78988411683E+02  0.00000000000E+00 0.  1.
         -6    2    1    2    0  503  0.10571071557E+02 -0.26452940210E+02  0.38453019911E+02  0.18059040201E+03  0.17413429575E+03 0.  0.
        -24    2    3    3    0    0  0.75861552328E+01  0.22631832648E+02  0.84759879261E+02  0.11288043321E+03  0.70625813049E+02 0.  0.
          6    2    1    2  501    0 -0.10571071557E+02  0.26452940210E+02  0.95073065143E+03  0.96657009270E+03  0.17192285168E+03 0.  0.
         24    2    5    5    0    0  0.51877547918E+02  0.54884070606E+02  0.59039339742E+03  0.59972791154E+03  0.73523213875E+02 0.  0.
          5    1    5    5  501    0 -0.62448619475E+02 -0.28431130396E+02  0.36033725401E+03  0.36684218115E+03  0.47000000000E+01 0. -1.
        -11    1    6    6    0    0 -0.13516399401E+02  0.21505500726E+01  0.19649070746E+03  0.19696678917E+03  0.00000000000E+00 0.  1.
         12    1    6    6    0    0  0.65393947319E+02  0.52733520533E+02  0.39390268996E+03  0.40276112237E+03  0.00000000000E+00 0. -1.
         -5    1    3    3    0  503  0.29849163245E+01 -0.49084772858E+02 -0.46306859350E+02  0.67709968800E+02  0.47000000000E+01 0.  1.
         13    1    4    4    0    0  0.36168495938E+02 -0.26268444426E+01  0.37822999009E+02  0.52398851745E+02  0.00000000000E+00 0. -1.
        -14    1    4    4    0    0 -0.28582340705E+02  0.25258677091E+02  0.46936880253E+02  0.60481581464E+02  0.00000000000E+00 0.  1.
</event>
<event>
12    1  0.1615162E-001  0.2074864E+03  0.7818608E-02  0.1143667E+00
         21   -1    0    0  503  502  0.00000000000E+00  0.00000000000E+00  0.55735296311E+03  0.55735296311E+03  0.00000000000E+00 0. -1.
         21   -1    0    0  501  503 -0.00000000000E+00 -0.00000000000E+00 -0.79309196107E+02  0.79309196107E+02  0.00000000000E+00 0. -1.
          6    2    1    2  501    0 -0.80034914168E+01  0.11366557523E+03  0.18574011260E+03  0.27847798803E+03  0.17339746688E+03 0.  0.
         24    2    3    3    0    0  0.51157738447E+02  0.48636190003E+02  0.56979204641E+02  0.12249615101E+03  0.82316973154E+02 0.  0.
         -6    2    1    2    0  502  0.80034914168E+01 -0.11366557523E+03  0.29230365440E+03  0.35818417119E+03  0.17283100198E+03 0.  0.
        -24    2    5    5    0    0 -0.16899612132E+02 -0.14516918818E+03  0.23525413398E+03  0.28826006965E+03  0.79935412151E+02 0.  0.
          5    1    3    3  501    0 -0.59161229864E+02  0.65029385228E+02  0.12876090796E+03  0.15598183702E+03  0.47000000000E+01 0. -1.
        -11    1    4    4    0    0  0.14713353190E+02 -0.19603208960E+02  0.33771238493E+02  0.41728468855E+02  0.00000000000E+00 0.  1.
         12    1    4    4    0    0  0.36444385257E+02  0.68239398963E+02  0.23207966148E+02  0.80767682153E+02  0.00000000000E+00 0. -1.
         -5    1    5    5    0  502  0.24903103548E+02  0.31503612945E+02  0.57049520424E+02  0.69924101535E+02  0.47000000000E+01 0.  1.
         11    1    6    6    0    0  0.29473851154E+02 -0.28359365919E+02  0.57284368691E+02  0.70387928180E+02  0.00000000000E+00 0. -1.
        -12    1    6    6    0    0 -0.46373463286E+02 -0.11680982226E+03  0.17796976529E+03  0.21787214147E+03  0.00000000000E+00 0.  1.
</event>
<event>
12    1  0.1615162E-001  0.2247850E+03  0.7818608E-02  0.1130628E+00
         21   -1    0    0  501  502  0.00000000000E+00  0.00000000000E+00  0.33505644892E+03  0.33505644892E+03  0.00000000000E+00 0. -1.
         21   -1    0    0  502  503 -0.00000000000E+00 -0.00000000000E+00 -0.18836724825E+03  0.18836724825E+03  0.00000000000E+00 0. -1.
         -6    2    1    2    0  503 -0.27969721786E+02 -0.14236797422E+03 -0.44828770151E+02  0.22921146103E+03  0.17168963222E+03 0.  0.
        -24    2    3    3    0    0 -0.23800866988E+02 -0.96692819536E+02 -0.96514590356E+02  0.15995026615E+03  0.79705952539E+02 0.  0.
          6    2    1    2  501    0  0.27969721786E+02  0.14236797422E+03  0.19151797082E+03  0.29421223614E+03  0.16979623473E+03 0.  0.
         24    2    5    5    0    0 -0.29107275815E+02  0.35088525542E+02  0.12428897083E+03  0.15525723550E+03  0.81108709613E+02 0.  0.
          5    1    5    5  501    0  0.57076997601E+02  0.10727944868E+03  0.67228999989E+02  0.13895500064E+03  0.47000000000E+01 0. -1.
        -11    1    6    6    0    0 -0.33712100374E+02  0.55428600863E+02  0.11581268425E+03  0.13274567164E+03  0.00000000000E+00 0.  1.
         12    1    6    6    0    0  0.46048245594E+01 -0.20340075321E+02  0.84762865771E+01  0.22511563860E+02  0.00000000000E+00 0. -1.
         -5    1    3    3    0  503 -0.41688547979E+01 -0.45675154687E+02  0.51685820205E+02  0.69261194881E+02  0.47000000000E+01 0.  1.
         11    1    4    4    0    0 -0.17177238317E+02  0.10305873498E+02 -0.11258334414E+02  0.22978656152E+02  0.00000000000E+00 0. -1.
        -12    1    4    4    0    0 -0.66236286706E+01 -0.10699869303E+03 -0.85256255943E+02  0.13697161000E+03  0.00000000000E+00 0.  1.
</event>
<event>
12    1  0.1615162E-001  0.1876769E+03  0.7818608E-02  0.1161692E+00
         21   -1    0    0  501  502  0.00000000000E+00  0.00000000000E+00  0.84846379495E+03  0.84846379495E+03  0.00000000000E+00 0.  1.
         21   -1    0    0  502  503 -0.00000000000E+00 -0.00000000000E+00 -0.41560750941E+02  0.41560750941E+02  0.00000000000E+00 0. -1.
         -6    2    1    2    0  503  0.34619940456E+01 -0.62202498026E+02  0.32577853121E+03  0.37359117613E+03  0.17192317855E+03 0.  0.
        -24    2    3    3    0    0  0.20822447702E+02 -0.10687473945E+03  0.24193470333E+03  0.27690161114E+03  0.79286299660E+02 0.  0.
          6    2    1    2  501    0 -0.34619940456E+01  0.62202498026E+02  0.48112451280E+03  0.51643336976E+03  0.17703528581E+03 0.  0.
         24    2    5    5    0    0  0.15303068531E+02  0.39705095152E+02  0.10155767894E+03  0.13570862395E+03  0.79323325534E+02 0.  0.
          5    1    5    5  501    0 -0.18765062577E+02  0.22497402875E+02  0.37956683385E+03  0.38072474581E+03  0.47000000000E+01 0. -1.
        -11    1    6    6    0    0 -0.95958190947E+01  0.10020690810E+02  0.95489333681E+02  0.96492003996E+02  0.00000000000E+00 0.  1.
         12    1    6    6    0    0  0.24898887626E+02  0.29684404342E+02  0.60683452621E+01  0.39216619951E+02  0.00000000000E+00 0. -1.
         -5    1    3    3    0  503 -0.17360453657E+02  0.44672241427E+02  0.83843827876E+02  0.96689564991E+02  0.47000000000E+01 0.  1.
         13    1    4    4    0    0 -0.23120407972E+02 -0.79720752931E+02  0.14621992415E+03  0.16813749710E+03  0.00000000000E+00 0. -1.
        -14    1    4    4    0    0  0.43942855675E+02 -0.27153986522E+02  0.95714779179E+02  0.10876411404E+03  0.00000000000E+00 0.  1.
</event>
<event>
12    1  0.1615162E-001  0.2097429E+03  0.7818608E-02  0.1141875E+00
         21   -1    0    0  503  502  0.00000000000E+00  0.00000000000E+00  0.37528893213E+03  0.37528893213E+03  0.00000000000E+00 0. -1.
         21   -1    0    0  501  503 -0.00000000000E+00 -0.00000000000E+00 -0.13329200931E+03  0.13329200931E+03  0.00000000000E+00 0. -1.
          6    2    1    2  501    0 -0.57237023355E+02 -0.10698259808E+03  0.32025810279E+02  0.21217383785E+03  0.17108691303E+03 0.  0.
         24    2    3    3    0    0 -0.28377362160E+02 -0.67498035087E+01  0.57148692147E+02  0.10478323144E+03  0.82841523688E+02 0.  0.
         -6    2    1    2    0  502  0.57237023355E+02  0.10698259808E+03  0.20997111254E+03  0.29640710359E+03  0.17043459104E+03 0.  0.
        -24    2    5    5    0    0  0.90459241222E+02  0.85063754194E+02  0.21040898102E+03  0.25632676919E+03  0.77541967406E+02 0.  0.
          5    1    3    3  501    0 -0.28859661195E+02 -0.10023279457E+03 -0.25122881867E+02  0.10739060641E+03  0.47000000000E+01 0. -1.
        -13    1    4    4    0    0  0.20973625579E+02  0.11168138275E+02  0.45007026000E+02  0.50894524969E+02  0.00000000000E+00 0.  1.
         14    1    4    4    0    0 -0.49350987739E+02 -0.17917941784E+02  0.12141666147E+02  0.53888706474E+02  0.00000000000E+00 0. -1.
         -5    1    5    5    0  502 -0.33222217867E+02  0.21918843882E+02 -0.43786847155E+00  0.40080334404E+02  0.47000000000E+01 0.  1.
         11    1    6    6    0    0  0.87234274104E+02  0.34415417744E+02  0.11623173156E+03  0.14934542169E+03  0.00000000000E+00 0. -1.
        -12    1    6    6    0    0  0.32249671179E+01  0.50648336450E+02  0.94177249452E+02  0.10698134750E+03  0.00000000000E+00 0.  1.
</event>
<event>
12    1  0.1615162E-001  0.1929951E+03  0.7818608E-02  0.1155797E+00
         21   -1    0    0  503  502  0.00000000000E+00  0.00000000000E+00  0.87556391149E+03  0.87556391149E+03  0.00000000000E+00 0.  1.
         21   -1    0    0  501  503 -0.00000000000E+00 -0.00000000000E+00 -0.59984648834E+02  0.59984648834E+02  0.00000000000E+00 0. -1.
          6    2    1    2  501    0  0.38227668891E+02  0.79638030509E+02  0.15549891327E+03  0.24784474030E+03  0.17159117896E+03 0.  0.
         24    2    3    3    0    0  0.77619701871E+02  0.92665885089E+02  0.89218453891E+02  0.16950798933E+03  0.78493576523E+02 0.  0.
         -6    2    1    2    0  502 -0.38227668891E+02 -0.79638030509E+02  0.66008034939E+03  0.68770382002E+03  0.17154272311E+03 0.  0.
        -24    2    5    5    0    0  0.57871330823E+00  0.18044926891E+02  0.20488577418E+03  0.22050783677E+03  0.79495731464E+02 0.  0.
          5    1    3    3  501    0 -0.39392032979E+02 -0.13027854580E+02  0.66280459379E+02  0.78336750971E+02  0.47000000000E+01 0. -1.
        -13    1    4    4    0    0  0.59217231194E+02  0.30582491353E+02  0.79963245096E+02  0.10409654084E+03  0.00000000000E+00 0.  1.
         14    1    4    4    0    0  0.18402470677E+02  0.62083393736E+02  0.92552087954E+01  0.65411448498E+02  0.00000000000E+00 0. -1.
         -5    1    5    5    0  502 -0.38806382200E+02 -0.97682957400E+02  0.45519457521E+03  0.46719598325E+03  0.47000000000E+01 0.  1.
         11    1    6    6    0    0  0.14915969512E+02 -0.15876227348E+02  0.13536888427E+02  0.25647379780E+02  0.00000000000E+00 0. -1.
        -12    1    6    6    0    0 -0.14337256203E+02  0.33921154240E+02  0.19134888575E+03  0.19486045699E+03  0.00000000000E+00 0.  1.
</event>
<event>
12    1  0.1615162E-001  0.1971354E+03  0.7818608E-02  0.1152750E+00
         21   -1    0    0  501  502  0.00000000000E+00  0.00000000000E+00  0.39110027978E+02  0.39110027978E+02  0.00000000000E+00 0.  1.
         21   -1    0    0  502  503 -0.00000000000E+00 -0.00000000000E+00 -0.16277380081E+04  0.16277380081E+04  0.00000000000E+00 0.  1.
         -6    2    1    2    0  503  0.44722610950E+02  0.79322497634E+02 -0.13166604247E+04  0.13309481870E+04  0.17186108320E+03 0.  0.
        -24    2    3    3    0    0  0.27617774245E+02 -0.24262859594E+02 -0.69719644786E+03  0.70263281214E+03  0.79111023099E+02 0.  0.
          6    2    1    2  501    0 -0.44722610950E+02 -0.79322497634E+02 -0.27196755544E+03  0.33589984910E+03  0.17484332088E+03 0.  0.
         24    2    5    5    0    0  0.15300539240E+01  0.15210653156E+02 -0.65969080782E+02  0.10452723368E+03  0.79626113354E+02 0.  0.
          5    1    5    5  501    0 -0.46252664874E+02 -0.94533150791E+02 -0.20599847465E+03  0.23137261542E+03  0.47000000000E+01 0. -1.
        -11    1    6    6    0    0 -0.31996664180E+02  0.11288395849E+02 -0.42689173715E+01  0.34197047461E+02  0.00000000000E+00 0.  1.
         12    1    6    6    0    0  0.33526718104E+02  0.39222573073E+01 -0.61700163411E+02  0.70330186223E+02  0.00000000000E+00 0. -1.
         -5    1    3    3    0  503  0.17104836705E+02  0.10358535723E+03 -0.61946397686E+03  0.62831537487E+03  0.47000000000E+01 0.  1.
         13    1    4    4    0    0  0.31470452776E+01  0.66183757406E+01 -0.55582479122E+03  0.55587310182E+03  0.00000000000E+00 0. -1.
        -14    1    4    4    0    0  0.24470728967E+02 -0.30881235335E+02 -0.14137165664E+03  0.14675971032E+03  0.00000000000E+00 0.  1.
</event>
<event>
12    1  0.1615162E-001  0.1994533E+03  0.7818608E-02  0.1151084E+00
         21   -1    0    0  501  502  0.00000000000E+00  0.00000000000E+00  0.11168453318E+04  0.11168453318E+04  0.00000000000E+00 0.  1.
         21   -1    0    0  502  503 -0.00000000000E+00 -0.00000000000E+00 -0.59025977675E+02  0.59025977675E+02  0.00000000000E+00 0.  1.
         -6    2    1    2    0  503 -0.92189199258E+02 -0.48660894611E+01  0.15620311581E+03  0.25333977477E+03  0.17680243439E+03 0.  0.
        -24    2    3    3    0    0  0.14906127647E+02  0.11747366904E+02  0.31485879078E+02  0.88046414000E+02  0.80003857197E+02 0.  0.
          6    2    1    2  501    0  0.92189199258E+02  0.48660894611E+01  0.90161623830E+03  0.92253153468E+03  0.17213385500E+03 0.  0.
         24    2    5    5    0    0  0.13269102190E+03 -0.28916115269E+01  0.73522641708E+03  0.75104321973E+03  0.76764345997E+02 0.  0.
          5    1    5    5  501    0 -0.40501822642E+02  0.77577009880E+01  0.16638982122E+03  0.17148831496E+03  0.47000000000E+01 0. -1.
        -11    1    6    6    0    0  0.95958849527E+02 -0.29816453604E+02  0.38621709024E+03  0.39907488333E+03  0.00000000000E+00 0.  1.
         12    1    6    6    0    0  0.36732172372E+02  0.26924842077E+02  0.34900932683E+03  0.35196833640E+03  0.00000000000E+00 0. -1.
         -5    1    3    3    0  503 -0.10709532690E+03 -0.16613456365E+02  0.12471723673E+03  0.16529336077E+03  0.47000000000E+01 0.  1.
         13    1    4    4    0    0  0.62908026181E+01  0.43351300902E+02  0.18050676221E+01  0.43842533647E+02  0.00000000000E+00 0. -1.
        -14    1    4    4    0    0  0.86153250291E+01 -0.31603933999E+02  0.29680811456E+02  0.44203880353E+02  0.00000000000E+00 0.  1.
</event>
<event>
12    1  0.1615162E-001  0.1786167E+03  0.7818608E-02  0.1169486E+00
         21   -1    0    0  501  502  0.00000000000E+00  0.00000000000E+00  0.35249863335E+03  0.35249863335E+03  0.00000000000E+00 0. -1.
         21   -1    0    0  502  503 -0.00000000000E+00 -0.00000000000E+00 -0.97240991571E+02  0.97240991571E+02  0.00000000000E+00 0. -1.
         -6    2    1    2    0  503  0.11484359091E+02 -0.48341546532E+02  0.18932535540E+03  0.25934269156E+03  0.17013449339E+03 0.  0.
        -24    2    3    3    0    0 -0.38127392285E+01 -0.44052151127E+02  0.25192282477E+02  0.94375556171E+02  0.79479340126E+02 0.  0.
          6    2    1    2  501    0 -0.11484359091E+02  0.48341546532E+02  0.65932286371E+02  0.19039693336E+03  0.17156669322E+03 0.  0.
         24    2    5    5    0    0 -0.40084193059E+02 -0.20088120890E+02  0.70831138305E+02  0.11592104037E+03  0.80064738257E+02 0.  0.
          5    1    5    5  501    0  0.28599833968E+02  0.68429667422E+02 -0.48988519348E+01  0.74475892990E+02  0.47000000000E+01 0. -1.
        -11    1    6    6    0    0  0.11746680881E+02 -0.35389027881E+02  0.23442733502E+02  0.44044631456E+02  0.00000000000E+00 0.  1.
         12    1    6    6    0    0 -0.51830873940E+02  0.15300906991E+02  0.47388404803E+02  0.71876408911E+02  0.00000000000E+00 0. -1.
         -5    1    3    3    0  503  0.15297098320E+02 -0.42893954054E+01  0.16413307293E+03  0.16496713539E+03  0.47000000000E+01 0.  1.
         11    1    4    4    0    0  0.21376629774E+02 -0.57952703355E+02  0.12968919343E+02  0.63116313229E+02  0.00000000000E+00 0. -1.
        -12    1    4    4    0    0 -0.25189369003E+02  0.13900552229E+02  0.12223363134E+02  0.31259242942E+02  0.00000000000E+00 0.  1.
</event>
<event>
12    1  0.1615162E-001  0.1933694E+03  0.7818608E-02  0.1155494E+00
         21   -1    0    0  503  502  0.00000000000E+00  0.00000000000E+00  0.42793117043E+02  0.42793117043E+02  0.00000000000E+00 0.  1.
         21   -1    0    0  501  503 -0.00000000000E+00 -0.00000000000E+00 -0.18741265941E+04  0.18741265941E+04  0.00000000000E+00 0.  1.
          6    2    1    2  501    0 -0.55019282986E+02  0.69391871074E+02 -0.16159919659E+04  0.16275001338E+04  0.17170992587E+03 0.  0.
         24    2    3    3    0    0  0.25079550548E+02  0.41866092725E+02 -0.11607958644E+04  0.11644676594E+04  0.78461056467E+02 0.  0.
         -6    2    1    2    0  502  0.55019282986E+02 -0.69391871074E+02 -0.21534151121E+03  0.28941957732E+03  0.17189930778E+03 0.  0.
        -24    2    5    5    0    0  0.81854034691E+02  0.15711203446E+01 -0.15029115666E+03  0.18937214518E+03  0.81066800770E+02 0.  0.
          5    1    3    3  501    0 -0.80098833534E+02  0.27525778349E+02 -0.45519610144E+03  0.46303247442E+03  0.47000000000E+01 0. -1.
        -11    1    4    4    0    0 -0.18425353834E+01  0.57762660455E+02 -0.88967028267E+03  0.89154536158E+03  0.00000000000E+00 0.  1.
         12    1    4    4    0    0  0.26922085931E+02 -0.15896567730E+02 -0.27112558176E+03  0.27292229785E+03  0.00000000000E+00 0. -1.
         -5    1    5    5    0  502 -0.26834751705E+02 -0.70962991419E+02 -0.65050354557E+02  0.10004743214E+03  0.47000000000E+01 0.  1.
         11    1    6    6    0    0 -0.11032494662E+02 -0.73959651474E+01 -0.52687508695E+02  0.54335898000E+02  0.00000000000E+00 0. -1.
        -12    1    6    6    0    0  0.92886529353E+02  0.89670854919E+01 -0.97603647961E+02  0.13503624718E+03  0.00000000000E+00 0.  1.
</event>
<event>
12    1  0.1615162E-001  0.2055672E+03  0.7818608E-02  0.1145837E+00
         21   -1    0    0  503  502  0.00000000000E+00  0.00000000000E+00  0.79500485915E+02  0.79500485915E+02  0.00000000000E+00 0.  1.
         21   -1    0    0  501  503 -0.00000000000E+00 -0.00000000000E+00 -0.52400624257E+03  0.52400624257E+03  0.00000000000E+00 0.  1.
          6    2    1    2  501    0  0.98360142988E+02 -0.52449401161E+02 -0.23588318722E+03  0.31062234949E+03  0.16858145977E+03 0.  0.
         24    2    3    3    0    0  0.50683875763E+02 -0.96262029762E+02 -0.13226219355E+03  0.18834408809E+03  0.78389884811E+02 0.  0.
         -6    2    1    2    0  502 -0.98360142988E+02  0.52449401161E+02 -0.20862256943E+03  0.29288437899E+03  0.17272007866E+03 0.  0.
        -24    2    5    5    0    0 -0.15226650743E+02 -0.28088822980E+02 -0.13319055410E+03  0.15464667785E+03  0.71798596075E+02 0.  0.
          5    1    3    3  501    0  0.47676267225E+02  0.43812628601E+02 -0.10362099367E+03  0.12227826140E+03  0.47000000000E+01 0. -1.
        -11    1    4    4    0    0  0.71769953460E+02 -0.71233207910E+02 -0.10468350148E+03  0.14554632118E+03  0.00000000000E+00 0.  1.
         12    1    4    4    0    0 -0.21086077697E+02 -0.25028821852E+02 -0.27578692075E+02  0.42797766910E+02  0.00000000000E+00 0. -1.
         -5    1    5    5    0  502 -0.83133492244E+02  0.80538224141E+02 -0.75432015326E+02  0.13823770114E+03  0.47000000000E+01 0.  1.
         13    1    6    6    0    0 -0.84436618816E+01 -0.26943085209E+01  0.74454929172E+01  0.11575408812E+02  0.00000000000E+00 0. -1.
        -14    1    6    6    0    0 -0.67829888616E+01 -0.25394514459E+02 -0.14063604702E+03  0.14307126904E+03  0.00000000000E+00 0.  1.
</event>
<event>
12    1  0.1615162E-001  0.3201280E+03  0.7818608E-02  0.1075621E+00
         21   -1    0    0  501  502  0.00000000000E+00  0.00000000000E+00  0.68086582350E+03  0.68086582350E+03  0.00000000000E+00 0. -1.
         21   -1    0    0  502  503 -0.00000000000E+00 -0.00000000000E+00 -0.18314633250E+03  0.18314633250E+03  0.00000000000E+00 0.  1.
         -6    2    1    2    0  503  0.20969607389E+03  0.16969747688E+03  0.66252574920E+02  0.32691177679E+03  0.17237235584E+03 0.  0.
        -24    2    3    3    0    0  0.59338545304E+02  0.98647760054E+01  0.30293973470E+02  0.10449552359E+03  0.79895011462E+02 0.  0.
          6    2    1    2  501    0 -0.20969607389E+03 -0.16969747688E+03  0.43146691608E+03  0.53710037920E+03  0.17188205434E+03 0.  0.
         24    2    5    5    0    0 -0.14409927002E+03 -0.46445385623E+02  0.17532444012E+03  0.24533835860E+03  0.80811369437E+02 0.  0.
          5    1    5    5  501    0 -0.65596803868E+02 -0.12325209126E+03  0.25614247596E+03  0.29176202060E+03  0.47000000000E+01 0. -1.
        -11    1    6    6    0    0 -0.11921089480E+03 -0.37122845134E+02  0.84645631488E+02  0.15084503969E+03  0.00000000000E+00 0.  1.
         12    1    6    6    0    0 -0.24888375215E+02 -0.93225404889E+01  0.90678808635E+02  0.94493318903E+02  0.00000000000E+00 0. -1.
         -5    1    3    3    0  503  0.15035752858E+03  0.15983270088E+03  0.35958601450E+02  0.22241625320E+03  0.47000000000E+01 0.  1.
         11    1    4    4    0    0 -0.19464533916E+02  0.74409857607E+01  0.29400684420E+01  0.21044722667E+02  0.00000000000E+00 0. -1.
        -12    1    4    4    0    0  0.78803079221E+02  0.24237902447E+01  0.27353905028E+02  0.83450800919E+02  0.00000000000E+00 0.  1.
</event>
<event>
12    1  0.1615162E-001  0.2425675E+03  0.7818608E-02  0.1118317E+00
         21   -1    0    0  501  502  0.00000000000E+00  0.00000000000E+00  0.67807075293E+03  0.67807075293E+03  0.00000000000E+00 0.  1.
         21   -1    0    0  502  503 -0.00000000000E+00 -0.00000000000E+00 -0.92195470546E+02  0.92195470546E+02  0.00000000000E+00 0. -1.
         -6    2    1    2    0  503 -0.37503816164E+02  0.16702143836E+03  0.19471072095E+03  0.30999594653E+03  0.16994859490E+03 0.  0.
        -24    2    3    3    0    0  0.26150996423E+02  0.12611484336E+03  0.17591944444E+03  0.23189033371E+03  0.78972448409E+02 0.  0.
          6    2    1    2  501    0  0.37503816164E+02 -0.16702143836E+03  0.39116456143E+03  0.46027027695E+03  0.17186132964E+03 0.  0.
         24    2    5    5    0    0  0.88022288266E+02 -0.14055209825E+03  0.30953859571E+03  0.36058261338E+03  0.81871016116E+02 0.  0.
          5    1    5    5  501    0 -0.50518472102E+02 -0.26469340104E+02  0.81625965715E+02  0.99687663569E+02  0.47000000000E+01 0. -1.
        -13    1    6    6    0    0  0.68843751718E+02 -0.84529850985E+02  0.12054348080E+03  0.16252842404E+03  0.00000000000E+00 0.  1.
         14    1    6    6    0    0  0.19178536548E+02 -0.56022247269E+02  0.18899511491E+03  0.19805418933E+03  0.00000000000E+00 0. -1.
         -5    1    3    3    0  503 -0.63654812587E+02  0.40906594996E+02  0.18791276515E+02  0.78105612812E+02  0.47000000000E+01 0.  1.
         13    1    4    4    0    0  0.19086124194E+02  0.12617203236E+03  0.11883871728E+03  0.17437403078E+03  0.00000000000E+00 0. -1.
        -14    1    4    4    0    0  0.70648722293E+01 -0.57188993256E-01  0.57080727158E+02  0.57516302933E+02  0.00000000000E+00 0.  1.
</event>
<event>
12    1  0.1615162E-001  0.1723830E+03  0.7818608E-02  0.1175898E+00
         21   -1    0    0  501  502  0.00000000000E+00  0.00000000000E+00  0.51116931210E+03  0.51116931210E+03  0.00000000000E+00 0.  1.
         21   -1    0    0  502  503 -0.00000000000E+00 -0.00000000000E+00 -0.15107724715E+03  0.15107724715E+03  0.00000000000E+00 0.  1.
         -6    2    1    2    0  503  0.93098780649E+01 -0.13704191073E+02 -0.81000552444E+02  0.18866594943E+03  0.16958558989E+03 0.  0.
        -24    2    3    3    0    0 -0.40629490781E+02 -0.57400913238E+02 -0.38309750418E+02  0.10962204602E+03  0.74858103342E+02 0.  0.
          6    2    1    2  501    0 -0.93098780649E+01  0.13704191073E+02  0.44109261739E+03  0.47358060982E+03  0.17158501741E+03 0.  0.
         24    2    5    5    0    0 -0.32572142347E+02  0.46288617443E+02  0.41329430655E+03  0.42461415327E+03  0.79255376929E+02 0.  0.
          5    1    5    5  501    0  0.23262264282E+02 -0.32584426370E+02  0.27798310849E+02  0.48966456554E+02  0.47000000000E+01 0. -1.
        -13    1    6    6    0    0 -0.49409115909E+02  0.21205472313E+02  0.35407672649E+03  0.35813581367E+03  0.00000000000E+00 0.  1.
         14    1    6    6    0    0  0.16836973561E+02  0.25083145130E+02  0.59217580054E+02  0.66478339598E+02  0.00000000000E+00 0. -1.
         -5    1    3    3    0  503  0.49939368846E+02  0.43696722164E+02 -0.42690802026E+02  0.79043903410E+02  0.47000000000E+01 0.  1.
         13    1    4    4    0    0 -0.97636057730E+01  0.10642319153E+02  0.12635566443E+02  0.19189697600E+02  0.00000000000E+00 0. -1.
        -14    1    4    4    0    0 -0.30865885008E+02 -0.68043232390E+02 -0.50945316861E+02  0.90432348424E+02  0.00000000000E+00 0.  1.
</event>
<event>
12    1  0.1615162E-001  0.2196634E+03  0.7818608E-02  0.1134316E+00
         21   -1    0    0  501  502  0.00000000000E+00  0.00000000000E+00  0.16255352625E+03  0.16255352625E+03  0.00000000000E+00 0. -1.
         21   -1    0    0  502  503 -0.00000000000E+00 -0.00000000000E+00 -0.30602355025E+03  0.30602355025E+03  0.00000000000E+00 0. -1.
         -6    2    1    2    0  503 -0.55992141103E+02  0.12251564340E+03 -0.28195504938E+02  0.22050402900E+03  0.17228417676E+03 0.  0.
        -24    2    3    3    0    0 -0.98491683078E+02  0.12017742582E+03 -0.32023675094E+02  0.17751073631E+03  0.79632408137E+02 0.  0.
          6    2    1    2  501    0  0.55992141103E+02 -0.12251564340E+03 -0.11527451906E+03  0.24807304750E+03  0.17351316782E+03 0.  0.
         24    2    5    5    0    0  0.35728863650E+01 -0.74799504697E+02  0.44057942763E+01  0.10889662866E+03  0.78938794582E+02 0.  0.
          5    1    5    5  501    0  0.52419254738E+02 -0.47716138701E+02 -0.11968031334E+03  0.13917641884E+03  0.47000000000E+01 0. -1.
        -11    1    6    6    0    0 -0.15630092768E+02 -0.83098776618E+02  0.14297554748E+02  0.85756204132E+02  0.00000000000E+00 0.  1.
         12    1    6    6    0    0  0.19202979133E+02  0.82992719212E+01 -0.98917604717E+01  0.23140424526E+02  0.00000000000E+00 0. -1.
         -5    1    3    3    0  503  0.42499541974E+02  0.23382175783E+01  0.38281701564E+01  0.42993292689E+02  0.47000000000E+01 0.  1.
         11    1    4    4    0    0 -0.53352906626E+02  0.72589562608E+02  0.21771787494E+02  0.92681109055E+02  0.00000000000E+00 0. -1.
        -12    1    4    4    0    0 -0.45138776452E+02  0.47587863212E+02 -0.53795462588E+02  0.84829627252E+02  0.00000000000E+00 0.  1.
</event>
<event>
12    1  0.1615162E-001  0.1886495E+03  0.7818608E-02  0.1161311E+00
         21   -1    0    0  503  502  0.00000000000E+00  0.00000000000E+00  0.23260924003E+03  0.23260924003E+03  0.00000000000E+00 0.  1.
         21   -1    0    0  501  503 -0.00000000000E+00 -0.00000000000E+00 -0.17478930232E+03  0.17478930232E+03  0.00000000000E+00 0. -1.
          6    2    1    2  501    0  0.69967871939E+02  0.34825906073E+02 -0.52213022365E+02  0.18900464950E+03  0.16397625130E+03 0.  0.
         24    2    3    3    0    0  0.48431641705E+01 -0.21468106024E+02  0.10440578138E+02  0.82431636897E+02  0.78750449359E+02 0.  0.
         -6    2    1    2    0  502 -0.69967871939E+02 -0.34825906073E+02  0.11003296008E+03  0.21839389285E+03  0.17169826235E+03 0.  0.
        -24    2    5    5    0    0 -0.17826315792E+02  0.28213781626E+02  0.48965249752E+01  0.85095340384E+02  0.78124554334E+02 0.  0.
          5    1    3    3  501    0  0.65124707768E+02  0.56294012096E+02 -0.62653600503E+02  0.10657301261E+03  0.47000000000E+01 0. -1.
        -11    1    4    4    0    0  0.40837872515E+02 -0.20034871405E+02  0.25801291374E+01  0.45560783248E+02  0.00000000000E+00 0.  1.
         12    1    4    4    0    0 -0.35994708345E+02 -0.14332346183E+01  0.78604490006E+01  0.36870853649E+02  0.00000000000E+00 0. -1.
         -5    1    5    5    0  502 -0.52141556147E+02 -0.63039687699E+02  0.10513643511E+03  0.13329855247E+03  0.47000000000E+01 0.  1.
         13    1    6    6    0    0 -0.32874575295E+02  0.44658351850E+02  0.19115358465E+02  0.58655801248E+02  0.00000000000E+00 0. -1.
        -14    1    6    6    0    0  0.15048259503E+02 -0.16444570224E+02 -0.14218833490E+02  0.26439539136E+02  0.00000000000E+00 0.  1.
</event>
<event>
12    1  0.1615162E-001  0.1835522E+03  0.7818608E-02  0.1164648E+00
         21   -1    0    0  503  502  0.00000000000E+00  0.00000000000E+00  0.19296851809E+03  0.19296851809E+03  0.00000000000E+00 0. -1.
         21   -1    0    0  501  503 -0.00000000000E+00 -0.00000000000E+00 -0.55229990610E+03  0.55229990610E+03  0.00000000000E+00 0. -1.
          6    2    1    2  501    0  0.49566231644E+02 -0.28619333794E+02 -0.48836907924E+03  0.52172384648E+03  0.17440050701E+03 0.  0.
         24    2    3    3    0    0 -0.35374353849E+02  0.12071976999E+02 -0.27406482555E+03  0.28758907976E+03  0.78732919767E+02 0.  0.
         -6    2    1    2    0  502 -0.49566231644E+02  0.28619333794E+02  0.12903769123E+03  0.22354457772E+03  0.17333659418E+03 0.  0.
        -24    2    5    5    0    0 -0.72433570803E+02  0.67654235723E+02  0.52142575758E+02  0.13420484662E+03  0.73948460833E+02 0.  0.
          5    1    3    3  501    0  0.84940585492E+02 -0.40691310793E+02 -0.21430425369E+03  0.23413476672E+03  0.47000000000E+01 0. -1.
        -13    1    4    4    0    0 -0.97001418379E+01  0.11464281068E+01  0.21227497962E+01  0.99956548448E+01  0.00000000000E+00 0.  1.
         14    1    4    4    0    0 -0.25674212011E+02  0.10925548892E+02 -0.27618757534E+03  0.27759342491E+03  0.00000000000E+00 0. -1.
         -5    1    5    5    0  502  0.22867339160E+02 -0.39034901930E+02  0.76895115469E+02  0.89339731093E+02  0.47000000000E+01 0.  1.
         13    1    6    6    0    0  0.92249520561E+01 -0.67621135996E+01  0.12206739390E+02  0.16728132212E+02  0.00000000000E+00 0. -1.
        -14    1    6    6    0    0 -0.81658522859E+02  0.74416349323E+02  0.39935836368E+02  0.11747671441E+03  0.00000000000E+00 0.  1.
</event>
<event>
12    1  0.1615162E-001  0.2561464E+03  0.7818608E-02  0.1109665E+00
         21   -1    0    0  503  502  0.00000000000E+00  0.00000000000E+00  0.14676457862E+03  0.14676457862E+03  0.00000000000E+00 0.  1.
         21   -1    0    0  501  503 -0.00000000000E+00 -0.00000000000E+00 -0.61044896514E+03  0.61044896514E+03  0.00000000000E+00 0.  1.
          6    2    1    2  501    0  0.55495039168E+02 -0.17997164939E+03 -0.42936352108E+03  0.49996400710E+03  0.17361302142E+03 0.  0.
         24    2    3    3    0    0  0.87199499987E+01 -0.17541998638E+03 -0.40118473887E+03  0.44496618560E+03  0.78724217842E+02 0.  0.
         -6    2    1    2    0  502 -0.55495039168E+02  0.17997164939E+03 -0.34320865442E+02  0.25724953665E+03  0.17184268488E+03 0.  0.
        -24    2    5    5    0    0 -0.86682541604E+02  0.17614842777E+03 -0.42593408471E+01  0.21351096566E+03  0.83825168336E+02 0.  0.
          5    1    3    3  501    0  0.46775089169E+02 -0.45516630048E+01 -0.28178782208E+02  0.54997821499E+02  0.47000000000E+01 0. -1.
        -13    1    4    4    0    0 -0.20563837080E+02 -0.57790565571E+02 -0.20838203882E+03  0.21722268520E+03  0.00000000000E+00 0.  1.
         14    1    4    4    0    0  0.29283787078E+02 -0.11762942081E+03 -0.19280270005E+03  0.22774350040E+03  0.00000000000E+00 0. -1.
         -5    1    5    5    0  502  0.31187502437E+02  0.38232216182E+01 -0.30061524595E+02  0.43738570996E+02  0.47000000000E+01 0.  1.
         11    1    6    6    0    0 -0.95869436960E+01  0.62264662355E+01  0.22277936073E+02  0.25039664672E+02  0.00000000000E+00 0. -1.
        -12    1    6    6    0    0 -0.77095597909E+02  0.16992196153E+03 -0.26537276921E+02  0.18847130098E+03  0.00000000000E+00 0.  1.
</event>
<event>
12    1  0.1615162E-001  0.1944421E+03  0.7818608E-02  0.1155792E+00
         21   -1    0    0  503  502  0.00000000000E+00  0.00000000000E+00  0.99883921158E+03  0.99883921158E+03  0.00000000000E+00 0.  1.
         21   -1    0    0  501  503 -0.00000000000E+00 -0.00000000000E+00 -0.54396624068E+02  0.54396624068E+02  0.00000000000E+00 0.  1.
          6    2    1    2  501    0  0.37644271634E+02 -0.84773281678E+02  0.16745089551E+03  0.25228401056E+03  0.16432838800E+03 0.  0.
         24    2    3    3    0    0  0.72157014061E+02 -0.61111157353E+02  0.63303617630E+02  0.13994625641E+03  0.81464092994E+02 0.  0.
         -6    2    1    2    0  502 -0.37644271634E+02  0.84773281678E+02  0.77699169201E+03  0.80095182509E+03  0.17089217711E+03 0.  0.
        -24    2    5    5    0    0 -0.71324982402E+02  0.99773170662E+02  0.50451460164E+03  0.52595138560E+03  0.83951998457E+02 0.  0.
          5    1    3    3  501    0 -0.34512742427E+02 -0.23662124325E+02  0.10414727788E+03  0.11233775415E+03  0.47000000000E+01 0. -1.
        -13    1    4    4    0    0  0.38593235174E+02 -0.77593885181E+02  0.51136059107E+02  0.10062378128E+03  0.00000000000E+00 0.  1.
         14    1    4    4    0    0  0.33563778887E+02  0.16482727828E+02  0.12167558523E+02  0.39322475129E+02  0.00000000000E+00 0. -1.
         -5    1    5    5    0  502  0.33680710768E+02 -0.14999888984E+02  0.27247709037E+03  0.27500043950E+03  0.47000000000E+01 0.  1.
         13    1    6    6    0    0 -0.41848258074E+01 -0.49350899651E+01  0.15196507505E+03  0.15210276761E+03  0.00000000000E+00 0. -1.
        -14    1    6    6    0    0 -0.67140156595E+02  0.10470826063E+03  0.35254952659E+03  0.37384861798E+03  0.00000000000E+00 0.  1.
</event>
<event>
12    1  0.1615162E-001  0.2028209E+03  0.7818608E-02  0.1147568E+00
         21   -1    0    0  501  502  0.00000000000E+00  0.00000000000E+00  0.46266185278E+02  0.46266185278E+02  0.00000000000E+00 0. -1.
         21   -1    0    0  502  503 -0.00000000000E+00 -0.00000000000E+00 -0.97362758982E+03  0.97362758982E+03  0.00000000000E+00 0.  1.
         -6    2    1    2    0  503  0.10388231830E+03  0.29449483724E+02 -0.61644299150E+03  0.64867066633E+03  0.17062492035E+03 0.  0.
        -24    2    3    3    0    0  0.95740483768E+02 -0.39810437692E+02 -0.40805752790E+03  0.42887572184E+03  0.81684316285E+02 0.  0.
          6    2    1    2  501    0 -0.10388231830E+03 -0.29449483724E+02 -0.31091841304E+03  0.37122310877E+03  0.17169021162E+03 0.  0.
         24    2    5    5    0    0 -0.53901106958E+01 -0.23062000695E+02 -0.22739757121E+03  0.24184252321E+03  0.78849486190E+02 0.  0.
          5    1    5    5  501    0 -0.98492207603E+02 -0.63874830296E+01 -0.83520841834E+02  0.12938058556E+03  0.47000000000E+01 0. -1.
        -11    1    6    6    0    0  0.84767620991E+01 -0.50578728191E+02 -0.13310190144E+03  0.14264003438E+03  0.00000000000E+00 0.  1.
         12    1    6    6    0    0 -0.13866872795E+02  0.27516727496E+02 -0.94295669769E+02  0.99202488831E+02  0.00000000000E+00 0. -1.
         -5    1    3    3    0  503  0.81418345302E+01  0.69259921416E+02 -0.20838546360E+03  0.21979494449E+03  0.47000000000E+01 0.  1.
         13    1    4    4    0    0  0.73575192211E+02 -0.13349833251E+02 -0.14104101802E+03  0.15963738823E+03  0.00000000000E+00 0. -1.
        -14    1    4    4    0    0  0.22165291557E+02 -0.26460604441E+02 -0.26701650988E+03  0.26923833361E+03  0.00000000000E+00 0.  1.
</event>
<event>
12    1  0.1615162E-001  0.2003044E+03  0.7818608E-02  0.1150320E+00
         21   -1    0    0  501  502  0.00000000000E+00  0.00000000000E+00  0.32384417522E+02  0.32384417522E+02  0.00000000000E+00 0. -1.
         21   -1    0    0  502  503 -0.00000000000E+00 -0.00000000000E+00 -0.13221091334E+04  0.13221091334E+04  0.00000000000E+00 0. -1.
         -6    2    1    2    0  503  0.92289872194E+02 -0.31717276433E+02 -0.83202089908E+03  0.85487907885E+03  0.17039969723E+03 0.  0.
        -24    2    3    3    0    0  0.59304724164E+02 -0.82436953031E+02 -0.66015026074E+03  0.67260973994E+03  0.79325872008E+02 0.  0.
          6    2    1    2  501    0 -0.92289872194E+02  0.31717276433E+02 -0.45770381676E+03  0.49961447204E+03  0.17492407111E+03 0.  0.
         24    2    5    5    0    0  0.18012066437E+02  0.29524261089E+02 -0.19493668476E+03  0.21458818791E+03  0.82774771487E+02 0.  0.
          5    1    5    5  501    0 -0.11030193863E+03  0.21930153441E+01 -0.26276713201E+03  0.28502628413E+03  0.47000000000E+01 0. -1.
        -11    1    6    6    0    0  0.15340679383E+02  0.58362656667E+02 -0.14092283415E+03  0.15329964553E+03  0.00000000000E+00 0.  1.
         12    1    6    6    0    0  0.26713870536E+01 -0.28838395578E+02 -0.54013850614E+02  0.61288542375E+02  0.00000000000E+00 0. -1.
         -5    1    3    3    0  503  0.32985148030E+02  0.50719676597E+02 -0.17187063834E+03  0.18226933891E+03  0.47000000000E+01 0.  1.
         11    1    4    4    0    0  0.75466556358E+02 -0.82274258442E+02 -0.54378288490E+03  0.55512528373E+03  0.00000000000E+00 0. -1.
        -12    1    4    4    0    0 -0.16161832194E+02 -0.16269458879E+00 -0.11636737584E+03  0.11748445620E+03  0.00000000000E+00 0.  1.
</event>
<event>
12    1  0.1615162E-001  0.2119346E+03  0.7818608E-02  0.1140262E+00
         21   -1    0    0  503  502  0.00000000000E+00  0.00000000000E+00  0.57292476053E+03  0.57292476053E+03  0.00000000000E+00 0.  1.
         21   -1    0    0  501  503 -0.00000000000E+00 -0.00000000000E+00 -0.88844175753E+02  0.88844175753E+02  0.00000000000E+00 0.  1.
          6    2    1    2  501    0 -0.42481850823E+02  0.11609567381E+03  0.12580531449E+03  0.24550284559E+03  0.17076813786E+03 0.  0.
         24    2    3    3    0    0  0.30244111599E+02  0.34879071228E+02  0.21812299599E+02  0.94765195037E+02  0.79833638778E+02 0.  0.
         -6    2    1    2    0  502  0.42481850823E+02 -0.11609567381E+03  0.35827527029E+03  0.41626609070E+03  0.17214347458E+03 0.  0.
        -24    2    5    5    0    0  0.17646257900E+02 -0.28758079624E+00  0.84060041858E+02  0.11752807406E+03  0.80220224598E+02 0.  0.
          5    1    3    3  501    0 -0.72725962422E+02  0.81216602586E+02  0.10399301490E+03  0.15073765055E+03  0.47000000000E+01 0. -1.
        -13    1    4    4    0    0  0.12979053961E+02  0.59221947420E+02  0.23135950206E+02  0.64891964755E+02  0.00000000000E+00 0.  1.
         14    1    4    4    0    0  0.17265057637E+02 -0.24342876192E+02 -0.13236506069E+01  0.29873230281E+02  0.00000000000E+00 0. -1.
         -5    1    5    5    0  502  0.24835592923E+02 -0.11580809302E+03  0.27421522843E+03  0.29873801664E+03  0.47000000000E+01 0.  1.
         13    1    6    6    0    0  0.49259147630E+02 -0.58052784515E+01  0.56927470819E+02  0.75504316546E+02  0.00000000000E+00 0. -1.
        -14    1    6    6    0    0 -0.31612889730E+02  0.55176976552E+01  0.27132571039E+02  0.42023757515E+02  0.00000000000E+00 0.  1.
</event>
<event>
12    1  0.1615162E-001  0.1930961E+03  0.7818608E-02  0.1156581E+00
         21   -1    0    0  503  502  0.00000000000E+00  0.00000000000E+00  0.28927018599E+03  0.28927018599E+03  0.00000000000E+00 0. -1.
         21   -1    0    0  501  503 -0.00000000000E+00 -0.00000000000E+00 -0.31173769850E+03  0.31173769850E+03  0.00000000000E+00 0. -1.
          6    2    1    2  501    0  0.74446076890E+02  0.39857807593E+02 -0.24306339983E+03  0.31042861375E+03  0.17365265535E+03 0.  0.
         24    2    3    3    0    0  0.18905553354E+02  0.24227058508E+02 -0.30229001375E+02  0.89861977026E+02  0.78848031550E+02 0.  0.
         -6    2    1    2    0  502 -0.74446076890E+02 -0.39857807593E+02  0.22059588732E+03  0.29057927074E+03  0.16924214573E+03 0.  0.
        -24    2    5    5    0    0 -0.84587583165E+02 -0.60357005667E+02  0.23087707229E+03  0.26506731207E+03  0.78475665376E+02 0.  0.
          5    1    3    3  501    0  0.55540523536E+02  0.15630749085E+02 -0.21283439845E+03  0.22056663672E+03  0.47000000000E+01 0. -1.
        -11    1    4    4    0    0  0.19496065084E+02 -0.24056049203E+02 -0.27639609160E+02  0.41505879723E+02  0.00000000000E+00 0.  1.
         12    1    4    4    0    0 -0.59051172946E+00  0.48283107711E+02 -0.25893922146E+01  0.48356097303E+02  0.00000000000E+00 0. -1.
         -5    1    5    5    0  502  0.10141506275E+02  0.20499198073E+02 -0.10281184973E+02  0.25511958679E+02  0.47000000000E+01 0.  1.
         11    1    6    6    0    0 -0.87745217760E+02 -0.21013300640E+02  0.14935293272E+03  0.17449091826E+03  0.00000000000E+00 0. -1.
        -12    1    6    6    0    0  0.31576345948E+01 -0.39343705027E+02  0.81524139572E+02  0.90576393803E+02  0.00000000000E+00 0.  1.
</event>
<event>
12    1  0.1615162E-001  0.2714154E+03  0.7818608E-02  0.1100621E+00
         21   -1    0    0  501  502  0.00000000000E+00  0.00000000000E+00  0.10552508793E+03  0.10552508793E+03  0.00000000000E+00 0.  1.
         21   -1    0    0  502  503 -0.00000000000E+00 -0.00000000000E+00 -0.90729529353E+03  0.90729529353E+03  0.00000000000E+00 0. -1.
         -6    2    1    2    0  503  0.18239999734E+03 -0.10359231263E+03 -0.15675289823E+03  0.31342911128E+03  0.17223591504E+03 0.  0.
        -24    2    3    3    0    0  0.14941932491E+03 -0.15047728228E+02 -0.13496241007E+03  0.21634778684E+03  0.77710642495E+02 0.  0.
          6    2    1    2  501    0 -0.18239999734E+03  0.10359231263E+03 -0.64501730737E+03  0.69939127017E+03  0.17058632922E+03 0.  0.
         24    2    5    5    0    0 -0.13679352726E+03  0.11379078285E+03 -0.34747396037E+03  0.39816362825E+03  0.78328222060E+02 0.  0.
          5    1    5    5  501    0 -0.45606470087E+02 -0.10198470219E+02 -0.29754334701E+03  0.30122764192E+03  0.47000000000E+01 0. -1.
        -11    1    6    6    0    0 -0.92706082947E+02  0.79521009573E+02 -0.15267355312E+03  0.19551783193E+03  0.00000000000E+00 0.  1.
         12    1    6    6    0    0 -0.44087444310E+02  0.34269773277E+02 -0.19480040724E+03  0.20264579633E+03  0.00000000000E+00 0. -1.
         -5    1    3    3    0  503  0.32980672431E+02 -0.88544584403E+02 -0.21790488159E+02  0.97081324442E+02  0.47000000000E+01 0.  1.
         13    1    4    4    0    0  0.82800286950E+02 -0.88131360478E+01 -0.23801437815E+02  0.86602929096E+02  0.00000000000E+00 0. -1.
        -14    1    4    4    0    0  0.66619037963E+02 -0.62345921801E+01 -0.11116097225E+03  0.12974485774E+03  0.00000000000E+00 0.  1.
</event>
<event>
12    1  0.1615162E-001  0.2184207E+03  0.7818608E-02  0.1135111E+00
         21   -1    0    0  503  502  0.00000000000E+00  0.00000000000E+00  0.12120857759E+03  0.12120857759E+03  0.00000000000E+00 0.  1.
         21   -1    0    0  501  503 -0.00000000000E+00 -0.00000000000E+00 -0.21892988925E+04  0.21892988925E+04  0.00000000000E+00 0. -1.
          6    2    1    2  501    0 -0.37220944645E+02 -0.12906450609E+03 -0.20805378635E+04  0.20919716500E+04  0.17223396131E+03 0.  0.
         24    2    3    3    0    0 -0.22155596820E+02 -0.12765627845E+02 -0.12980611194E+04  0.13007420127E+04  0.79456165921E+02 0.  0.
         -6    2    1    2    0  502  0.37220944645E+02  0.12906450609E+03  0.12447548639E+02  0.21853582005E+03  0.17192997913E+03 0.  0.
        -24    2    5    5    0    0 -0.29099089411E+02  0.95402628812E+02  0.48279133433E+02  0.13584687661E+03  0.78581680880E+02 0.  0.
          5    1    3    3  501    0 -0.15065347825E+02 -0.11629887824E+03 -0.78247674414E+03  0.79122963728E+03  0.47000000000E+01 0. -1.
        -13    1    4    4    0    0  0.10889909836E+02  0.20958339688E+02 -0.16331616293E+03  0.16501518479E+03  0.00000000000E+00 0.  1.
         14    1    4    4    0    0 -0.33045506656E+02 -0.33723967533E+02 -0.11347449565E+04  0.11357268279E+04  0.00000000000E+00 0. -1.
         -5    1    5    5    0  502  0.66320034055E+02  0.33661877277E+02 -0.35831584794E+02  0.82688943443E+02  0.47000000000E+01 0.  1.
         11    1    6    6    0    0 -0.12507015925E+02 -0.75962133157E+01 -0.86497538684E+01  0.16998415987E+02  0.00000000000E+00 0. -1.
        -12    1    6    6    0    0 -0.16592073485E+02  0.10299884213E+03  0.56928887301E+02  0.11884846062E+03  0.00000000000E+00 0.  1.
</event>
<event>
12    1  0.1615162E-001  0.2495919E+03  0.7818608E-02  0.1113738E+00
         21   -1    0    0  501  502  0.00000000000E+00  0.00000000000E+00  0.15017003588E+03  0.15017003588E+03  0.00000000000E+00 0.  1.
         21   -1    0    0  502  503 -0.00000000000E+00 -0.00000000000E+00 -0.68551679976E+03  0.68551679976E+03  0.00000000000E+00 0.  1.
         -6    2    1    2    0  503  0.17410019482E+03 -0.47551785737E+02 -0.53076496343E+03  0.58605293014E+03  0.17080556302E+03 0.  0.
        -24    2    3    3    0    0  0.19826517593E+03 -0.32364318408E+02 -0.42883106902E+03  0.48009438020E+03  0.78981004354E+02 0.  0.
          6    2    1    2  501    0 -0.17410019482E+03  0.47551785737E+02 -0.45818004590E+01  0.24963390550E+03  0.17240662318E+03 0.  0.
         24    2    5    5    0    0 -0.63938504909E+02  0.20747098496E+00  0.54907093908E+02  0.11570071090E+03  0.79269729949E+02 0.  0.
          5    1    5    5  501    0 -0.11016168991E+03  0.47344314752E+02 -0.59488894367E+02  0.13393319460E+03  0.47000000000E+01 0. -1.
        -11    1    6    6    0    0 -0.50891225210E+02  0.27375424039E+02  0.57928072946E+01  0.58076563785E+02  0.00000000000E+00 0.  1.
         12    1    6    6    0    0 -0.13047279699E+02 -0.27167953055E+02  0.49114286614E+02  0.57624147111E+02  0.00000000000E+00 0. -1.
         -5    1    3    3    0  503 -0.24164981113E+02 -0.15187467329E+02 -0.10193389441E+03  0.10595854994E+03  0.47000000000E+01 0.  1.
         13    1    4    4    0    0  0.40992272508E+02  0.25118127254E+02 -0.10713379694E+03  0.11742630527E+03  0.00000000000E+00 0. -1.
        -14    1    4    4    0    0  0.15727290343E+03 -0.57482445662E+02 -0.32169727208E+03  0.36266807494E+03  0.00000000000E+00 0.  1.
</event>
<event>
12    1  0.1615162E-001  0.3084988E+03  0.7818608E-02  0.1081262E+00
         21   -1    0    0  503  502  0.00000000000E+00  0.00000000000E+00  0.13296416946E+03  0.13296416946E+03  0.00000000000E+00 0.  1.
         21   -1    0    0  501  503 -0.00000000000E+00 -0.00000000000E+00 -0.88767788682E+03  0.88767788682E+03  0.00000000000E+00 0. -1.
          6    2    1    2  501    0 -0.25094221989E+03  0.42194049017E+02 -0.14956886457E+03  0.34139849613E+03  0.17155101987E+03 0.  0.
         24    2    3    3    0    0 -0.72342819962E+02  0.66830275363E+02 -0.55792991034E+02  0.13812357451E+03  0.79154877819E+02 0.  0.
         -6    2    1    2    0  502  0.25094221989E+03 -0.42194049017E+02 -0.60514485279E+03  0.67924356015E+03  0.17441096768E+03 0.  0.
        -24    2    5    5    0    0  0.11715280255E+03 -0.22333608829E+02 -0.16573332233E+03  0.21946249444E+03  0.80452986946E+02 0.  0.
          5    1    3    3  501    0 -0.17859939993E+03 -0.24636226345E+02 -0.93775873537E+02  0.20327492162E+03  0.47000000000E+01 0. -1.
        -11    1    4    4    0    0 -0.60355735711E+02  0.82115784839E+01 -0.77747564470E+01  0.61405958117E+02  0.00000000000E+00 0.  1.
         12    1    4    4    0    0 -0.11987084251E+02  0.58618696879E+02 -0.48018234587E+02  0.76717616396E+02  0.00000000000E+00 0. -1.
         -5    1    5    5    0  502  0.13378941734E+03 -0.19860440188E+02 -0.43941153046E+03  0.45978106570E+03  0.47000000000E+01 0.  1.
         11    1    6    6    0    0  0.59473022443E+02 -0.98238914915E+01 -0.14478918813E+03  0.15683576837E+03  0.00000000000E+00 0. -1.
        -12    1    6    6    0    0  0.57679780107E+02 -0.12509717338E+02 -0.20944134205E+02  0.62626726073E+02  0.00000000000E+00 0.  1.
</event>
<event>
12    1  0.1615162E-001  0.1914945E+03  0.7818608E-02  0.1157463E+00
         21   -1    0    0  503  502  0.00000000000E+00  0.00000000000E+00  0.16324751377E+03  0.16324751377E+03  0.00000000000E+00 0.  1.
         21   -1    0    0  501  503 -0.00000000000E+00 -0.00000000000E+00 -0.22284666266E+03  0.22284666266E+03  0.00000000000E+00 0.  1.
          6    2    1    2  501    0  0.15528287760E+02  0.86832129187E+02 -0.28865816781E+02  0.19365786565E+03  0.16996819459E+03 0.  0.
         24    2    3    3    0    0 -0.12745361405E+02  0.58211112380E+02  0.44059890269E+02  0.11023837999E+03  0.81610346463E+02 0.  0.
         -6    2    1    2    0  502 -0.15528287760E+02 -0.86832129187E+02 -0.30733332104E+02  0.19243631078E+03  0.16824461246E+03 0.  0.
        -24    2    5    5    0    0 -0.75522114441E+01 -0.10873470550E+03 -0.65427771916E+02  0.15037522667E+03  0.80322122613E+02 0.  0.
          5    1    3    3  501    0  0.28273649165E+02  0.28621016807E+02 -0.72925707050E+02  0.83419485666E+02  0.47000000000E+01 0. -1.
        -11    1    4    4    0    0 -0.17557140439E+01  0.19286670959E+02  0.62758870197E+02  0.65679022503E+02  0.00000000000E+00 0.  1.
         12    1    4    4    0    0 -0.10989647361E+02  0.38924441421E+02 -0.18698979928E+02  0.44559357485E+02  0.00000000000E+00 0. -1.
         -5    1    5    5    0  502 -0.79760763159E+01  0.21902576310E+02  0.34694439811E+02  0.42061084107E+02  0.47000000000E+01 0.  1.
         11    1    6    6    0    0 -0.41120886546E+01  0.48523499708E+01  0.11503304354E+02  0.13144602862E+02  0.00000000000E+00 0. -1.
        -12    1    6    6    0    0 -0.34401227896E+01 -0.11358705547E+03 -0.76931076270E+02  0.13723062381E+03  0.00000000000E+00 0.  1.
</event>
<event>
12    1  0.1615162E-001  0.1984558E+03  0.7818608E-02  0.1152236E+00
         21   -1    0    0  503  502  0.00000000000E+00  0.00000000000E+00  0.92178914208E+02  0.92178914208E+02  0.00000000000E+00 0.  1.
         21   -1    0    0  501  503 -0.00000000000E+00 -0.00000000000E+00 -0.87585231181E+03  0.87585231181E+03  0.00000000000E+00 0.  1.
          6    2    1    2  501    0  0.16698995030E+02  0.96683261553E+02 -0.74010773799E+03  0.76484987483E+03  0.16616063825E+03 0.  0.
         24    2    3    3    0    0  0.35749150331E+02  0.13614012387E+02 -0.20480531158E+03  0.22278513120E+03  0.78896488824E+02 0.  0.
         -6    2    1    2    0  502 -0.16698995030E+02 -0.96683261553E+02 -0.43565659618E+02  0.20318135119E+03  0.17250560940E+03 0.  0.
        -24    2    5    5    0    0  0.29980355088E+02 -0.50621100273E+02 -0.87993568754E+02  0.12383014742E+03  0.64262895859E+02 0.  0.
          5    1    3    3  501    0 -0.19050155301E+02  0.83069249166E+02 -0.53530242641E+03  0.54206474363E+03  0.47000000000E+01 0. -1.
        -13    1    4    4    0    0  0.57762984172E+02  0.23944633287E+02 -0.13280458859E+03  0.14678885024E+03  0.00000000000E+00 0.  1.
         14    1    4    4    0    0 -0.22013833841E+02 -0.10330620901E+02 -0.72000722983E+02  0.75996280953E+02  0.00000000000E+00 0. -1.
         -5    1    5    5    0  502 -0.46679350118E+02 -0.46062161280E+02  0.44427909136E+02  0.79351203768E+02  0.47000000000E+01 0.  1.
         13    1    6    6    0    0  0.23920501275E+02 -0.54237363377E-01 -0.21511794646E+01  0.24017095912E+02  0.00000000000E+00 0. -1.
        -14    1    6    6    0    0  0.60598538132E+01 -0.50566862909E+02 -0.85842389290E+02  0.99813051510E+02  0.00000000000E+00 0.  1.
</event>
<event>
12    1  0.1615162E-001  0.3300336E+03  0.7818608E-02  0.1071132E+00
         21   -1    0    0  503  502  0.00000000000E+00  0.00000000000E+00  0.11621563189E+03  0.11621563189E+03  0.00000000000E+00 0.  1.
         21   -1    0    0  501  503 -0.00000000000E+00 -0.00000000000E+00 -0.12435958334E+04  0.12435958334E+04  0.00000000000E+00 0. -1.
          6    2    1    2  501    0 -0.28199024127E+03  0.19004236198E+02 -0.22614787283E+03  0.40008127755E+03  0.17041863483E+03 0.  0.
         24    2    3    3    0    0 -0.20576373469E+03 -0.52256258594E+02 -0.15703816023E+03  0.27483439815E+03  0.76180913389E+02 0.  0.
         -6    2    1    2    0  502  0.28199024127E+03 -0.19004236198E+02 -0.90123232867E+03  0.95973018772E+03  0.17024296114E+03 0.  0.
        -24    2    5    5    0    0  0.11740766556E+03 -0.55179843715E+02 -0.31617107299E+03  0.35086660554E+03  0.79459753359E+02 0.  0.
          5    1    3    3  501    0 -0.76226506577E+02  0.71260494792E+02 -0.69109712606E+02  0.12524687940E+03  0.47000000000E+01 0. -1.
        -13    1    4    4    0    0 -0.14416671279E+03  0.91531182916E+00 -0.10153842061E+03  0.17633754488E+03  0.00000000000E+00 0.  1.
         14    1    4    4    0    0 -0.61597021901E+02 -0.53171570423E+02 -0.55499739617E+02  0.98496853279E+02  0.00000000000E+00 0. -1.
         -5    1    5    5    0  502  0.16458257571E+03  0.36175607517E+02 -0.58506125568E+03  0.60886358218E+03  0.47000000000E+01 0.  1.
         11    1    6    6    0    0  0.86111287394E+02 -0.14211085962E+02 -0.26168682975E+03  0.27585703842E+03  0.00000000000E+00 0. -1.
        -12    1    6    6    0    0  0.31296378169E+02 -0.40968757753E+02 -0.54484243232E+02  0.75009567116E+02  0.00000000000E+00 0.  1.
</event>
<event>
12    1  0.1615162E-001  0.1873896E+03  0.7818608E-02  0.1161164E+00
         21   -1    0    0  501  502  0.00000000000E+00  0.00000000000E+00  0.55545356243E+02  0.55545356243E+02  0.00000000000E+00 0. -1.
         21   -1    0    0  502  503 -0.00000000000E+00 -0.00000000000E+00 -0.86930405559E+03  0.86930405559E+03  0.00000000000E+00 0. -1.
         -6    2    1    2    0  503  0.53706079151E+02 -0.49683255768E+02 -0.64969418827E+03  0.67578712480E+03  0.17097640462E+03 0.  0.
        -24    2    3    3    0    0  0.73940929539E+02 -0.24033799943E+01 -0.56186158221E+03  0.57389751537E+03  0.90536640579E+02 0.  0.
          6    2    1    2  501    0 -0.53706079151E+02  0.49683255768E+02 -0.16406451108E+03  0.24906228703E+03  0.17251692724E+03 0.  0.
         24    2    5    5    0    0 -0.53651472259E+00  0.70788374214E+02 -0.42497638253E+02  0.11462634253E+03  0.79510171501E+02 0.  0.
          5    1    5    5  501    0 -0.53169564429E+02 -0.21105118446E+02 -0.12156687282E+03  0.13443594450E+03  0.47000000000E+01 0. -1.
        -11    1    6    6    0    0 -0.21751449115E+02 -0.49313049088E+01  0.48664737712E+01  0.22828181567E+02  0.00000000000E+00 0.  1.
         12    1    6    6    0    0  0.21214934392E+02  0.75719679123E+02 -0.47364112024E+02  0.91798160960E+02  0.00000000000E+00 0. -1.
         -5    1    3    3    0  503 -0.20234850387E+02 -0.47279875774E+02 -0.87832606064E+02  0.10188960944E+03  0.47000000000E+01 0.  1.
         13    1    4    4    0    0  0.12121189427E+02 -0.87710157766E+01 -0.40351166520E+03  0.40378895218E+03  0.00000000000E+00 0. -1.
        -14    1    4    4    0    0  0.61819740112E+02  0.63676357822E+01 -0.15834991700E+03  0.17010856318E+03  0.00000000000E+00 0.  1.
</event>
<event>
12    1  0.1615162E-001  0.2334995E+03  0.7818608E-02  0.1124321E+00
         21   -1    0    0  503  502  0.00000000000E+00  0.00000000000E+00  0.74010521495E+03  0.74010521495E+03  0.00000000000E+00 0. -1.
         21   -1    0    0  501  503 -0.00000000000E+00 -0.00000000000E+00 -0.13087454821E+03  0.13087454821E+03  0.00000000000E+00 0.  1.
          6    2    1    2  501    0 -0.15167663442E+03 -0.42302621009E+02  0.15887452310E+02  0.23334492239E+03  0.17147048869E+03 0.  0.
         24    2    3    3    0    0 -0.12370176008E+03 -0.34545844061E+02  0.68786773713E+02  0.17282063481E+03  0.92950582503E+02 0.  0.
         -6    2    1    2    0  502  0.15167663442E+03  0.42302621009E+02  0.59334321442E+03  0.63763484076E+03  0.17241434651E+03 0.  0.
        -24    2    5    5    0    0  0.71255995997E+02  0.67351571154E+02  0.48285181546E+03  0.49861912858E+03  0.76560489785E+02 0.  0.
          5    1    3    3  501    0 -0.27974874338E+02 -0.77567769473E+01 -0.52899321404E+02  0.60524287586E+02  0.47000000000E+01 0. -1.
        -13    1    4    4    0    0 -0.96736365555E+02 -0.18894110985E+02  0.14041659662E+01  0.98574253905E+02  0.00000000000E+00 0.  1.
         14    1    4    4    0    0 -0.26965394528E+02 -0.15651733076E+02  0.67382607747E+02  0.74246380903E+02  0.00000000000E+00 0. -1.
         -5    1    5    5    0  502  0.80420638424E+02 -0.25048950146E+02  0.11049139897E+03  0.13901571218E+03  0.47000000000E+01 0.  1.
         13    1    6    6    0    0  0.69488108092E+02  0.77770255353E+02  0.34641403151E+03  0.36177270628E+03  0.00000000000E+00 0. -1.
        -14    1    6    6    0    0  0.17678879056E+01 -0.10418684199E+02  0.13643778394E+03  0.13684642230E+03  0.00000000000E+00 0.  1.
</event>
<event>
12    1  0.1615162E-001  0.1950687E+03  0.7818608E-02  0.1154156E+00
         21   -1    0    0  501  502  0.00000000000E+00  0.00000000000E+00  0.21808594960E+03  0.21808594960E+03  0.00000000000E+00 0.  1.
         21   -1    0    0  502  503 -0.00000000000E+00 -0.00000000000E+00 -0.52909703834E+03  0.52909703834E+03  0.00000000000E+00 0. -1.
         -6    2    1    2    0  503  0.66182930605E+02  0.62919064161E+02 -0.46157400442E+03  0.50076666019E+03  0.17139923415E+03 0.  0.
        -24    2    3    3    0    0  0.95199357609E+02  0.85743687894E+02 -0.31157009572E+03  0.34621511828E+03  0.79837872418E+02 0.  0.
          6    2    1    2  501    0 -0.66182930605E+02 -0.62919064161E+02  0.15056291567E+03  0.24641632775E+03  0.17237408757E+03 0.  0.
         24    2    5    5    0    0 -0.95126658112E+01  0.21806796286E+02  0.10752507074E+03  0.13567186316E+03  0.79241317763E+02 0.  0.
          5    1    5    5  501    0 -0.56670264793E+02 -0.84725860447E+02  0.43037844940E+02  0.11074446459E+03  0.47000000000E+01 0. -1.
        -13    1    6    6    0    0 -0.11114495385E+02 -0.28319249643E+02  0.56238904144E+02  0.63940020701E+02  0.00000000000E+00 0.  1.
         14    1    6    6    0    0  0.16018295738E+01  0.50126045929E+02  0.51286166592E+02  0.71731842456E+02  0.00000000000E+00 0. -1.
         -5    1    3    3    0  503 -0.29016427005E+02 -0.22824623732E+02 -0.15000390869E+03  0.15455154191E+03  0.47000000000E+01 0.  1.
         11    1    4    4    0    0  0.61891578976E+02  0.61957706351E+01 -0.16248559341E+03  0.17398426133E+03  0.00000000000E+00 0. -1.
        -12    1    4    4    0    0  0.33307778634E+02  0.79547917259E+02 -0.14908450231E+03  0.17223085695E+03  0.00000000000E+00 0.  1.
</event>
<event>
12    1  0.1615162E-001  0.1849748E+03  0.7818608E-02  0.1163185E+00
         21   -1    0    0  503  502  0.00000000000E+00  0.00000000000E+00  0.15755314712E+03  0.15755314712E+03  0.00000000000E+00 0. -1.
         21   -1    0    0  501  503 -0.00000000000E+00 -0.00000000000E+00 -0.34536118032E+03  0.34536118032E+03  0.00000000000E+00 0. -1.
          6    2    1    2  501    0 -0.13390750651E+02  0.65479686335E+02 -0.24736169495E+03  0.30858903100E+03  0.17196650953E+03 0.  0.
         24    2    3    3    0    0  0.16645612542E+02 -0.27050935533E+02 -0.10404205090E+03  0.13530686381E+03  0.80463466916E+02 0.  0.
         -6    2    1    2    0  502  0.13390750651E+02 -0.65479686335E+02  0.59553661749E+02  0.19432529645E+03  0.17247834845E+03 0.  0.
        -24    2    5    5    0    0  0.58589344084E+02 -0.72813703543E+02  0.77067828796E+02  0.14507555833E+03  0.79830575136E+02 0.  0.
          5    1    3    3  501    0 -0.30036363193E+02  0.92530621868E+02 -0.14331964404E+03  0.17328216719E+03  0.47000000000E+01 0. -1.
        -13    1    4    4    0    0  0.41503133011E+02 -0.40693623691E+02 -0.71461664282E+02  0.92115419560E+02  0.00000000000E+00 0.  1.
         14    1    4    4    0    0 -0.24857520469E+02  0.13642688158E+02 -0.32580386622E+02  0.43191444251E+02  0.00000000000E+00 0. -1.
         -5    1    5    5    0  502 -0.45198593433E+02  0.73340172077E+01 -0.17514167047E+02  0.49249738112E+02  0.47000000000E+01 0.  1.
         11    1    6    6    0    0 -0.24156726277E+01 -0.33219908338E+02  0.62619650796E+02  0.70926852814E+02  0.00000000000E+00 0. -1.
        -12    1    6    6    0    0  0.61005016712E+02 -0.39593795205E+02  0.14448178000E+02  0.74148705520E+02  0.00000000000E+00 0.  1.
</event>
<event>
12    1  0.1615162E-001  0.2010274E+03  0.7818608E-02  0.1148985E+00
         21   -1    0    0  503  502  0.00000000000E+00  0.00000000000E+00  0.64327909941E+02  0.64327909941E+02  0.00000000000E+00 0.  1.
         21   -1    0    0  501  503 -0.00000000000E+00 -0.00000000000E+00 -0.78040184574E+03  0.78040184574E+03  0.00000000000E+00 0.  1.
          6    2    1    2  501    0  0.95017312205E+02 -0.42764834386E+02 -0.54592478039E+03  0.58176100941E+03  0.17191534413E+03 0.  0.
         24    2    3    3    0    0 -0.12258872528E+02  0.54223568576E+01 -0.26560984952E+03  0.27774006329E+03  0.80070398312E+02 0.  0.
         -6    2    1    2    0  502 -0.95017312205E+02  0.42764834386E+02 -0.17014915540E+03  0.26296874626E+03  0.17130296480E+03 0.  0.
        -24    2    5    5    0    0  0.12468607633E+02  0.31872275647E+02 -0.60790552620E+02  0.10917256685E+03  0.83975293593E+02 0.  0.
          5    1    3    3  501    0  0.10727618473E+03 -0.48187191243E+02 -0.28031493087E+03  0.30402094612E+03  0.47000000000E+01 0. -1.
        -13    1    4    4    0    0  0.24994700198E+02  0.25587704521E+02 -0.84822223106E+02  0.92055826504E+02  0.00000000000E+00 0.  1.
         14    1    4    4    0    0 -0.37253572726E+02 -0.20165347664E+02 -0.18078762641E+03  0.18568423679E+03  0.00000000000E+00 0. -1.
         -5    1    5    5    0  502 -0.10748591984E+03  0.10892558739E+02 -0.10935860278E+03  0.15379617941E+03  0.47000000000E+01 0.  1.
         13    1    6    6    0    0 -0.23718219994E+02  0.43384456161E+02 -0.19706676977E+02  0.53227043066E+02  0.00000000000E+00 0. -1.
        -14    1    6    6    0    0  0.36186827627E+02 -0.11512180514E+02 -0.41083875643E+02  0.55945523786E+02  0.00000000000E+00 0.  1.
</event>
<event>
12    1  0.1615162E-001  0.1937704E+03  0.7818608E-02  0.1155573E+00
         21   -1    0    0  501  502  0.00000000000E+00  0.00000000000E+00  0.21652552181E+03  0.21652552181E+03  0.00000000000E+00 0.  1.
         21   -1    0    0  502  503 -0.00000000000E+00 -0.00000000000E+00 -0.18665167045E+03  0.18665167045E+03  0.00000000000E+00 0. -1.
         -6    2    1    2    0  503 -0.71365260574E+02  0.39228411212E+02 -0.42393253037E+02  0.19835356766E+03  0.17582685016E+03 0.  0.
        -24    2    3    3    0    0 -0.56839380086E+02  0.29792777104E+02 -0.97112893299E+02  0.14076570934E+03  0.79156466484E+02 0.  0.
          6    2    1    2  501    0  0.71365260574E+02 -0.39228411212E+02  0.72267104401E+02  0.20482362460E+03  0.17348865713E+03 0.  0.
         24    2    5    5    0    0  0.41692502138E+00 -0.77230844320E+02  0.47852547981E+02  0.12058579578E+03  0.79286131535E+02 0.  0.
          5    1    5    5  501    0  0.70948335553E+02  0.38002433107E+02  0.24414556420E+02  0.84237828824E+02  0.47000000000E+01 0. -1.
        -11    1    6    6    0    0  0.57126608759E+01 -0.22536044557E+02  0.59966714514E+02  0.64315741838E+02  0.00000000000E+00 0.  1.
         12    1    6    6    0    0 -0.52957358545E+01 -0.54694799763E+02 -0.12114166533E+02  0.56270053938E+02  0.00000000000E+00 0. -1.
         -5    1    3    3    0  503 -0.14525880488E+02  0.94356341088E+01  0.54719640262E+02  0.57587858316E+02  0.47000000000E+01 0.  1.
         11    1    4    4    0    0 -0.73219690320E+02  0.67721422110E+01 -0.67093030090E+02  0.99541245960E+02  0.00000000000E+00 0. -1.
        -12    1    4    4    0    0  0.16380310234E+02  0.23020634893E+02 -0.30019863210E+02  0.41224463385E+02  0.00000000000E+00 0.  1.
</event>
<event>
12    1  0.1615162E-001  0.1941989E+03  0.7818608E-02  0.1155103E+00
         21   -1    0    0  503  502  0.00000000000E+00  0.00000000000E+00  0.85941375271E+03  0.85941375271E+03  0.00000000000E+00 0. -1.
         21   -1    0    0  501  503 -0.00000000000E+00 -0.00000000000E+00 -0.59431153951E+02  0.59431153951E+02  0.00000000000E+00 0. -1.
          6    2    1    2  501    0  0.40067536143E+02  0.75546491388E+02  0.16340834415E+03  0.25380212355E+03  0.17435753831E+03 0.  0.
         24    2    3    3    0    0  0.32359313143E+02  0.33414947934E+02  0.73761035216E+01  0.91929847442E+02  0.78949389200E+02 0.  0.
         -6    2    1    2    0  502 -0.40067536143E+02 -0.75546491388E+02  0.63657425461E+03  0.66504278312E+03  0.17245997196E+03 0.  0.
        -24    2    5    5    0    0 -0.89170372338E+01  0.25532359989E+02  0.23573462367E+03  0.25045649836E+03  0.80163768707E+02 0.  0.
          5    1    3    3  501    0  0.77082229998E+01  0.42131543454E+02  0.15603224063E+03  0.16187227611E+03  0.47000000000E+01 0. -1.
        -13    1    4    4    0    0 -0.10695603830E+02  0.40384507418E+02  0.20289213784E+02  0.46443046592E+02  0.00000000000E+00 0.  1.
         14    1    4    4    0    0  0.43054916973E+02 -0.69695594842E+01 -0.12913110263E+02  0.45486800851E+02  0.00000000000E+00 0. -1.
         -5    1    5    5    0  502 -0.31150498909E+02 -0.10107885138E+03  0.40083963094E+03  0.41458628476E+03  0.47000000000E+01 0.  1.
         13    1    6    6    0    0  0.16602076644E+02  0.44163439950E+02  0.18296739165E+03  0.18895265223E+03  0.00000000000E+00 0. -1.
        -14    1    6    6    0    0 -0.25519113878E+02 -0.18631079961E+02  0.52767232020E+02  0.61503846129E+02  0.00000000000E+00 0.  1.
</event>
<event>
12    1  0.1615162E-001  0.1781237E+03  0.7818608E-02  0.1169864E+00
         21   -1    0    0  503  502  0.00000000000E+00  0.00000000000E+00  0.87088352249E+02  0.87088352249E+02  0.00000000000E+00 0. -1.
         21   -1    0    0  501  503 -0.00000000000E+00 -0.00000000000E+00 -0.39339366104E+03  0.39339366104E+03  0.00000000000E+00 0. -1.
          6    2    1    2  501    0  0.41856345757E+02 -0.11039868931E+02 -0.86085579188E+02  0.19783523838E+03  0.17278374406E+03 0.  0.
         24    2    3    3    0    0 -0.19250488505E+02  0.79725691615E+01  0.10014222996E+02  0.82281008788E+02  0.78966680177E+02 0.  0.
         -6    2    1    2    0  502 -0.41856345757E+02  0.11039868931E+02 -0.22021972960E+03  0.28264677491E+03  0.17180988818E+03 0.  0.
        -24    2    5    5    0    0 -0.48322138299E+02 -0.45152070956E+01 -0.38175577393E+02  0.99764489776E+02  0.78359189417E+02 0.  0.
          5    1    3    3  501    0  0.61106834263E+02 -0.19012438093E+02 -0.96099802184E+02  0.11555422959E+03  0.47000000000E+01 0. -1.
        -13    1    4    4    0    0  0.10667594422E+01 -0.30391021835E+02 -0.13086268256E+02  0.33105929994E+02  0.00000000000E+00 0.  1.
         14    1    4    4    0    0 -0.20317247948E+02  0.38363590997E+02  0.23100491252E+02  0.49175078794E+02  0.00000000000E+00 0. -1.
         -5    1    5    5    0  502  0.64657925418E+01  0.15555076027E+02 -0.18204415221E+03  0.18288228514E+03  0.47000000000E+01 0.  1.
         11    1    6    6    0    0 -0.52503034987E+02  0.56391741124E+01 -0.57169265873E+02  0.77824764233E+02  0.00000000000E+00 0. -1.
        -12    1    6    6    0    0  0.41808966874E+01 -0.10154381208E+02  0.18993688480E+02  0.21939725543E+02  0.00000000000E+00 0.  1.
</event>
<event>
12    1  0.1615162E-001  0.1998598E+03  0.7818608E-02  0.1150759E+00
         21   -1    0    0  503  502  0.00000000000E+00  0.00000000000E+00  0.66714052578E+02  0.66714052578E+02  0.00000000000E+00 0.  1.
         21   -1    0    0  501  503 -0.00000000000E+00 -0.00000000000E+00 -0.59645213853E+03  0.59645213853E+03  0.00000000000E+00 0.  1.
          6    2    1    2  501    0  0.34241574828E+02  0.93805788134E+02 -0.22407058004E+03  0.30025252276E+03  0.17312406317E+03 0.  0.
         24    2    3    3    0    0 -0.15665538504E+02  0.10079138158E+03 -0.93056086859E+02  0.15980179866E+03  0.80454135102E+02 0.  0.
         -6    2    1    2    0  502 -0.34241574828E+02 -0.93805788134E+02 -0.30566750591E+03  0.36291366835E+03  0.16823107671E+03 0.  0.
        -24    2    5    5    0    0 -0.29634813909E+02  0.13001612187E+02 -0.15492885189E+03  0.17805351898E+03  0.81564957904E+02 0.  0.
          5    1    3    3  501    0  0.49907113331E+02 -0.69855934467E+01 -0.13101449318E+03  0.14045072410E+03  0.47000000000E+01 0. -1.
        -11    1    4    4    0    0 -0.47841837047E+02  0.54272689035E+02 -0.42312621581E+02  0.83813627127E+02  0.00000000000E+00 0.  1.
         12    1    4    4    0    0  0.32176298543E+02  0.46518692545E+02 -0.50743465277E+02  0.75988171530E+02  0.00000000000E+00 0. -1.
         -5    1    5    5    0  502 -0.46067609186E+01 -0.10680740032E+03 -0.15073865402E+03  0.18486014937E+03  0.47000000000E+01 0.  1.
         11    1    6    6    0    0 -0.16581112844E+02  0.20045738748E+02 -0.39087406166E+01  0.26306713940E+02  0.00000000000E+00 0. -1.
        -12    1    6    6    0    0 -0.13053701065E+02 -0.70441265608E+01 -0.15102011128E+03  0.15174680504E+03  0.00000000000E+00 0.  1.
</event>
<event>
12    1  0.1615162E-001  0.2364052E+03  0.7818608E-02  0.1122326E+00
         21   -1    0    0  503  502  0.00000000000E+00  0.00000000000E+00  0.58305099176E+02  0.58305099176E+02  0.00000000000E+00 0. -1.
         21   -1    0    0  501  503 -0.00000000000E+00 -0.00000000000E+00 -0.10614940316E+04  0.10614940316E+04  0.00000000000E+00 0.  1.
          6    2    1    2  501    0 -0.42040381829E+02  0.15821042181E+03 -0.67763138468E+03  0.71746205636E+03  0.16961597079E+03 0.  0.
         24    2    3    3    0    0  0.68124286499E+01  0.16754191148E+03 -0.53303800164E+03  0.56448163210E+03  0.79958117113E+02 0.  0.
         -6    2    1    2    0  502  0.42040381829E+02 -0.15821042181E+03 -0.32555754774E+03  0.40233707441E+03  0.17055636394E+03 0.  0.
        -24    2    5    5    0    0  0.84058134713E+02 -0.63910211560E+02 -0.21429713430E+03  0.25048520314E+03  0.75294688175E+02 0.  0.
          5    1    3    3  501    0 -0.48852810479E+02 -0.93314896728E+01 -0.14459338304E+03  0.15298042427E+03  0.47000000000E+01 0. -1.
        -13    1    4    4    0    0  0.23273874500E+02  0.59066707212E+02 -0.30350595942E+03  0.31007485634E+03  0.00000000000E+00 0.  1.
         14    1    4    4    0    0 -0.16461445850E+02  0.10847520427E+03 -0.22953204223E+03  0.25440677575E+03  0.00000000000E+00 0. -1.
         -5    1    5    5    0  502 -0.42017752883E+02 -0.94300210246E+02 -0.11126041344E+03  0.15185187127E+03  0.47000000000E+01 0.  1.
         11    1    6    6    0    0  0.27641018185E+02  0.97444208204E+01 -0.20937742095E+02  0.36019004254E+02  0.00000000000E+00 0. -1.
        -12    1    6    6    0    0  0.56417116528E+02 -0.73654632380E+02 -0.19335939221E+03  0.21446619888E+03  0.00000000000E+00 0.  1.
</event>
<event>
12    1  0.1615162E-001  0.2030572E+03  0.7818608E-02  0.1147429E+00
         21   -1    0    0  503  502  0.00000000000E+00  0.00000000000E+00  0.33990234856E+02  0.33990234856E+02  0.00000000000E+00 0.  1.
         21   -1    0    0  501  503 -0.00000000000E+00 -0.00000000000E+00 -0.20038607574E+04  0.20038607574E+04  0.00000000000E+00 0.  1.
          6    2    1    2  501    0 -0.98978911165E+02 -0.38363325611E+02 -0.16295815957E+04  0.16421840386E+04  0.17310017369E+03 0.  0.
         24    2    3    3    0    0 -0.52660680942E+02 -0.85153903678E+02 -0.86720146907E+03  0.87695186203E+03  0.83557439719E+02 0.  0.
         -6    2    1    2    0  502  0.98978911165E+02  0.38363325611E+02 -0.34028892692E+03  0.39566695368E+03  0.17171841732E+03 0.  0.
        -24    2    5    5    0    0  0.12296722613E+03 -0.95973342678E+01 -0.25220464490E+03  0.29243616909E+03  0.81845479732E+02 0.  0.
          5    1    3    3  501    0 -0.46318230224E+02  0.46790578067E+02 -0.76238012661E+03  0.76523217659E+03  0.47000000000E+01 0. -1.
        -13    1    4    4    0    0  0.65729334671E+01 -0.63268122893E+02 -0.53812630202E+03  0.54187265641E+03  0.00000000000E+00 0.  1.
         14    1    4    4    0    0 -0.59233614409E+02 -0.21885780784E+02 -0.32907516704E+03  0.33507920562E+03  0.00000000000E+00 0. -1.
         -5    1    5    5    0  502 -0.23988314961E+02  0.47960659879E+02 -0.88084282011E+02  0.10323078459E+03  0.47000000000E+01 0.  1.
         13    1    6    6    0    0  0.57769533683E+02 -0.45338833501E+02 -0.13360712784E+03  0.15245915340E+03  0.00000000000E+00 0. -1.
        -14    1    6    6    0    0  0.65197692443E+02  0.35741499233E+02 -0.11859751707E+03  0.13997701569E+03  0.00000000000E+00 0.  1.
</event>
<event>
12    1  0.1615162E-001  0.1906682E+03  0.7818608E-02  0.1158969E+00
         21   -1    0    0  501  502  0.00000000000E+00  0.00000000000E+00  0.73586965858E+02  0.73586965858E+02  0.00000000000E+00 0. -1.
         21   -1    0    0  502  503 -0.00000000000E+00 -0.00000000000E+00 -0.61675805510E+03  0.61675805510E+03  0.00000000000E+00 0. -1.
         -6    2    1    2    0  503 -0.71009933102E+02 -0.11233723146E+02 -0.43596996643E+03  0.47584050675E+03  0.17659492941E+03 0.  0.
        -24    2    3    3    0    0 -0.11170297180E+02  0.44958996162E+02 -0.33796083491E+03  0.34790973018E+03  0.68392744845E+02 0.  0.
          6    2    1    2  501    0  0.71009933102E+02  0.11233723146E+02 -0.10720112281E+03  0.21450451421E+03  0.17132279110E+03 0.  0.
         24    2    5    5    0    0  0.12477898370E+02  0.41448818650E+00  0.11326355123E+02  0.81787115351E+02  0.80031095013E+02 0.  0.
          5    1    5    5  501    0  0.58532034731E+02  0.10819234959E+02 -0.11852747793E+03  0.13271739886E+03  0.47000000000E+01 0. -1.
        -13    1    6    6    0    0 -0.20484296656E+02  0.19388976078E+02  0.28463387213E+02  0.40071226765E+02  0.00000000000E+00 0.  1.
         14    1    6    6    0    0  0.32962195026E+02 -0.18974487892E+02 -0.17137032089E+02  0.41715888586E+02  0.00000000000E+00 0. -1.
         -5    1    3    3    0  503 -0.59839635922E+02 -0.56192719308E+02 -0.98009131523E+02  0.12793077656E+03  0.47000000000E+01 0.  1.
         13    1    4    4    0    0 -0.84902025718E+01  0.24594852432E+02 -0.31867309216E+03  0.31973352963E+03  0.00000000000E+00 0. -1.
        -14    1    4    4    0    0 -0.26800946081E+01  0.20364143730E+02 -0.19287742754E+02  0.28176200551E+02  0.00000000000E+00 0.  1.
</event>
<event>
12    1  0.1615162E-001  0.2106463E+03  0.7818608E-02  0.1141068E+00
         21   -1    0    0  503  502  0.00000000000E+00  0.00000000000E+00  0.90872959754E+02  0.90872959754E+02  0.00000000000E+00 0. -1.
         21   -1    0    0  501  503 -0.00000000000E+00 -0.00000000000E+00 -0.55024976212E+03  0.55024976212E+03  0.00000000000E+00 0. -1.
          6    2    1    2  501    0 -0.11065152128E+03 -0.48560401488E+02 -0.33735993386E+03  0.39768899840E+03  0.17246142387E+03 0.  0.
         24    2    3    3    0    0 -0.10809055186E+02 -0.61723461428E+02 -0.22980263535E+03  0.25026970983E+03  0.76805306314E+02 0.  0.
         -6    2    1    2    0  502  0.11065152128E+03  0.48560401488E+02 -0.12201686850E+03  0.24343372347E+03  0.17253982082E+03 0.  0.
        -24    2    5    5    0    0  0.47545359189E+02  0.70666018199E+02 -0.13285169569E+03  0.17553284377E+03  0.76863247960E+02 0.  0.
          5    1    3    3  501    0 -0.99842466091E+02  0.13163059940E+02 -0.10755729851E+03  0.14741928858E+03  0.47000000000E+01 0. -1.
        -13    1    4    4    0    0  0.30145168308E+02 -0.78283251110E+01 -0.63779740809E+02  0.70977948575E+02  0.00000000000E+00 0.  1.
         14    1    4    4    0    0 -0.40954223493E+02 -0.53895136317E+02 -0.16602289454E+03  0.17929176125E+03  0.00000000000E+00 0. -1.
         -5    1    5    5    0  502  0.63106162088E+02 -0.22105616711E+02  0.10834827183E+02  0.67900879698E+02  0.47000000000E+01 0.  1.
         11    1    6    6    0    0 -0.72923302701E+01  0.21292122573E+02 -0.84179864310E+02  0.87136571654E+02  0.00000000000E+00 0. -1.
        -12    1    6    6    0    0  0.54837689459E+02  0.49373895626E+02 -0.48671831376E+02  0.88396272116E+02  0.00000000000E+00 0.  1.
</event>
<event>
12    1  0.1615162E-001  0.1874702E+03  0.7818608E-02  0.1161666E+00
         21   -1    0    0  501  502  0.00000000000E+00  0.00000000000E+00  0.16701738273E+03  0.16701738273E+03  0.00000000000E+00 0.  1.
         21   -1    0    0  502  503 -0.00000000000E+00 -0.00000000000E+00 -0.20983456133E+03  0.20983456133E+03  0.00000000000E+00 0.  1.
         -6    2    1    2    0  503 -0.17239367395E+02  0.63562725858E+02 -0.46383758476E+02  0.18934781666E+03  0.17135847430E+03 0.  0.
        -24    2    3    3    0    0 -0.60274236982E+02  0.85001810608E+02 -0.52370500762E+02  0.14066963429E+03  0.78657391329E+02 0.  0.
          6    2    1    2  501    0  0.17239367395E+02 -0.63562725858E+02  0.35665798729E+01  0.18750412740E+03  0.17552111381E+03 0.  0.
         24    2    5    5    0    0  0.80319020708E+02 -0.23529279810E+02 -0.40100715468E+00  0.11254046146E+03  0.75235779804E+02 0.  0.
          5    1    5    5  501    0 -0.63079653313E+02 -0.40033446047E+02  0.39675870276E+01  0.74963665941E+02  0.47000000000E+01 0. -1.
        -11    1    6    6    0    0  0.31063426885E+02 -0.62029374610E+00  0.35691933815E+02  0.47320559947E+02  0.00000000000E+00 0.  1.
         12    1    6    6    0    0  0.49255593823E+02 -0.22908986064E+02 -0.36092940970E+02  0.65219901512E+02  0.00000000000E+00 0. -1.
         -5    1    3    3    0  503  0.43034869587E+02 -0.21439084751E+02  0.59867422867E+01  0.48678182367E+02  0.47000000000E+01 0.  1.
         11    1    4    4    0    0  0.19327325687E+02  0.19352035448E+02 -0.98324245644E+01  0.29064125086E+02  0.00000000000E+00 0. -1.
        -12    1    4    4    0    0 -0.79601562669E+02  0.65649775161E+02 -0.42538076198E+02  0.11160550920E+03  0.00000000000E+00 0.  1.
</event>
<event>
12    1  0.1615162E-001  0.1859841E+03  0.7818608E-02  0.1162236E+00
         21   -1    0    0  503  502  0.00000000000E+00  0.00000000000E+00  0.68671017220E+03  0.68671017220E+03  0.00000000000E+00 0.  1.
         21   -1    0    0  501  503 -0.00000000000E+00 -0.00000000000E+00 -0.62937952460E+02  0.62937952460E+02  0.00000000000E+00 0.  1.
          6    2    1    2  501    0 -0.36348216449E+02  0.59797618715E+02  0.14330721460E+03  0.23444262978E+03  0.17184132466E+03 0.  0.
         24    2    3    3    0    0  0.38114378886E+02  0.25714795232E+02  0.39851754762E+02  0.10241445426E+03  0.82380832192E+02 0.  0.
         -6    2    1    2    0  502  0.36348216449E+02 -0.59797618715E+02  0.48046500514E+03  0.51520549488E+03  0.17231695432E+03 0.  0.
        -24    2    5    5    0    0  0.85516995787E+02 -0.67588254144E+02  0.36173501084E+03  0.38637551231E+03  0.80947450731E+02 0.  0.
          5    1    3    3  501    0 -0.74462595335E+02  0.34082823482E+02  0.10345545984E+03  0.13202817552E+03  0.47000000000E+01 0. -1.
        -11    1    4    4    0    0  0.22703017358E+00  0.39605030456E+02 -0.73846293174E+01  0.40288245559E+02  0.00000000000E+00 0.  1.
         12    1    4    4    0    0  0.37887348712E+02 -0.13890235223E+02  0.47236384079E+02  0.62126208704E+02  0.00000000000E+00 0. -1.
         -5    1    5    5    0  502 -0.49168779338E+02  0.77906354292E+01  0.11872999430E+03  0.12882998257E+03  0.47000000000E+01 0.  1.
         13    1    6    6    0    0  0.94998790610E+02 -0.37777010275E+02  0.24392856989E+03  0.26448633222E+03  0.00000000000E+00 0. -1.
        -14    1    6    6    0    0 -0.94817948225E+01 -0.29811243869E+02  0.11780644095E+03  0.12188918009E+03  0.00000000000E+00 0.  1.
</event>
<event>
12    1  0.1615162E-001  0.1989903E+03  0.7818608E-02  0.1151096E+00
         21   -1    0    0  501  502  0.00000000000E+00  0.00000000000E+00  0.45448338403E+03  0.45448338403E+03  0.00000000000E+00 0. -1.
         21   -1    0    0  502  503 -0.00000000000E+00 -0.00000000000E+00 -0.87953234429E+02  0.87953234429E+02  0.00000000000E+00 0. -1.
         -6    2    1    2    0  503 -0.97832127071E+02 -0.34742085976E+01  0.14283608691E+03  0.24304364372E+03  0.17054286797E+03 0.  0.
        -24    2    3    3    0    0 -0.75398983047E+02 -0.13327718823E+02  0.17189572604E+03  0.20474364058E+03  0.80679507884E+02 0.  0.
          6    2    1    2  501    0  0.97832127071E+02  0.34742085976E+01  0.22369406269E+03  0.29939297474E+03  0.17324527246E+03 0.  0.
         24    2    5    5    0    0  0.88099459675E+02  0.28198022736E+02  0.23884683323E+03  0.26844643608E+03  0.80368128127E+02 0.  0.
          5    1    5    5  501    0  0.97326673956E+01 -0.24723814139E+02 -0.15152770538E+02  0.30946538662E+02  0.47000000000E+01 0. -1.
        -13    1    6    6    0    0  0.24770251009E+02 -0.84881838643E+01  0.15480419309E+03  0.15700303436E+03  0.00000000000E+00 0.  1.
         14    1    6    6    0    0  0.63329208666E+02  0.36686206601E+02  0.84042640141E+02  0.11144340172E+03  0.00000000000E+00 0. -1.
         -5    1    3    3    0  503 -0.22433144024E+02  0.98535102256E+01 -0.29059639128E+02  0.38300003144E+02  0.47000000000E+01 0.  1.
         11    1    4    4    0    0 -0.28824480004E+02  0.26737494580E+02  0.27958439272E+02  0.48243326901E+02  0.00000000000E+00 0. -1.
        -12    1    4    4    0    0 -0.46574503043E+02 -0.40065213403E+02  0.14393728677E+03  0.15650031368E+03  0.00000000000E+00 0.  1.
</event>
<event>
12    1  0.1615162E-001  0.1831090E+03  0.7818608E-02  0.1165204E+00
         21   -1    0    0  503  502  0.00000000000E+00  0.00000000000E+00  0.31572088210E+02  0.31572088210E+02  0.00000000000E+00 0.  1.
         21   -1    0    0  501  503 -0.00000000000E+00 -0.00000000000E+00 -0.10530215925E+04  0.10530215925E+04  0.00000000000E+00 0.  1.
          6    2    1    2  501    0 -0.40292114033E+02 -0.40019855048E+02 -0.51601663143E+03  0.54701457831E+03  0.17241444753E+03 0.  0.
         24    2    3    3    0    0 -0.46174061221E+02 -0.46093467824E+02 -0.52431414749E+03  0.53426997758E+03  0.79261793966E+02 0.  0.
         -6    2    1    2    0  502  0.40292114033E+02  0.40019855048E+02 -0.50543287290E+03  0.53757910245E+03  0.17408003655E+03 0.  0.
        -24    2    5    5    0    0 -0.25337236316E+02  0.29244002810E+02 -0.13939313119E+03  0.16551659005E+03  0.80424556661E+02 0.  0.
          5    1    3    3  501    0  0.58819471882E+01  0.60736127763E+01  0.82975160588E+01  0.12744600725E+02  0.47000000000E+01 0. -1.
        -11    1    4    4    0    0  0.57374698912E+00 -0.23710758907E+02 -0.35367360780E+02  0.42583793656E+02  0.00000000000E+00 0.  1.
         12    1    4    4    0    0 -0.46747808210E+02 -0.22382708917E+02 -0.48894678671E+03  0.49168618393E+03  0.00000000000E+00 0. -1.
         -5    1    5    5    0  502  0.65629350349E+02  0.10775852238E+02 -0.36603974171E+03  0.37206251240E+03  0.47000000000E+01 0.  1.
         11    1    6    6    0    0 -0.27360349956E+02 -0.16643356418E+02 -0.10000976223E+03  0.10501210694E+03  0.00000000000E+00 0. -1.
        -12    1    6    6    0    0  0.20231136394E+01  0.45887359228E+02 -0.39383368960E+02  0.60504483110E+02  0.00000000000E+00 0.  1.
</event>
<event>
12    1  0.1615162E-001  0.1877758E+03  0.7818608E-02  0.1160489E+00
         21   -1    0    0  503  502  0.00000000000E+00  0.00000000000E+00  0.19530355942E+03  0.19530355942E+03  0.00000000000E+00 0.  1.
         21   -1    0    0  501  503 -0.00000000000E+00 -0.00000000000E+00 -0.19662716441E+03  0.19662716441E+03  0.00000000000E+00 0. -1.
          6    2    1    2  501    0 -0.44797480824E+02  0.59452890915E+02 -0.56764827763E+02  0.19616829475E+03  0.17238994654E+03 0.  0.
         24    2    3    3    0    0 -0.66431335394E+02  0.65357147999E+02  0.12637920684E+02  0.12308125481E+03  0.79401505843E+02 0.  0.
         -6    2    1    2    0  502  0.44797480824E+02 -0.59452890915E+02  0.55441222765E+02  0.19576242908E+03  0.17235933085E+03 0.  0.
        -24    2    5    5    0    0 -0.82875013090E+01 -0.75450698679E+02 -0.96899492754E+01  0.11009969066E+03  0.79161582588E+02 0.  0.
          5    1    3    3  501    0  0.21633854570E+02 -0.59042570841E+01 -0.69402748448E+02  0.73087039941E+02  0.47000000000E+01 0. -1.
        -11    1    4    4    0    0 -0.54840643914E+02  0.36799232095E+02 -0.28289563374E+02  0.71846914364E+02  0.00000000000E+00 0.  1.
         12    1    4    4    0    0 -0.11590691480E+02  0.28557915905E+02  0.40927484059E+02  0.51234340448E+02  0.00000000000E+00 0. -1.
         -5    1    5    5    0  502  0.53084982133E+02  0.15997807764E+02  0.65131172041E+02  0.85662738415E+02  0.47000000000E+01 0.  1.
         11    1    6    6    0    0 -0.54463534143E+01 -0.81979201921E+02  0.15772802916E+02  0.83660227258E+02  0.00000000000E+00 0. -1.
        -12    1    6    6    0    0 -0.28411478947E+01  0.65285032418E+01 -0.25462752191E+02  0.26439463404E+02  0.00000000000E+00 0.  1.
</event>
<event>
12    1  0.1615162E-001  0.1782801E+03  0.7818608E-02  0.1169718E+00
         21   -1    0    0  501  502  0.00000000000E+00  0.00000000000E+00  0.14947732809E+03  0.14947732809E+03  0.00000000000E+00 0. -1.
         21   -1    0    0  502  503 -0.00000000000E+00 -0.00000000000E+00 -0.68644177453E+03  0.68644177453E+03  0.00000000000E+00 0. -1.
         -6    2    1    2    0  503 -0.37192420659E+02 -0.19265911369E+02 -0.61637753229E+03  0.64164247259E+03  0.17328978279E+03 0.  0.
        -24    2    3    3    0    0  0.44864111907E+02 -0.23901986689E+02 -0.33191816401E+03  0.34551076214E+03  0.81387503023E+02 0.  0.
          6    2    1    2  501    0  0.37192420659E+02  0.19265911369E+02  0.79413085851E+02  0.19427663004E+03  0.17228615522E+03 0.  0.
         24    2    5    5    0    0  0.90129534747E+02  0.14686754392E+02  0.49950296803E+02  0.13333852484E+03  0.83337244187E+02 0.  0.
          5    1    5    5  501    0 -0.52937114088E+02  0.45791569776E+01  0.29462789048E+02  0.60938105198E+02  0.47000000000E+01 0. -1.
        -11    1    6    6    0    0  0.43537349336E+02 -0.30911067855E+02  0.39289974249E+01  0.53539069135E+02  0.00000000000E+00 0.  1.
         12    1    6    6    0    0  0.46592185411E+02  0.45597822247E+02  0.46021299378E+02  0.79799455709E+02  0.00000000000E+00 0. -1.
         -5    1    3    3    0  503 -0.82056532565E+02  0.46360753196E+01 -0.28445936828E+03  0.29613171045E+03  0.47000000000E+01 0.  1.
         11    1    4    4    0    0 -0.21736586968E+02 -0.61848910527E+01 -0.13506191325E+03  0.13693959435E+03  0.00000000000E+00 0. -1.
        -12    1    4    4    0    0  0.66600698875E+02 -0.17717095636E+02 -0.19685625076E+03  0.20857116779E+03  0.00000000000E+00 0.  1.
</event>
<event>
12    1  0.1615162E-001  0.1777008E+03  0.7818608E-02  0.1170074E+00
         21   -1    0    0  503  502  0.00000000000E+00  0.00000000000E+00  0.11075197525E+03  0.11075197525E+03  0.00000000000E+00 0. -1.
         21   -1    0    0  501  503 -0.00000000000E+00 -0.00000000000E+00 -0.30784911649E+03  0.30784911649E+03  0.00000000000E+00 0. -1.
          6    2    1    2  501    0 -0.40152942838E+02  0.15037463886E+02 -0.15560937304E+03  0.23612145504E+03  0.17233885347E+03 0.  0.
         24    2    3    3    0    0  0.43606608343E+02  0.22562503149E+02 -0.80041617040E+02  0.12296287438E+03  0.79388948715E+02 0.  0.
         -6    2    1    2    0  502  0.40152942838E+02 -0.15037463886E+02 -0.41487768211E+02  0.18247963670E+03  0.17245056904E+03 0.  0.
        -24    2    5    5    0    0  0.50304349071E+02 -0.54192976774E+02  0.18784365177E+02  0.10974020241E+03  0.78883796705E+02 0.  0.
          5    1    3    3  501    0 -0.83759551182E+02 -0.75250392626E+01 -0.75567755998E+02  0.11315858066E+03  0.47000000000E+01 0. -1.
        -13    1    4    4    0    0  0.47843688423E+01  0.31826384538E+02  0.14559057323E+01  0.32216899284E+02  0.00000000000E+00 0.  1.
         14    1    4    4    0    0  0.38822239501E+02 -0.92638813891E+01 -0.81497522772E+02  0.90745975097E+02  0.00000000000E+00 0. -1.
         -5    1    5    5    0  502 -0.10151406233E+02  0.39155512888E+02 -0.60272133388E+02  0.72739434292E+02  0.47000000000E+01 0.  1.
         13    1    6    6    0    0  0.39986655195E+02 -0.98121402822E+01 -0.23645263610E+02  0.47479565940E+02  0.00000000000E+00 0. -1.
        -14    1    6    6    0    0  0.10317693876E+02 -0.44380836492E+02  0.42429628787E+02  0.62260636470E+02  0.00000000000E+00 0.  1.
</event>
<event>
12    1  0.1615162E-001  0.1750933E+03  0.7818608E-02  0.1172692E+00
         21   -1    0    0  503  502  0.00000000000E+00  0.00000000000E+00  0.20610669513E+02  0.20610669513E+02  0.00000000000E+00 0. -1.
         21   -1    0    0  501  503 -0.00000000000E+00 -0.00000000000E+00 -0.19719115730E+04  0.19719115730E+04  0.00000000000E+00 0. -1.
          6    2    1    2  501    0  0.69579646140E+01 -0.27767422408E+02 -0.14708260173E+04  0.14812112756E+04  0.17273745004E+03 0.  0.
         24    2    3    3    0    0  0.10789456430E+02 -0.73631420143E+02 -0.12900092476E+04  0.12945699596E+04  0.79053924590E+02 0.  0.
         -6    2    1    2    0  502 -0.69579646140E+01  0.27767422408E+02 -0.48047488619E+03  0.51131096696E+03  0.17252056589E+03 0.  0.
        -24    2    5    5    0    0  0.52209908139E+02  0.50753546266E+02 -0.25843108293E+03  0.28032451795E+03  0.80581721116E+02 0.  0.
          5    1    3    3  501    0 -0.38314918159E+01  0.45863997735E+02 -0.18081676969E+03  0.18664131595E+03  0.47000000000E+01 0. -1.
        -13    1    4    4    0    0 -0.67538343219E+01 -0.10016100831E+02 -0.24256963393E+02  0.27098649910E+02  0.00000000000E+00 0.  1.
         14    1    4    4    0    0  0.17543290752E+02 -0.63615319312E+02 -0.12657522843E+04  0.12674713097E+04  0.00000000000E+00 0. -1.
         -5    1    5    5    0  502 -0.59167872753E+02 -0.22986123858E+02 -0.22204380326E+03  0.23098644900E+03  0.47000000000E+01 0.  1.
         11    1    6    6    0    0  0.66491722430E+02  0.40215306149E+02 -0.24765580148E+03  0.25956081370E+03  0.00000000000E+00 0. -1.
        -12    1    6    6    0    0 -0.14281814290E+02  0.10538240117E+02 -0.10775281441E+02  0.20763704254E+02  0.00000000000E+00 0.  1.
</event>
<event>
12    1  0.1615162E-001  0.4297625E+03  0.7818608E-02  0.1034440E+00
         21   -1    0    0  501  502  0.00000000000E+00  0.00000000000E+00  0.15669119152E+04  0.15669119152E+04  0.00000000000E+00 0.  1.
         21   -1    0    0  502  503 -0.00000000000E+00 -0.00000000000E+00 -0.19835016191E+03  0.19835016191E+03  0.00000000000E+00 0.  1.
         -6    2    1    2    0  503 -0.24126215874E+03  0.29869751492E+03  0.11903862544E+03  0.44594392769E+03  0.19304962481E+03 0.  0.
        -24    2    3    3    0    0 -0.57796115655E+02  0.18369284693E+03  0.90350235371E+02  0.22746972705E+03  0.80596890090E+02 0.  0.
          6    2    1    2  501    0  0.24126215874E+03 -0.29869751492E+03  0.12495231278E+04  0.13193181494E+04  0.17850685614E+03 0.  0.
         24    2    5    5    0    0  0.12100774967E+03 -0.13187094966E+03  0.40335911118E+03  0.44850941101E+03  0.80182893115E+02 0.  0.
          5    1    5    5  501    0  0.12025440907E+03 -0.16682656525E+03  0.84616401664E+03  0.87080873838E+03  0.47000000000E+01 0. -1.
        -11    1    6    6    0    0  0.71119239830E+02 -0.21675337538E+02  0.13421112497E+03  0.15342878673E+03  0.00000000000E+00 0.  1.
         12    1    6    6    0    0  0.49888509840E+02 -0.11019561213E+03  0.26914798621E+03  0.29508062428E+03  0.00000000000E+00 0. -1.
         -5    1    3    3    0  503 -0.18346604308E+03  0.11500466799E+03  0.28688390073E+02  0.21847420064E+03  0.47000000000E+01 0.  1.
         11    1    4    4    0    0  0.18914424742E+02  0.43075891167E+02  0.32427261148E+02  0.57138560786E+02  0.00000000000E+00 0. -1.
        -12    1    4    4    0    0 -0.76710540397E+02  0.14061695577E+03  0.57922974223E+02  0.17033116626E+03  0.00000000000E+00 0.  1.
</event>
<event>
12    1  0.1615162E-001  0.2003480E+03  0.7818608E-02  0.1150804E+00
         21   -1    0    0  503  502  0.00000000000E+00  0.00000000000E+00  0.64501803597E+02  0.64501803597E+02  0.00000000000E+00 0.  1.
         21   -1    0    0  501  503 -0.00000000000E+00 -0.00000000000E+00 -0.10258885127E+04  0.10258885127E+04  0.00000000000E+00 0.  1.
          6    2    1    2  501    0 -0.10961340514E+02  0.92160043848E+02 -0.82626413085E+03  0.84873473137E+03  0.17036609296E+03 0.  0.
         24    2    3    3    0    0 -0.21994137311E+02 -0.15646060743E+02 -0.31751106586E+03  0.32854664045E+03  0.80006729190E+02 0.  0.
         -6    2    1    2    0  502  0.10961340514E+02 -0.92160043848E+02 -0.13512257829E+03  0.24165558497E+03  0.17755474061E+03 0.  0.
        -24    2    5    5    0    0  0.67670755575E+02 -0.36713455773E+02 -0.11423503613E+03  0.15950534880E+03  0.80405869307E+02 0.  0.
          5    1    3    3  501    0  0.11032796797E+02  0.10780610459E+03 -0.50875306500E+03  0.52018809092E+03  0.47000000000E+01 0. -1.
        -11    1    4    4    0    0 -0.42549916070E+02  0.13513699515E+02 -0.22517093672E+03  0.22955405937E+03  0.00000000000E+00 0.  1.
         12    1    4    4    0    0  0.20555778759E+02 -0.29159760258E+02 -0.92340129142E+02  0.98992581079E+02  0.00000000000E+00 0. -1.
         -5    1    5    5    0  502 -0.56709415061E+02 -0.55446588075E+02 -0.20887542155E+02  0.82150236171E+02  0.47000000000E+01 0.  1.
         13    1    6    6    0    0  0.54648355527E+01 -0.42135975997E+02 -0.73668112989E+02  0.85042905478E+02  0.00000000000E+00 0. -1.
        -14    1    6    6    0    0  0.62205920022E+02  0.54225202236E+01 -0.40566923145E+02  0.74462443318E+02  0.00000000000E+00 0.  1.
</event>
<event>
12    1  0.1615162E-001  0.2026725E+03  0.7818608E-02  0.1147540E+00
         21   -1    0    0  503  502  0.00000000000E+00  0.00000000000E+00  0.18041247962E+03  0.18041247962E+03  0.00000000000E+00 0. -1.
         21   -1    0    0  501  503 -0.00000000000E+00 -0.00000000000E+00 -0.72036852141E+03  0.72036852141E+03  0.00000000000E+00 0. -1.
          6    2    1    2  501    0  0.81614811622E+02 -0.68126117677E+02 -0.64256534115E+03  0.67377026382E+03  0.17255145718E+03 0.  0.
         24    2    3    3    0    0  0.92245131069E+02  0.10963643348E+02 -0.33508565052E+03  0.35606907694E+03  0.76638297815E+02 0.  0.
         -6    2    1    2    0  502 -0.81614811622E+02  0.68126117677E+02  0.10260929936E+03  0.22701073721E+03  0.17234576034E+03 0.  0.
        -24    2    5    5    0    0 -0.63827344668E+02  0.11199065567E+03  0.58865696388E+02  0.16238810592E+03  0.79302521061E+02 0.  0.
          5    1    3    3  501    0 -0.10630319447E+02 -0.79089761025E+02 -0.30747969064E+03  0.31770118688E+03  0.47000000000E+01 0. -1.
        -11    1    4    4    0    0  0.19870254515E+02  0.36746559358E+02 -0.14903057586E+03  0.15477483380E+03  0.00000000000E+00 0.  1.
         12    1    4    4    0    0  0.72374876554E+02 -0.25782916010E+02 -0.18605507466E+03  0.20129424314E+03  0.00000000000E+00 0. -1.
         -5    1    5    5    0  502 -0.17787466954E+02 -0.43864537995E+02  0.43743602969E+02  0.64622631290E+02  0.47000000000E+01 0.  1.
         11    1    6    6    0    0 -0.36870464956E+00  0.50659523389E+02  0.53936907895E+02  0.73998062721E+02  0.00000000000E+00 0. -1.
        -12    1    6    6    0    0 -0.63458640019E+02  0.61331132283E+02  0.49287884930E+01  0.88390043196E+02  0.00000000000E+00 0.  1.
</event>
<event>
12    1  0.1615162E-001  0.1873281E+03  0.7818608E-02  0.1163613E+00
         21   -1    0    0  503  502  0.00000000000E+00  0.00000000000E+00  0.20030634351E+02  0.20030634351E+02  0.00000000000E+00 0. -1.
         21   -1    0    0  501  503 -0.00000000000E+00 -0.00000000000E+00 -0.16587056216E+04  0.16587056216E+04  0.00000000000E+00 0. -1.
          6    2    1    2  501    0  0.22252535024E+02  0.31519857621E+02 -0.86568617657E+03  0.88337249111E+03  0.17159756700E+03 0.  0.
         24    2    3    3    0    0 -0.22624673602E+02 -0.30820014742E+02 -0.60942938904E+03  0.61580968597E+03  0.79722267520E+02 0.  0.
         -6    2    1    2    0  502 -0.22252535024E+02 -0.31519857621E+02 -0.77298881069E+03  0.79536376485E+03  0.18331159334E+03 0.  0.
        -24    2    5    5    0    0 -0.30670984279E+01 -0.48267395492E+02 -0.13842058058E+03  0.16026732362E+03  0.64700922193E+02 0.  0.
          5    1    3    3  501    0  0.44877208626E+02  0.62339872363E+02 -0.25625678753E+03  0.26756280514E+03  0.47000000000E+01 0. -1.
        -11    1    4    4    0    0 -0.25738645980E+02 -0.40733178782E+01 -0.56444064413E+02  0.62169142047E+02  0.00000000000E+00 0.  1.
         12    1    4    4    0    0  0.31139723774E+01 -0.26746696864E+02 -0.55298532463E+03  0.55364054392E+03  0.00000000000E+00 0. -1.
         -5    1    5    5    0  502 -0.19185436596E+02  0.16747537871E+02 -0.63456823011E+03  0.63509644123E+03  0.47000000000E+01 0.  1.
         13    1    6    6    0    0  0.93300919523E+01 -0.41822271268E+02 -0.13980687727E+03  0.14622624909E+03  0.00000000000E+00 0. -1.
        -14    1    6    6    0    0 -0.12397190380E+02 -0.64451242236E+01  0.13862966911E+01  0.14041074535E+02  0.00000000000E+00 0.  1.
</event>
<event>
12    1  0.1615162E-001  0.2040153E+03  0.7818608E-02  0.1146593E+00
         21   -1    0    0  503  502  0.00000000000E+00  0.00000000000E+00  0.12924947978E+04  0.12924947978E+04  0.00000000000E+00 0. -1.
         21   -1    0    0  501  503 -0.00000000000E+00 -0.00000000000E+00 -0.50858004692E+02  0.50858004692E+02  0.00000000000E+00 0. -1.
          6    2    1    2  501    0 -0.10779076467E+03  0.67134406106E+01  0.21329692939E+03  0.29515729013E+03  0.17308473821E+03 0.  0.
         24    2    3    3    0    0 -0.85903408891E+02  0.55599500377E+02  0.19567275557E+03  0.23857456587E+03  0.90328822121E+02 0.  0.
         -6    2    1    2    0  502  0.10779076467E+03 -0.67134406106E+01  0.10283398637E+04  0.10481955124E+04  0.17195068359E+03 0.  0.
        -24    2    5    5    0    0  0.42843822362E+02  0.40855457314E+02  0.31672754309E+03  0.33202856937E+03  0.80136588510E+02 0.  0.
          5    1    3    3  501    0 -0.21887355775E+02 -0.48886059766E+02  0.17624173817E+02  0.56582724263E+02  0.47000000000E+01 0. -1.
        -11    1    4    4    0    0  0.93898189608E+01  0.34497298289E+01  0.77171493329E+02  0.77817149258E+02  0.00000000000E+00 0.  1.
         12    1    4    4    0    0 -0.95293227852E+02  0.52149770548E+02  0.11850126224E+03  0.16075741661E+03  0.00000000000E+00 0. -1.
         -5    1    5    5    0  502  0.64946942303E+02 -0.47568897924E+02  0.71161232065E+03  0.71616694301E+03  0.47000000000E+01 0.  1.
         11    1    6    6    0    0  0.16252653138E+02 -0.35422062083E+00  0.24260808546E+03  0.24315212797E+03  0.00000000000E+00 0. -1.
        -12    1    6    6    0    0  0.26591169224E+02  0.41209677935E+02  0.74119457635E+02  0.88876441402E+02  0.00000000000E+00 0.  1.
</event>
<event>
12    1  0.1615162E-001  0.1919740E+03  0.7818608E-02  0.1157758E+00
         21   -1    0    0  501  502  0.00000000000E+00  0.00000000000E+00  0.61045364318E+02  0.61045364318E+02  0.00000000000E+00 0.  1.
         21   -1    0    0  502  503 -0.00000000000E+00 -0.00000000000E+00 -0.13815934678E+04  0.13815934678E+04  0.00000000000E+00 0.  1.
         -6    2    1    2    0  503 -0.68749909168E+02 -0.22417471082E+02 -0.12031061411E+04  0.12175907815E+04  0.17272472706E+03 0.  0.
        -24    2    3    3    0    0  0.11716690759E+02  0.31844070546E+02 -0.55623431885E+03  0.56346202271E+03  0.83315712227E+02 0.  0.
          6    2    1    2  501    0  0.68749909168E+02  0.22417471082E+02 -0.11744196235E+03  0.22504805062E+03  0.17783396061E+03 0.  0.
         24    2    5    5    0    0  0.11678231334E+03  0.13222068058E+02 -0.74472434200E+02  0.15977832076E+03  0.78549580113E+02 0.  0.
          5    1    5    5  501    0 -0.48032404170E+02  0.91954030244E+01 -0.42969528152E+02  0.65269729866E+02  0.47000000000E+01 0. -1.
        -11    1    6    6    0    0  0.31710269867E+02 -0.31537950096E+02 -0.30054480409E+02  0.53883720213E+02  0.00000000000E+00 0.  1.
         12    1    6    6    0    0  0.85072043471E+02  0.44760018154E+02 -0.44417953791E+02  0.10589460054E+03  0.00000000000E+00 0. -1.
         -5    1    3    3    0  503 -0.80466599927E+02 -0.54261541628E+02 -0.64687182224E+03  0.65412875874E+03  0.47000000000E+01 0.  1.
         13    1    4    4    0    0  0.23419840237E+01  0.58073334835E+02 -0.28944918432E+03  0.29522673899E+03  0.00000000000E+00 0. -1.
        -14    1    4    4    0    0  0.93747067356E+01 -0.26229264289E+02 -0.26678513452E+03  0.26823528372E+03  0.00000000000E+00 0.  1.
</event>
<event>
12    1  0.1615162E-001  0.2398813E+03  0.7818608E-02  0.1120002E+00
         21   -1    0    0  501  502  0.00000000000E+00  0.00000000000E+00  0.30961586308E+03  0.30961586308E+03  0.00000000000E+00 0.  1.
         21   -1    0    0  502  503 -0.00000000000E+00 -0.00000000000E+00 -0.42546778690E+03  0.42546778690E+03  0.00000000000E+00 0.  1.
         -6    2    1    2    0  503  0.11232491580E+03  0.12296423795E+03 -0.33413714907E+03  0.41132795987E+03  0.17264404322E+03 0.  0.
        -24    2    3    3    0    0  0.78931203118E+02  0.10557466448E+03 -0.12229573006E+03  0.19611547389E+03  0.78287220565E+02 0.  0.
          6    2    1    2  501    0 -0.11232491580E+03 -0.12296423795E+03  0.21828522526E+03  0.32375569010E+03  0.17155820232E+03 0.  0.
         24    2    5    5    0    0 -0.37797387204E+01 -0.93308369368E+02  0.14770257040E+03  0.19084396310E+03  0.76711346815E+02 0.  0.
          5    1    5    5  501    0 -0.10854517708E+03 -0.29655868582E+02  0.70582654855E+02  0.13291172700E+03  0.47000000000E+01 0. -1.
        -13    1    6    6    0    0  0.61036657211E+01 -0.83017152705E+02  0.61569308635E+02  0.10353686370E+03  0.00000000000E+00 0.  1.
         14    1    6    6    0    0 -0.98834044414E+01 -0.10291216663E+02  0.86133261769E+02  0.87307099406E+02  0.00000000000E+00 0. -1.
         -5    1    3    3    0  503  0.33393712677E+02  0.17389573469E+02 -0.21184141901E+03  0.21521248598E+03  0.47000000000E+01 0.  1.
         13    1    4    4    0    0  0.30165469451E+02  0.97498907062E+02 -0.67720971921E+02  0.12248315175E+03  0.00000000000E+00 0. -1.
        -14    1    4    4    0    0  0.48765733667E+02  0.80757574195E+01 -0.54574758138E+02  0.73632322141E+02  0.00000000000E+00 0.  1.
</event>
<event>
12    1  0.1615162E-001  0.1831136E+03  0.7818608E-02  0.1165382E+00
         21   -1    0    0  501  502  0.00000000000E+00  0.00000000000E+00  0.18778898219E+03  0.18778898219E+03  0.00000000000E+00 0. -1.
         21   -1    0    0  502  503 -0.00000000000E+00 -0.00000000000E+00 -0.19531597772E+03  0.19531597772E+03  0.00000000000E+00 0. -1.
         -6    2    1    2    0  503  0.23213295911E+02 -0.49940734336E+02 -0.63551495303E+02  0.19161259439E+03  0.17217334207E+03 0.  0.
        -24    2    3    3    0    0  0.66104495117E+02 -0.71640989108E+02 -0.68315027301E+02  0.14308077736E+03  0.79390996345E+02 0.  0.
          6    2    1    2  501    0 -0.23213295911E+02  0.49940734336E+02  0.56024499781E+02  0.19149236552E+03  0.17463575643E+03 0.  0.
         24    2    5    5    0    0 -0.51176787902E+02 -0.23793652241E+02  0.83618924158E+01  0.99228988233E+02  0.81186632853E+02 0.  0.
          5    1    5    5  501    0  0.27963491991E+02  0.73734386576E+02  0.47662607365E+02  0.92263377290E+02  0.47000000000E+01 0. -1.
        -13    1    6    6    0    0 -0.25464600625E+02 -0.48699167442E+02 -0.14397562990E+02  0.56809722888E+02  0.00000000000E+00 0.  1.
         14    1    6    6    0    0 -0.25712187277E+02  0.24905515202E+02  0.22759455406E+02  0.42419265345E+02  0.00000000000E+00 0. -1.
         -5    1    3    3    0  503 -0.42891199206E+02  0.21700254772E+02  0.47635319979E+01  0.48531817023E+02  0.47000000000E+01 0.  1.
         11    1    4    4    0    0  0.35411347792E+02 -0.85065728368E+02 -0.52280549245E+02  0.10594053768E+03  0.00000000000E+00 0. -1.
        -12    1    4    4    0    0  0.30693147326E+02  0.13424739261E+02 -0.16034478056E+02  0.37140239680E+02  0.00000000000E+00 0.  1.
</event>
<event>
12    1  0.1615162E-001  0.2075061E+03  0.7818608E-02  0.1145511E+00
         21   -1    0    0  501  502  0.00000000000E+00  0.00000000000E+00  0.33674227671E+03  0.33674227671E+03  0.00000000000E+00 0. -1.
         21   -1    0    0  502  503 -0.00000000000E+00 -0.00000000000E+00 -0.13275574540E+03  0.13275574540E+03  0.00000000000E+00 0.  1.
         -6    2    1    2    0  503  0.62732853787E+02 -0.98274160533E+02  0.16631536278E+03  0.25860014093E+03  0.16006252348E+03 0.  0.
        -24    2    3    3    0    0 -0.19433595061E+02 -0.23400968653E+02  0.68103017455E+02  0.11019166762E+03  0.81110496700E+02 0.  0.
          6    2    1    2  501    0 -0.62732853787E+02  0.98274160533E+02  0.37671168534E+02  0.21089788117E+03  0.17165540414E+03 0.  0.
         24    2    5    5    0    0 -0.64543228981E+02  0.83221415299E+02 -0.34935332805E+02  0.13657657444E+03  0.79630715403E+02 0.  0.
          5    1    5    5  501    0  0.18103751938E+01  0.15052745234E+02  0.72606501339E+02  0.74321306731E+02  0.47000000000E+01 0. -1.
        -11    1    6    6    0    0 -0.47921044874E+02  0.82920229278E+02  0.22992017188E+01  0.95799150799E+02  0.00000000000E+00 0.  1.
         12    1    6    6    0    0 -0.16622184107E+02  0.30118602153E+00 -0.37234534524E+02  0.40777423640E+02  0.00000000000E+00 0. -1.
         -5    1    3    3    0  503  0.82166448848E+02 -0.74873191880E+02  0.98212345321E+02  0.14840847332E+03  0.47000000000E+01 0.  1.
         13    1    4    4    0    0  0.29811877729E+02 -0.22481414796E+02  0.27837387029E+02  0.46573406377E+02  0.00000000000E+00 0. -1.
        -14    1    4    4    0    0 -0.49245472790E+02 -0.91955385669E+00  0.40265630426E+02  0.63618261240E+02  0.00000000000E+00 0.  1.
</event>
<event>
12    1  0.1615162E-001  0.1865519E+03  0.7818608E-02  0.1162070E+00
         21   -1    0    0  501  502  0.00000000000E+00  0.00000000000E+00  0.15747349855E+03  0.15747349855E+03  0.00000000000E+00 0.  1.
         21   -1    0    0  502  503 -0.00000000000E+00 -0.00000000000E+00 -0.37218402039E+03  0.37218402039E+03  0.00000000000E+00 0. -1.
         -6    2    1    2    0  503 -0.46290771914E+02  0.56119744405E+02 -0.27778500452E+03  0.33461339731E+03  0.17178287355E+03 0.  0.
        -24    2    3    3    0    0 -0.27826064655E+02  0.68507881950E+02 -0.28964337408E+03  0.30897900060E+03  0.78148057569E+02 0.  0.
          6    2    1    2  501    0  0.46290771914E+02 -0.56119744405E+02  0.63074482683E+02  0.19504412164E+03  0.16962180798E+03 0.  0.
         24    2    5    5    0    0  0.56740029059E+02 -0.97964038270E+02  0.32671225309E+02  0.14206695710E+03  0.79367673793E+02 0.  0.
          5    1    5    5  501    0 -0.10449257145E+02  0.41844293865E+02  0.30403257374E+02  0.52977164542E+02  0.47000000000E+01 0. -1.
        -13    1    6    6    0    0 -0.30944903879E+01 -0.30967467824E+01  0.29540145221E+02  0.29862784383E+02  0.00000000000E+00 0.  1.
         14    1    6    6    0    0  0.59834519447E+02 -0.94867291488E+02  0.31310800882E+01  0.11220417271E+03  0.00000000000E+00 0. -1.
         -5    1    3    3    0  503 -0.18464707259E+02 -0.12388137545E+02  0.11858369557E+02  0.25634396708E+02  0.47000000000E+01 0.  1.
         11    1    4    4    0    0  0.15366656473E+02  0.21814765921E+02 -0.24206562744E+02  0.36027431538E+02  0.00000000000E+00 0. -1.
        -12    1    4    4    0    0 -0.43192721128E+02  0.46693116030E+02 -0.26543681134E+03  0.27295156906E+03  0.00000000000E+00 0.  1.
</event>
<event>
12    1  0.1615162E-001  0.3131791E+03  0.7818608E-02  0.1078946E+00
         21   -1    0    0  501  502  0.00000000000E+00  0.00000000000E+00  0.14012357049E+03  0.14012357049E+03  0.00000000000E+00 0. -1.
         21   -1    0    0  502  503 -0.00000000000E+00 -0.00000000000E+00 -0.11631205404E+04  0.11631205404E+04  0.00000000000E+00 0. -1.
         -6    2    1    2    0  503 -0.24468023460E+03 -0.92023465050E+02 -0.92317258538E+03  0.97454053916E+03  0.17071878851E+03 0.  0.
        -24    2    3    3    0    0 -0.60103034126E+02 -0.69642631956E+02 -0.45390314385E+03  0.46975786971E+03  0.78625194830E+02 0.  0.
          6    2    1    2  501    0  0.24468023460E+03  0.92023465050E+02 -0.99824384499E+02  0.32870357169E+03  0.17246563419E+03 0.  0.
         24    2    5    5    0    0  0.25339820962E+03  0.60546513560E+02 -0.11099371046E+03  0.29386615781E+03  0.78493197162E+02 0.  0.
          5    1    5    5  501    0 -0.87179750195E+01  0.31476951490E+02  0.11169325958E+02  0.34837413881E+02  0.47000000000E+01 0. -1.
        -11    1    6    6    0    0  0.39897853340E+02  0.41072677550E+02 -0.30408587004E+02  0.64834294211E+02  0.00000000000E+00 0.  1.
         12    1    6    6    0    0  0.21350035628E+03  0.19473836010E+02 -0.80585123454E+02  0.22903186360E+03  0.00000000000E+00 0. -1.
         -5    1    3    3    0  503 -0.18457720047E+03 -0.22380833094E+02 -0.46926944153E+03  0.50478266946E+03  0.47000000000E+01 0.  1.
         13    1    4    4    0    0 -0.25012708713E+02 -0.72839956000E+01 -0.29464217466E+02  0.39329788964E+02  0.00000000000E+00 0. -1.
        -14    1    4    4    0    0 -0.35090325413E+02 -0.62358636356E+02 -0.42443892638E+03  0.43042808075E+03  0.00000000000E+00 0.  1.
</event>
<event>
12    1  0.1615162E-001  0.1891629E+03  0.7818608E-02  0.1159479E+00
         21   -1    0    0  501  502  0.00000000000E+00  0.00000000000E+00  0.39161308462E+03  0.39161308462E+03  0.00000000000E+00 0.  1.
         21   -1    0    0  502  503 -0.00000000000E+00 -0.00000000000E+00 -0.94472274509E+02  0.94472274509E+02  0.00000000000E+00 0.  1.
         -6    2    1    2    0  503  0.30152747756E+02 -0.69807351183E+02  0.10035819867E+03  0.21312747499E+03  0.17195725655E+03 0.  0.
        -24    2    3    3    0    0  0.59952522497E+02 -0.98077296634E+02  0.50950544105E+02  0.14870370050E+03  0.79393775125E+02 0.  0.
          6    2    1    2  501    0 -0.30152747756E+02  0.69807351183E+02  0.19678261144E+03  0.27295788413E+03  0.17320610806E+03 0.  0.
         24    2    5    5    0    0 -0.72586808574E+02  0.12548178921E+02  0.15612945917E+03  0.19077497159E+03  0.81193473804E+02 0.  0.
          5    1    5    5  501    0  0.42434060818E+02  0.57259172262E+02  0.40653152265E+02  0.82182912547E+02  0.47000000000E+01 0. -1.
        -13    1    6    6    0    0 -0.10572088631E+02  0.27254661596E+02  0.10521467020E+03  0.10920033179E+03  0.00000000000E+00 0.  1.
         14    1    6    6    0    0 -0.62014719944E+02 -0.14706482674E+02  0.50914788975E+02  0.81574639801E+02  0.00000000000E+00 0. -1.
         -5    1    3    3    0  503 -0.29799774742E+02  0.28269945451E+02  0.49407654562E+02  0.64423774492E+02  0.47000000000E+01 0.  1.
         11    1    4    4    0    0 -0.92952599135E+01 -0.69755285921E+01 -0.13143152495E+02  0.17544295754E+02  0.00000000000E+00 0. -1.
        -12    1    4    4    0    0  0.69247782411E+02 -0.91101768042E+02  0.64093696600E+02  0.13115940474E+03  0.00000000000E+00 0.  1.
</event>
<event>
12    1  0.1615162E-001  0.2008733E+03  0.7818608E-02  0.1149067E+00
         21   -1    0    0  501  502  0.00000000000E+00  0.00000000000E+00  0.20115973024E+03  0.20115973024E+03  0.00000000000E+00 0. -1.
         21   -1    0    0  502  503 -0.00000000000E+00 -0.00000000000E+00 -0.23858760381E+03  0.23858760381E+03  0.00000000000E+00 0. -1.
         -6    2    1    2    0  503 -0.47628720731E+02  0.95605725788E+02 -0.10679610647E+03  0.22723373280E+03  0.16976693177E+03 0.  0.
        -24    2    3    3    0    0  0.24815589821E+02  0.55682331602E+02 -0.13097011491E+02  0.10215909135E+03  0.80923498965E+02 0.  0.
          6    2    1    2  501    0  0.47628720731E+02 -0.95605725788E+02  0.69368232888E+02  0.21251360125E+03  0.17012092505E+03 0.  0.
         24    2    5    5    0    0 -0.22583838812E+01  0.10851188171E+02  0.45538770357E+02  0.92464731947E+02  0.79706326386E+02 0.  0.
          5    1    5    5  501    0  0.49887104612E+02 -0.10645691396E+03  0.23829462532E+02  0.12004886930E+03  0.47000000000E+01 0. -1.
        -13    1    6    6    0    0 -0.15846219079E+02 -0.87372746304E+01  0.61280660026E+02  0.63896493803E+02  0.00000000000E+00 0.  1.
         14    1    6    6    0    0  0.13587835198E+02  0.19588462802E+02 -0.15741889669E+02  0.28568238144E+02  0.00000000000E+00 0. -1.
         -5    1    3    3    0  503 -0.72444310551E+02  0.39923394187E+02 -0.93699094976E+02  0.12507464145E+03  0.47000000000E+01 0.  1.
         11    1    4    4    0    0 -0.17097948767E+02  0.35214803902E+02 -0.33236862700E+02  0.51352812075E+02  0.00000000000E+00 0. -1.
        -12    1    4    4    0    0  0.41913538587E+02  0.20467527700E+02  0.20139851209E+02  0.50806279275E+02  0.00000000000E+00 0.  1.
</event>
<event>
12    1  0.1615162E-001  0.1872072E+03  0.7818608E-02  0.1161493E+00
         21   -1    0    0  503  502  0.00000000000E+00  0.00000000000E+00  0.75579819611E+02  0.75579819611E+02  0.00000000000E+00 0. -1.
         21   -1    0    0  501  503 -0.00000000000E+00 -0.00000000000E+00 -0.57474290847E+03  0.57474290847E+03  0.00000000000E+00 0. -1.
          6    2    1    2  501    0  0.16583936219E+02  0.69689251154E+02 -0.39694621827E+03  0.43887679458E+03  0.17295930720E+03 0.  0.
         24    2    3    3    0    0 -0.52048144991E+02  0.69554016654E+02 -0.24908780596E+03  0.27579834428E+03  0.80456329762E+02 0.  0.
         -6    2    1    2    0  502 -0.16583936219E+02 -0.69689251154E+02 -0.10221687058E+03  0.21144593350E+03  0.17067359344E+03 0.  0.
        -24    2    5    5    0    0 -0.25247001097E+02 -0.97382921800E+02 -0.12088555241E+03  0.17662355897E+03  0.80384826178E+02 0.  0.
          5    1    3    3  501    0  0.68632081210E+02  0.13523450062E+00 -0.14785841231E+03  0.16307845030E+03  0.47000000000E+01 0. -1.
        -11    1    4    4    0    0 -0.64089526819E+02  0.35857109521E+02 -0.11059352100E+03  0.13275589116E+03  0.00000000000E+00 0.  1.
         12    1    4    4    0    0  0.12041381828E+02  0.33696907133E+02 -0.13849428496E+03  0.14304245312E+03  0.00000000000E+00 0. -1.
         -5    1    5    5    0  502  0.86630648780E+01  0.27693670646E+02  0.18668681826E+02  0.34822374532E+02  0.47000000000E+01 0.  1.
         13    1    6    6    0    0 -0.39007784287E+02 -0.98142945876E+02 -0.77207886686E+02  0.13082317389E+03  0.00000000000E+00 0. -1.
        -14    1    6    6    0    0  0.13760783190E+02  0.76002407531E+00 -0.43677665721E+02  0.45800385080E+02  0.00000000000E+00 0.  1.
</event>
<event>
12    1  0.1615162E-001  0.2708242E+03  0.7818608E-02  0.1102806E+00
         21   -1    0    0  503  502  0.00000000000E+00  0.00000000000E+00  0.15425931401E+03  0.15425931401E+03  0.00000000000E+00 0. -1.
         21   -1    0    0  501  503 -0.00000000000E+00 -0.00000000000E+00 -0.10741018373E+04  0.10741018373E+04  0.00000000000E+00 0. -1.
          6    2    1    2  501    0 -0.16421432286E+03  0.98433635977E+02 -0.93232585386E+03  0.97086416687E+03  0.19154688252E+03 0.  0.
         24    2    3    3    0    0 -0.31176738126E+02  0.48147366493E+02 -0.61879819279E+03  0.62655414362E+03  0.79804345665E+02 0.  0.
         -6    2    1    2    0  502  0.16421432286E+03 -0.98433635977E+02  0.12483330587E+02  0.25749698443E+03  0.17173624813E+03 0.  0.
        -24    2    5    5    0    0  0.72746972047E+02 -0.10556613163E+03  0.48607603463E+02  0.15878426057E+03  0.80083782396E+02 0.  0.
          5    1    3    3  501    0 -0.13303758474E+03  0.50286269484E+02 -0.31352766107E+03  0.34431002325E+03  0.47000000000E+01 0. -1.
        -13    1    4    4    0    0 -0.23109410086E+02  0.69165802418E+02 -0.52771417774E+03  0.53272901784E+03  0.00000000000E+00 0.  1.
         14    1    4    4    0    0 -0.80673280398E+01 -0.21018435925E+02 -0.91084015047E+02  0.93825125779E+02  0.00000000000E+00 0. -1.
         -5    1    5    5    0  502  0.91467350816E+02  0.71324956511E+01 -0.36124272876E+02  0.98712723852E+02  0.47000000000E+01 0.  1.
         13    1    6    6    0    0  0.88537107714E+02 -0.87094354944E+02  0.51222998634E+02  0.13434300017E+03  0.00000000000E+00 0. -1.
        -14    1    6    6    0    0 -0.15790135668E+02 -0.18471776685E+02 -0.26153951704E+01  0.24441260405E+02  0.00000000000E+00 0.  1.
</event>
<event>
12    1  0.1615162E-001  0.2049562E+03  0.7818608E-02  0.1146441E+00
         21   -1    0    0  503  502  0.00000000000E+00  0.00000000000E+00  0.53229418644E+03  0.53229418644E+03  0.00000000000E+00 0.  1.
         21   -1    0    0  501  503 -0.00000000000E+00 -0.00000000000E+00 -0.82906404024E+02  0.82906404024E+02  0.00000000000E+00 0. -1.
          6    2    1    2  501    0  0.10713255506E+03  0.20234932912E+01  0.30192220850E+03  0.36270674371E+03  0.17005200107E+03 0.  0.
         24    2    3    3    0    0  0.35556845925E+02  0.52293401307E+02  0.10061569361E+03  0.14316961991E+03  0.79844430937E+02 0.  0.
         -6    2    1    2    0  502 -0.10713255506E+03 -0.20234932912E+01  0.14746557392E+03  0.25249384676E+03  0.17471567840E+03 0.  0.
        -24    2    5    5    0    0 -0.53959309207E+02  0.51855030521E+02  0.33672051340E+02  0.11574098505E+03  0.81618731546E+02 0.  0.
          5    1    3    3  501    0  0.71575709137E+02 -0.50269908016E+02  0.20130651489E+03  0.21953712381E+03  0.47000000000E+01 0. -1.
        -11    1    4    4    0    0  0.50359945773E+02  0.52151555698E+02  0.10512028523E+03  0.12769566660E+03  0.00000000000E+00 0.  1.
         12    1    4    4    0    0 -0.14803099848E+02  0.14184560869E+00 -0.45045916269E+01  0.15473953309E+02  0.00000000000E+00 0. -1.
         -5    1    5    5    0  502 -0.53173245855E+02 -0.53878523812E+02  0.11379352258E+03  0.13675286170E+03  0.47000000000E+01 0.  1.
         11    1    6    6    0    0 -0.62716838684E+02  0.48315669656E+01  0.19143075462E+02  0.65751070197E+02  0.00000000000E+00 0. -1.
        -12    1    6    6    0    0  0.87575294769E+01  0.47023463555E+02  0.14528975878E+02  0.49989914856E+02  0.00000000000E+00 0.  1.
</event>
<event>
12    1  0.1615162E-001  0.1824751E+03  0.7818608E-02  0.1165764E+00
         21   -1    0    0  503  502  0.00000000000E+00  0.00000000000E+00  0.76488379553E+03  0.76488379553E+03  0.00000000000E+00 0.  1.
         21   -1    0    0  501  503 -0.00000000000E+00 -0.00000000000E+00 -0.46408382402E+02  0.46408382402E+02  0.00000000000E+00 0. -1.
          6    2    1    2  501    0  0.63089812726E+01  0.56510591014E+02  0.25126312830E+03  0.30971020959E+03  0.17191278061E+03 0.  0.
         24    2    3    3    0    0  0.46667450214E+02  0.84318810383E+02  0.21184181187E+03  0.24663697225E+03  0.81641473083E+02 0.  0.
         -6    2    1    2    0  502 -0.63089812726E+01 -0.56510591014E+02  0.46721228483E+03  0.50158196835E+03  0.17338945104E+03 0.  0.
        -24    2    5    5    0    0 -0.20597857708E+02 -0.74269059879E+01  0.95234896030E+02  0.12607877541E+03  0.79666439063E+02 0.  0.
          5    1    3    3  501    0 -0.40358468942E+02 -0.27808219369E+02  0.39421316428E+02  0.63073237341E+02  0.47000000000E+01 0. -1.
        -11    1    4    4    0    0  0.39110624776E+02  0.54510025226E+02  0.20421595151E+03  0.21495380590E+03  0.00000000000E+00 0.  1.
         12    1    4    4    0    0  0.75568254383E+01  0.29808785157E+02  0.76258603609E+01  0.31683166342E+02  0.00000000000E+00 0. -1.
         -5    1    5    5    0  502  0.14288876435E+02 -0.49083685026E+02  0.37197738880E+03  0.37550319293E+03  0.47000000000E+01 0.  1.
         11    1    6    6    0    0  0.13093345985E+02  0.25395300014E+02  0.62652166955E+02  0.68859647081E+02  0.00000000000E+00 0. -1.
        -12    1    6    6    0    0 -0.33691203693E+02 -0.32822206002E+02  0.32582729075E+02  0.57219128332E+02  0.00000000000E+00 0.  1.
</event>
<event>
12    1  0.1615162E-001  0.2182234E+03  0.7818608E-02  0.1135424E+00
         21   -1    0    0  503  502  0.00000000000E+00  0.00000000000E+00  0.49986677165E+03  0.49986677165E+03  0.00000000000E+00 0. -1.
         21   -1    0    0  501  503 -0.00000000000E+00 -0.00000000000E+00 -0.11038621399E+03  0.11038621399E+03  0.00000000000E+00 0. -1.
          6    2    1    2  501    0 -0.32603795512E+02 -0.12961167489E+03  0.80457103486E+02  0.23258291044E+03  0.17250875624E+03 0.  0.
         24    2    3    3    0    0 -0.19800355862E+02 -0.94723431168E+02  0.12341225268E+03  0.17558859091E+03  0.78969529838E+02 0.  0.
         -6    2    1    2    0  502  0.32603795512E+02  0.12961167489E+03  0.30902345417E+03  0.37767007519E+03  0.17110522119E+03 0.  0.
        -24    2    5    5    0    0  0.40479338748E+02  0.16020433002E+03  0.24520256254E+03  0.30630390016E+03  0.79961105290E+02 0.  0.
          5    1    3    3  501    0 -0.12803439650E+02 -0.34888243719E+02 -0.42955149193E+02  0.56994319532E+02  0.47000000000E+01 0. -1.
        -11    1    4    4    0    0 -0.20900285187E+02 -0.56029199304E+01  0.66277931587E+02  0.69720720364E+02  0.00000000000E+00 0.  1.
         12    1    4    4    0    0  0.10999293249E+01 -0.89120511238E+02  0.57134321093E+02  0.10586787055E+03  0.00000000000E+00 0. -1.
         -5    1    5    5    0  502 -0.78755432359E+01 -0.30592655131E+02  0.63820891636E+02  0.71366175030E+02  0.47000000000E+01 0.  1.
         13    1    6    6    0    0  0.41631052750E+02  0.28998264924E+02  0.87594693561E+02  0.10122684556E+03  0.00000000000E+00 0. -1.
        -14    1    6    6    0    0 -0.11517140021E+01  0.13120606510E+03  0.15760786897E+03  0.20507705461E+03  0.00000000000E+00 0.  1.
</event>
<event>
12    1  0.1615162E-001  0.1921342E+03  0.7818608E-02  0.1156797E+00
         21   -1    0    0  501  502  0.00000000000E+00  0.00000000000E+00  0.13855153086E+03  0.13855153086E+03  0.00000000000E+00 0.  1.
         21   -1    0    0  502  503 -0.00000000000E+00 -0.00000000000E+00 -0.40254104329E+03  0.40254104329E+03  0.00000000000E+00 0.  1.
         -6    2    1    2    0  503  0.82535389653E+02  0.78143290377E+00 -0.29044059374E+03  0.34824026181E+03  0.17350170107E+03 0.  0.
        -24    2    3    3    0    0  0.98588192089E+02  0.18918649407E+02 -0.11824707559E+03  0.17428811673E+03  0.79475970149E+02 0.  0.
          6    2    1    2  501    0 -0.82535389653E+02 -0.78143290377E+00  0.26451081315E+02  0.19285231234E+03  0.17227783807E+03 0.  0.
         24    2    5    5    0    0 -0.73968688677E+02  0.36593740120E+01  0.82041814938E+02  0.13623492282E+03  0.79651345712E+02 0.  0.
          5    1    5    5  501    0 -0.85667009758E+01 -0.44408069157E+01 -0.55590733623E+02  0.56617389523E+02  0.47000000000E+01 0. -1.
        -11    1    6    6    0    0 -0.88145574353E+02  0.11952883414E+02  0.80089402272E+02  0.11969472025E+03  0.00000000000E+00 0.  1.
         12    1    6    6    0    0  0.14176885676E+02 -0.82935094018E+01  0.19524126663E+01  0.16540202565E+02  0.00000000000E+00 0. -1.
         -5    1    3    3    0  503 -0.16052802435E+02 -0.18137216503E+02 -0.17219351815E+03  0.17395214509E+03  0.47000000000E+01 0.  1.
         13    1    4    4    0    0 -0.59325516372E+01  0.22616943621E+02 -0.23886659860E+02  0.33425945415E+02  0.00000000000E+00 0. -1.
        -14    1    4    4    0    0  0.10452074373E+03 -0.36982942135E+01 -0.94360415732E+02  0.14086217131E+03  0.00000000000E+00 0.  1.
</event>
<event>
12    1  0.1615162E-001  0.1996766E+03  0.7818608E-02  0.1150418E+00
         21   -1    0    0  501  502  0.00000000000E+00  0.00000000000E+00  0.30427986123E+02  0.30427986123E+02  0.00000000000E+00 0.  1.
         21   -1    0    0  502  503 -0.00000000000E+00 -0.00000000000E+00 -0.13348910402E+04  0.13348910402E+04  0.00000000000E+00 0.  1.
         -6    2    1    2    0  503  0.86096102566E+02 -0.45840136926E+02 -0.76294480338E+03  0.78815981223E+03  0.17203854098E+03 0.  0.
        -24    2    3    3    0    0  0.63063248734E+02  0.38988690273E+02 -0.41600017461E+03  0.43022251645E+03  0.80858995016E+02 0.  0.
          6    2    1    2  501    0 -0.86096102566E+02  0.45840136926E+02 -0.54151825068E+03  0.57715921407E+03  0.17423227468E+03 0.  0.
         24    2    5    5    0    0 -0.66283489358E+02  0.88314219154E+02 -0.27168870838E+03  0.30324926682E+03  0.77152195709E+02 0.  0.
          5    1    5    5  501    0 -0.19812613208E+02 -0.42474082228E+02 -0.26982954230E+03  0.27390994725E+03  0.47000000000E+01 0. -1.
        -11    1    6    6    0    0 -0.13377079634E+02  0.70614662953E+02 -0.10316549547E+03  0.12573184298E+03  0.00000000000E+00 0.  1.
         12    1    6    6    0    0 -0.52906409724E+02  0.17699556201E+02 -0.16852321290E+03  0.17751742384E+03  0.00000000000E+00 0. -1.
         -5    1    3    3    0  503  0.23032853832E+02 -0.84828827199E+02 -0.34694462877E+03  0.35793729578E+03  0.47000000000E+01 0.  1.
         13    1    4    4    0    0  0.44756840936E+02  0.38099052780E+02 -0.11966162142E+03  0.13331772678E+03  0.00000000000E+00 0. -1.
        -14    1    4    4    0    0  0.18306407798E+02  0.88963749391E+00 -0.29633855319E+03  0.29690478967E+03  0.00000000000E+00 0.  1.
</event>
<event>
12    1  0.1615162E-001  0.1758238E+03  0.7818608E-02  0.1172057E+00
         21   -1    0    0  501  502  0.00000000000E+00  0.00000000000E+00  0.12330928825E+04  0.12330928825E+04  0.00000000000E+00 0.  1.
         21   -1    0    0  502  503 -0.00000000000E+00 -0.00000000000E+00 -0.29749028842E+02  0.29749028842E+02  0.00000000000E+00 0.  1.
         -6    2    1    2    0  503 -0.44911067207E+01 -0.35905145141E+02  0.85349174044E+03  0.87129305525E+03  0.17144704033E+03 0.  0.
        -24    2    3    3    0    0  0.22662332644E+02 -0.74485108555E+02  0.43671451479E+03  0.45182783778E+03  0.85832481303E+02 0.  0.
          6    2    1    2  501    0  0.44911067207E+01  0.35905145141E+02  0.34985211319E+03  0.39154885606E+03  0.17206003631E+03 0.  0.
         24    2    5    5    0    0  0.18544311837E+02 -0.25476845037E+02  0.92255521879E+02  0.12632567618E+03  0.80337625129E+02 0.  0.
          5    1    5    5  501    0 -0.14053205116E+02  0.61381990178E+02  0.25759659131E+03  0.26522317988E+03  0.47000000000E+01 0. -1.
        -11    1    6    6    0    0 -0.18269063929E+02  0.19138553453E+02  0.42320485580E+02  0.49910584297E+02  0.00000000000E+00 0.  1.
         12    1    6    6    0    0  0.36813375766E+02 -0.44615398490E+02  0.49935036300E+02  0.76415091886E+02  0.00000000000E+00 0. -1.
         -5    1    3    3    0  503 -0.27153439365E+02  0.38579963414E+02  0.41677722565E+03  0.41946521747E+03  0.47000000000E+01 0.  1.
         13    1    4    4    0    0  0.10521959518E+02 -0.64888156244E+01  0.30975447718E+01  0.12744063085E+02  0.00000000000E+00 0. -1.
        -14    1    4    4    0    0  0.12140373126E+02 -0.67996292930E+02  0.43361697002E+03  0.43908377469E+03  0.00000000000E+00 0.  1.
</event>
<event>
12    1  0.1615162E-001  0.1907070E+03  0.7818608E-02  0.1159709E+00
         21   -1    0    0  501  502  0.00000000000E+00  0.00000000000E+00  0.59744778580E+03  0.59744778580E+03  0.00000000000E+00 0. -1.
         21   -1    0    0  502  503 -0.00000000000E+00 -0.00000000000E+00 -0.64503007096E+02  0.64503007096E+02  0.00000000000E+00 0. -1.
         -6    2    1    2    0  503 -0.13577167553E+02  0.81272044077E+02  0.15844613115E+03  0.24169088718E+03  0.16284908302E+03 0.  0.
        -24    2    3    3    0    0  0.52324310286E+02  0.58261471030E+02  0.10887452629E+03  0.15594751856E+03  0.79584757439E+02 0.  0.
          6    2    1    2  501    0  0.13577167553E+02 -0.81272044077E+02  0.37449864755E+03  0.42025990572E+03  0.17198740276E+03 0.  0.
         24    2    5    5    0    0  0.41947464391E+02 -0.76040815458E+01  0.29198355600E+03  0.30596785534E+03  0.80898205800E+02 0.  0.
          5    1    5    5  501    0 -0.28370296838E+02 -0.73667962531E+02  0.82515091551E+02  0.11429205038E+03  0.47000000000E+01 0. -1.
        -13    1    6    6    0    0  0.25140280251E+02 -0.30902603662E+02  0.25976300442E+03  0.26279996779E+03  0.00000000000E+00 0.  1.
         14    1    6    6    0    0  0.16807184141E+02  0.23298522116E+02  0.32220551580E+02  0.43167887551E+02  0.00000000000E+00 0. -1.
         -5    1    3    3    0  503 -0.65901477839E+02  0.23010573047E+02  0.49571604865E+02  0.85743368620E+02  0.47000000000E+01 0.  1.
         13    1    4    4    0    0  0.20241166225E+02 -0.66348862944E+01  0.71238751867E+02  0.74355136298E+02  0.00000000000E+00 0. -1.
        -14    1    4    4    0    0  0.32083144061E+02  0.64896357324E+02  0.37635774422E+02  0.81592382262E+02  0.00000000000E+00 0.  1.
</event>
<event>
12    1  0.1615162E-001  0.2023182E+03  0.7818608E-02  0.1148128E+00
         21   -1    0    0  503  502  0.00000000000E+00  0.00000000000E+00  0.84690536816E+03  0.84690536816E+03  0.00000000000E+00 0.  1.
         21   -1    0    0  501  503 -0.00000000000E+00 -0.00000000000E+00 -0.72941492247E+02  0.72941492247E+02  0.00000000000E+00 0.  1.
          6    2    1    2  501    0  0.99945411512E+02  0.26052291848E+02  0.11680222099E+03  0.23224662987E+03  0.17212765921E+03 0.  0.
         24    2    3    3    0    0  0.67510641163E+01  0.44544101166E+02  0.16300268188E+02  0.93863589305E+02  0.80715059554E+02 0.  0.
         -6    2    1    2    0  502 -0.99945411512E+02 -0.26052291848E+02  0.65716165492E+03  0.68760023054E+03  0.17396789687E+03 0.  0.
        -24    2    5    5    0    0 -0.45702981949E+02  0.31755984293E+02  0.51844845773E+03  0.52776444283E+03  0.81543232101E+02 0.  0.
          5    1    3    3  501    0  0.93194347396E+02 -0.18491809318E+02  0.10050195280E+03  0.13838304056E+03  0.47000000000E+01 0. -1.
        -13    1    4    4    0    0  0.40411172081E+02  0.12426649789E+02 -0.52259831000E+01  0.42600414943E+02  0.00000000000E+00 0.  1.
         14    1    4    4    0    0 -0.33660107965E+02  0.32117451377E+02  0.21526251288E+02  0.51263174362E+02  0.00000000000E+00 0. -1.
         -5    1    5    5    0  502 -0.54242429563E+02 -0.57808276140E+02  0.13871319719E+03  0.15983578770E+03  0.47000000000E+01 0.  1.
         11    1    6    6    0    0 -0.67038154239E+02  0.32665335297E+02  0.34247475551E+03  0.35049978090E+03  0.00000000000E+00 0. -1.
        -12    1    6    6    0    0  0.21335172289E+02 -0.90935100476E+00  0.17597370222E+03  0.17726466193E+03  0.00000000000E+00 0.  1.
</event>
<event>
12    1  0.1615162E-001  0.2246460E+03  0.7818608E-02  0.1131218E+00
         21   -1    0    0  501  502  0.00000000000E+00  0.00000000000E+00  0.12320584193E+03  0.12320584193E+03  0.00000000000E+00 0.  1.
         21   -1    0    0  502  503 -0.00000000000E+00 -0.00000000000E+00 -0.40487438411E+03  0.40487438411E+03  0.00000000000E+00 0. -1.
         -6    2    1    2    0  503  0.24987417887E+02 -0.14181469489E+03 -0.11789742679E+03  0.25007515192E+03  0.16703891650E+03 0.  0.
        -24    2    3    3    0    0  0.14435261756E+01 -0.43966704235E+02 -0.48369527256E+00  0.95360516344E+02  0.84606378407E+02 0.  0.
          6    2    1    2  501    0 -0.24987417887E+02  0.14181469489E+03 -0.16377111538E+03  0.27800507412E+03  0.17242408261E+03 0.  0.
         24    2    5    5    0    0 -0.40572223737E+02  0.13280807708E+03 -0.18741831609E+03  0.24791711242E+03  0.83983205162E+02 0.  0.
          5    1    5    5  501    0  0.15584805850E+02  0.90066178072E+01  0.23647200708E+02  0.30087961696E+02  0.47000000000E+01 0. -1.
        -13    1    6    6    0    0 -0.58685775913E+02  0.61432452565E+02 -0.73875093649E+02  0.11258550521E+03  0.00000000000E+00 0.  1.
         14    1    6    6    0    0  0.18113552176E+02  0.71375624516E+02 -0.11354322244E+03  0.13533160721E+03  0.00000000000E+00 0. -1.
         -5    1    3    3    0  503  0.23543891712E+02 -0.97847990653E+02 -0.11741373152E+03  0.15471463558E+03  0.47000000000E+01 0.  1.
         13    1    4    4    0    0 -0.63301553383E+01 -0.44763512880E+02 -0.36750210936E+02  0.58261659398E+02  0.00000000000E+00 0. -1.
        -14    1    4    4    0    0  0.77736815138E+01  0.79680864471E+00  0.36266515664E+02  0.37098856946E+02  0.00000000000E+00 0.  1.
</event>
<event>
12    1  0.1615162E-001  0.2472159E+03  0.7818608E-02  0.1115121E+00
         21   -1    0    0  501  502  0.00000000000E+00  0.00000000000E+00  0.20556831993E+03  0.20556831993E+03  0.00000000000E+00 0. -1.
         21   -1    0    0  502  503 -0.00000000000E+00 -0.00000000000E+00 -0.34391318753E+03  0.34391318753E+03  0.00000000000E+00 0. -1.
         -6    2    1    2    0  503  0.14720757026E+03 -0.98546026121E+02 -0.17070623769E+03  0.30042688187E+03  0.17243637598E+03 0.  0.
        -24    2    3    3    0    0  0.59260524073E+02 -0.11197744399E+02 -0.14117491798E+03  0.17291768967E+03  0.79579964445E+02 0.  0.
          6    2    1    2  501    0 -0.14720757026E+03  0.98546026121E+02  0.32361370085E+02  0.24905462559E+03  0.17204522734E+03 0.  0.
         24    2    5    5    0    0 -0.13293830793E+03  0.10045674068E+03 -0.27760518674E+02  0.18705467248E+03  0.80340859082E+02 0.  0.
          5    1    5    5  501    0 -0.14269262333E+02 -0.19107145610E+01  0.60121888758E+02  0.61999953109E+02  0.47000000000E+01 0. -1.
        -13    1    6    6    0    0 -0.72094818491E+02  0.10075040506E+03 -0.14027510223E+02  0.12467990221E+03  0.00000000000E+00 0.  1.
         14    1    6    6    0    0 -0.60843489436E+02 -0.29366437391E+00 -0.13733008451E+02  0.62374770273E+02  0.00000000000E+00 0. -1.
         -5    1    3    3    0  503  0.87947046187E+02 -0.87348281722E+02 -0.29531319708E+02  0.12750919220E+03  0.47000000000E+01 0.  1.
         13    1    4    4    0    0  0.58614834355E+02 -0.40501793323E+01 -0.39065713561E+02  0.70556592428E+02  0.00000000000E+00 0. -1.
        -14    1    4    4    0    0  0.64568971866E+00 -0.71475650664E+01 -0.10210920442E+03  0.10236109724E+03  0.00000000000E+00 0.  1.
</event>
<event>
12    1  0.1615162E-001  0.1737921E+03  0.7818608E-02  0.1173997E+00
         21   -1    0    0  501  502  0.00000000000E+00  0.00000000000E+00  0.17544567520E+03  0.17544567520E+03  0.00000000000E+00 0.  1.
         21   -1    0    0  502  503 -0.00000000000E+00 -0.00000000000E+00 -0.17709740273E+03  0.17709740273E+03  0.00000000000E+00 0.  1.
         -6    2    1    2    0  503  0.18724401942E+02 -0.18189878572E+02  0.29166504864E+02  0.17603964322E+03  0.17163273601E+03 0.  0.
        -24    2    3    3    0    0 -0.11053269255E+02  0.26173910440E+02 -0.35089759067E+02  0.92338908868E+02  0.80547715986E+02 0.  0.
          6    2    1    2  501    0 -0.18724401942E+02  0.18189878572E+02 -0.30818232390E+02  0.17650343471E+03  0.17182032507E+03 0.  0.
         24    2    5    5    0    0 -0.40405967806E+02  0.45362066186E+02  0.31624598700E+02  0.10488210247E+03  0.79434129262E+02 0.  0.
          5    1    5    5  501    0  0.21681565864E+02 -0.27172187614E+02 -0.62442831090E+02  0.71621332245E+02  0.47000000000E+01 0. -1.
        -13    1    6    6    0    0 -0.16586259004E+01  0.51970619867E+02 -0.35726278212E+01  0.52119670363E+02  0.00000000000E+00 0.  1.
         14    1    6    6    0    0 -0.38747341906E+02 -0.66085536814E+01  0.35197226521E+02  0.52762432102E+02  0.00000000000E+00 0. -1.
         -5    1    3    3    0  503  0.29777671197E+02 -0.44363789013E+02  0.64256263931E+02  0.83700734356E+02  0.47000000000E+01 0.  1.
         11    1    4    4    0    0  0.33752452692E+01  0.47078639459E+02  0.21647931325E+01  0.47249094205E+02  0.00000000000E+00 0. -1.
        -12    1    4    4    0    0 -0.14428514524E+02 -0.20904729018E+02 -0.37254552199E+02  0.45089814662E+02  0.00000000000E+00 0.  1.
</event>
<event>
12    1  0.1615162E-001  0.1767645E+03  0.7818608E-02  0.1171049E+00
         21   -1    0    0  501  502  0.00000000000E+00  0.00000000000E+00  0.10476976669E+03  0.10476976669E+03  0.00000000000E+00 0.  1.
         21   -1    0    0  502  503 -0.00000000000E+00 -0.00000000000E+00 -0.31362921780E+03  0.31362921780E+03  0.00000000000E+00 0.  1.
         -6    2    1    2    0  503 -0.40434683341E+02  0.12749308577E+01 -0.57382254640E+02  0.18584511278E+03  0.17207293144E+03 0.  0.
        -24    2    3    3    0    0 -0.59476881938E+02  0.58648873507E+02 -0.42895438360E+02  0.12350465667E+03  0.80225879482E+02 0.  0.
          6    2    1    2  501    0  0.40434683341E+02 -0.12749308577E+01 -0.15147719646E+03  0.23255387171E+03  0.17175381548E+03 0.  0.
         24    2    5    5    0    0  0.88064773205E+02 -0.66341924324E+01 -0.71260744958E+02  0.13899043741E+03  0.80254788834E+02 0.  0.
          5    1    5    5  501    0 -0.47630089864E+02  0.53592615747E+01 -0.80216451506E+02  0.93563434296E+02  0.47000000000E+01 0. -1.
        -13    1    6    6    0    0  0.39731503820E+02 -0.39142499982E+02 -0.55419961587E+02  0.78626330468E+02  0.00000000000E+00 0.  1.
         14    1    6    6    0    0  0.48333269384E+02  0.32508307549E+02 -0.15840783371E+02  0.60364106942E+02  0.00000000000E+00 0. -1.
         -5    1    3    3    0  503  0.19042198597E+02 -0.57373942649E+02 -0.14486816280E+02  0.62340456114E+02  0.47000000000E+01 0.  1.
         11    1    4    4    0    0  0.81767629930E+01 -0.83556308116E+01 -0.23619370578E+02  0.26354329546E+02  0.00000000000E+00 0. -1.
        -12    1    4    4    0    0 -0.67653644931E+02  0.67004504318E+02 -0.19276067782E+02  0.97150327125E+02  0.00000000000E+00 0.  1.
</event>
<event>
12    1  0.1615162E-001  0.2138781E+03  0.7818608E-02  0.1138586E+00
         21   -1    0    0  503  502  0.00000000000E+00  0.00000000000E+00  0.49367862114E+03  0.49367862114E+03  0.00000000000E+00 0.  1.
         21   -1    0    0  501  503 -0.00000000000E+00 -0.00000000000E+00 -0.13479427673E+03  0.13479427673E+03  0.00000000000E+00 0.  1.
          6    2    1    2  501    0 -0.12033073484E+03  0.38941597232E+02  0.34172800969E+01  0.21362270159E+03  0.17212509139E+03 0.  0.
         24    2    3    3    0    0 -0.45514828826E+02  0.33042738459E+02  0.63321235761E+02  0.11748327038E+03  0.81420622164E+02 0.  0.
         -6    2    1    2    0  502  0.12033073484E+03 -0.38941597232E+02  0.35546706431E+03  0.41485019628E+03  0.17247584702E+03 0.  0.
        -24    2    5    5    0    0  0.57231357106E+02 -0.36060138417E+02  0.86942197524E+02  0.13895614350E+03  0.84700072541E+02 0.  0.
          5    1    3    3  501    0 -0.74815906015E+02  0.58988587729E+01 -0.59903955664E+02  0.96139431202E+02  0.47000000000E+01 0. -1.
        -13    1    4    4    0    0 -0.59357031973E+02  0.28605198182E+02  0.15757864984E+02  0.67748246594E+02  0.00000000000E+00 0.  1.
         14    1    4    4    0    0  0.13842203147E+02  0.44375402770E+01  0.47563370777E+02  0.49735023789E+02  0.00000000000E+00 0. -1.
         -5    1    5    5    0  502  0.63099377735E+02 -0.28814588148E+01  0.26852486679E+03  0.27589405278E+03  0.47000000000E+01 0.  1.
         11    1    6    6    0    0  0.13019160398E+02  0.24939847528E+02  0.44040959300E+02  0.52259933298E+02  0.00000000000E+00 0. -1.
        -12    1    6    6    0    0  0.44212196708E+02 -0.60999985946E+02  0.42901238224E+02  0.86696210207E+02  0.00000000000E+00 0.  1.
</event>
<event>
12    1  0.1615162E-001  0.3113257E+03  0.7818608E-02  0.1079764E+00
         21   -1    0    0  501  502  0.00000000000E+00  0.00000000000E+00  0.43668626307E+03  0.43668626307E+03  0.00000000000E+00 0. -1.
         21   -1    0    0  502  503 -0.00000000000E+00 -0.00000000000E+00 -0.67652578795E+03  0.67652578795E+03  0.00000000000E+00 0.  1.
         -6    2    1    2    0  503  0.99996196710E+02  0.23921081400E+03 -0.57630325374E+03  0.65481098840E+03  0.17155447348E+03 0.  0.
        -24    2    3    3    0    0 -0.15384490806E+02  0.11277031501E+03 -0.28065632329E+03  0.31315458158E+03  0.79649191199E+02 0.  0.
          6    2    1    2  501    0 -0.99996196710E+02 -0.23921081400E+03  0.33646372885E+03  0.45840106261E+03  0.17234454003E+03 0.  0.
         24    2    5    5    0    0 -0.12351915778E+03 -0.15162981220E+03  0.28260824850E+03  0.35282519256E+03  0.79809849612E+02 0.  0.
          5    1    5    5  501    0  0.23522961073E+02 -0.87581001796E+02  0.53855480351E+02  0.10557587005E+03  0.47000000000E+01 0. -1.
        -11    1    6    6    0    0 -0.13111306304E+03 -0.12006695819E+03  0.22572085201E+03  0.28732666563E+03  0.00000000000E+00 0.  1.
         12    1    6    6    0    0  0.75939052579E+01 -0.31562854011E+02  0.56887396494E+02  0.65498526932E+02  0.00000000000E+00 0. -1.
         -5    1    3    3    0  503  0.11538068752E+03  0.12644049899E+03 -0.29564693045E+03  0.34165640682E+03  0.47000000000E+01 0.  1.
         11    1    4    4    0    0  0.12651741589E+01  0.10627988894E+01  0.53800236590E+01  0.56280424397E+01  0.00000000000E+00 0. -1.
        -12    1    4    4    0    0 -0.16649664965E+02  0.11170751612E+03 -0.28603634695E+03  0.30752653914E+03  0.00000000000E+00 0.  1.
</event>
<event>
12    1  0.1615162E-001  0.2701169E+03  0.7818608E-02  0.1101375E+00
         21   -1    0    0  501  502  0.00000000000E+00  0.00000000000E+00  0.79577020473E+03  0.79577020473E+03  0.00000000000E+00 0. -1.
         21   -1    0    0  502  503 -0.00000000000E+00 -0.00000000000E+00 -0.91434334251E+02  0.91434334251E+02  0.00000000000E+00 0. -1.
         -6    2    1    2    0  503 -0.14237239448E+02  0.20666105503E+03  0.33613636099E+03  0.43122010736E+03  0.17335408030E+03 0.  0.
        -24    2    3    3    0    0 -0.64884298400E+02  0.69950680656E+02  0.14885598995E+03  0.19383670773E+03  0.79444909318E+02 0.  0.
          6    2    1    2  501    0  0.14237239448E+02 -0.20666105503E+03  0.36819950949E+03  0.45598443162E+03  0.17157923080E+03 0.  0.
         24    2    5    5    0    0 -0.41455553142E+02 -0.17914176344E+03  0.32213805752E+03  0.37850704193E+03  0.75394418862E+02 0.  0.
          5    1    5    5  501    0  0.55692792590E+02 -0.27519291593E+02  0.46061451975E+02  0.77477389697E+02  0.47000000000E+01 0. -1.
        -13    1    6    6    0    0 -0.61935728957E+02 -0.15447594270E+03  0.26294740988E+03  0.31119156762E+03  0.00000000000E+00 0.  1.
         14    1    6    6    0    0  0.20480175815E+02 -0.24665820741E+02  0.59190647636E+02  0.67315474312E+02  0.00000000000E+00 0. -1.
         -5    1    3    3    0  503  0.50647058952E+02  0.13671037437E+03  0.18728037105E+03  0.23738339963E+03  0.47000000000E+01 0.  1.
         13    1    4    4    0    0 -0.12904780911E+02  0.58043539123E+01  0.93196591569E+02  0.94264672995E+02  0.00000000000E+00 0. -1.
        -14    1    4    4    0    0 -0.51979517489E+02  0.64146326744E+02  0.55659398379E+02  0.99572034734E+02  0.00000000000E+00 0.  1.
</event>
<event>
12    1  0.1615162E-001  0.2005189E+03  0.7818608E-02  0.1149327E+00
         21   -1    0    0  501  502  0.00000000000E+00  0.00000000000E+00  0.76562338944E+02  0.76562338944E+02  0.00000000000E+00 0.  1.
         21   -1    0    0  502  503 -0.00000000000E+00 -0.00000000000E+00 -0.96414844932E+03  0.96414844932E+03  0.00000000000E+00 0.  1.
         -6    2    1    2    0  503 -0.10122741646E+03 -0.18171325654E+02 -0.79496292940E+03  0.81983324242E+03  0.17199796319E+03 0.  0.
        -24    2    3    3    0    0 -0.11587409040E+03  0.30651068971E+01 -0.77254827718E+03  0.78533660840E+03  0.80539109760E+02 0.  0.
          6    2    1    2  501    0  0.10122741646E+03  0.18171325654E+02 -0.92623180982E+02  0.22087754585E+03  0.17213555614E+03 0.  0.
         24    2    5    5    0    0 -0.35122457780E+01 -0.14433974424E+02 -0.75317727407E+02  0.10972417810E+03  0.78396171526E+02 0.  0.
          5    1    5    5  501    0  0.10473966224E+03  0.32605300079E+02 -0.17305453575E+02  0.11115336775E+03  0.47000000000E+01 0. -1.
        -11    1    6    6    0    0  0.21559863798E+02 -0.77509171535E+01  0.65615372626E+01  0.23831873929E+02  0.00000000000E+00 0.  1.
         12    1    6    6    0    0 -0.25072109576E+02 -0.66830572707E+01 -0.81879264670E+02  0.85892304172E+02  0.00000000000E+00 0. -1.
         -5    1    3    3    0  503  0.14646673942E+02 -0.21236432551E+02 -0.22414652213E+02  0.34496634023E+02  0.47000000000E+01 0.  1.
         11    1    4    4    0    0 -0.84267662743E+01 -0.27834866926E+02 -0.14089651682E+03  0.14386666972E+03  0.00000000000E+00 0. -1.
        -12    1    4    4    0    0 -0.10744732412E+03  0.30899973823E+02 -0.63165176037E+03  0.64146993867E+03  0.00000000000E+00 0.  1.
</event>
<event>
12    1  0.1615162E-001  0.1844909E+03  0.7818608E-02  0.1163690E+00
         21   -1    0    0  503  502  0.00000000000E+00  0.00000000000E+00  0.52256315986E+02  0.52256315986E+02  0.00000000000E+00 0. -1.
         21   -1    0    0  501  503 -0.00000000000E+00 -0.00000000000E+00 -0.65494443422E+03  0.65494443422E+03  0.00000000000E+00 0. -1.
          6    2    1    2  501    0  0.30239290217E+02  0.59712161188E+02 -0.33479982774E+03  0.38193005892E+03  0.17117151744E+03 0.  0.
         24    2    3    3    0    0  0.36694425202E+02 -0.22896011508E+02 -0.23665459933E+03  0.25339852651E+03  0.79590864223E+02 0.  0.
         -6    2    1    2    0  502 -0.30239290217E+02 -0.59712161188E+02 -0.26788829049E+03  0.32527069129E+03  0.17192128885E+03 0.  0.
        -24    2    5    5    0    0  0.25758568607E+02 -0.80677129120E+02 -0.12673626712E+03  0.17190422241E+03  0.79477526760E+02 0.  0.
          5    1    3    3  501    0 -0.64551349850E+01  0.82608172697E+02 -0.98145228407E+02  0.12853153241E+03  0.47000000000E+01 0. -1.
        -11    1    4    4    0    0 -0.16771597916E+02 -0.29734837089E+02 -0.64141383529E+02  0.72660609097E+02  0.00000000000E+00 0.  1.
         12    1    4    4    0    0  0.53466023118E+02  0.68388255811E+01 -0.17251321581E+03  0.18073791741E+03  0.00000000000E+00 0. -1.
         -5    1    5    5    0  502 -0.55997858824E+02  0.20964967932E+02 -0.14115202337E+03  0.15336646888E+03  0.47000000000E+01 0.  1.
         11    1    6    6    0    0 -0.29039432571E+01 -0.53736333775E+02 -0.12063964121E+03  0.13209825693E+03  0.00000000000E+00 0. -1.
        -12    1    6    6    0    0  0.28662511864E+02 -0.26940795345E+02 -0.60966259114E+01  0.39805965478E+02  0.00000000000E+00 0.  1.
</event>
<event>
12    1  0.1615162E-001  0.2208996E+03  0.7818608E-02  0.1133519E+00
         21   -1    0    0  503  502  0.00000000000E+00  0.00000000000E+00  0.11275010601E+04  0.11275010601E+04  0.00000000000E+00 0. -1.
         21   -1    0    0  501  503 -0.00000000000E+00 -0.00000000000E+00 -0.43600025155E+02  0.43600025155E+02  0.00000000000E+00 0.  1.
          6    2    1    2  501    0 -0.83753442809E+02  0.10830027803E+03  0.47291448976E+03  0.52196241854E+03  0.17335819088E+03 0.  0.
         24    2    3    3    0    0 -0.83580635792E+02  0.14065794681E+03  0.33567484051E+03  0.38088137830E+03  0.74984299023E+02 0.  0.
         -6    2    1    2    0  502  0.83753442809E+02 -0.10830027803E+03  0.61098654514E+03  0.64913866667E+03  0.17126838825E+03 0.  0.
        -24    2    5    5    0    0  0.90603476931E+02 -0.24132533628E+02  0.45899592721E+03  0.47520083265E+03  0.79669322453E+02 0.  0.
          5    1    3    3  501    0 -0.17280701648E+00 -0.32357668787E+02  0.13723964925E+03  0.14108104025E+03  0.47000000000E+01 0. -1.
        -13    1    4    4    0    0 -0.40093296429E+02  0.45877903494E+02  0.57394784101E+02  0.83704334951E+02  0.00000000000E+00 0.  1.
         14    1    4    4    0    0 -0.43487339363E+02  0.94780043321E+02  0.27828005641E+03  0.29717704335E+03  0.00000000000E+00 0. -1.
         -5    1    5    5    0  502 -0.68500341225E+01 -0.84167744399E+02  0.15199061793E+03  0.17393783402E+03  0.47000000000E+01 0.  1.
         11    1    6    6    0    0  0.14534837743E+02  0.24865713903E+02  0.16834765083E+03  0.17079372581E+03  0.00000000000E+00 0. -1.
        -12    1    6    6    0    0  0.76068639188E+02 -0.48998247531E+02  0.29064827638E+03  0.30440710683E+03  0.00000000000E+00 0.  1.
</event>
<event>
12    1  0.1615162E-001  0.2155347E+03  0.7818608E-02  0.1138012E+00
         21   -1    0    0  503  502  0.00000000000E+00  0.00000000000E+00  0.39416244436E+02  0.39416244436E+02  0.00000000000E+00 0.  1.
         21   -1    0    0  501  503 -0.00000000000E+00 -0.00000000000E+00 -0.13433968345E+04  0.13433968345E+04  0.00000000000E+00 0.  1.
          6    2    1    2  501    0  0.51793032253E+02  0.11180952630E+03 -0.91445741528E+03  0.93951452983E+03  0.17683692778E+03 0.  0.
         24    2    3    3    0    0  0.41766337289E+02  0.14052826206E+03 -0.57235335497E+03  0.59602860802E+03  0.78543741081E+02 0.  0.
         -6    2    1    2    0  502 -0.51793032253E+02 -0.11180952630E+03 -0.38952317475E+03  0.44329854908E+03  0.17205060763E+03 0.  0.
        -24    2    5    5    0    0 -0.20256806781E+02  0.10289531397E+02 -0.13342723371E+03  0.15779910175E+03  0.81126550159E+02 0.  0.
          5    1    3    3  501    0  0.10026694964E+02 -0.28718735766E+02 -0.34210406031E+03  0.34348592180E+03  0.47000000000E+01 0. -1.
        -13    1    4    4    0    0 -0.21334494948E+02  0.24471292226E+02 -0.82009374643E+02  0.88201713970E+02  0.00000000000E+00 0.  1.
         14    1    4    4    0    0  0.63100832237E+02  0.11605696984E+03 -0.49034398033E+03  0.50782689405E+03  0.00000000000E+00 0. -1.
         -5    1    5    5    0  502 -0.31536225472E+02 -0.12209905770E+03 -0.25609594104E+03  0.28549944733E+03  0.47000000000E+01 0.  1.
         11    1    6    6    0    0 -0.27785618990E+02  0.16334305288E+02 -0.96485004017E+01  0.33644371177E+02  0.00000000000E+00 0. -1.
        -12    1    6    6    0    0  0.75288122084E+01 -0.60447738912E+01 -0.12377873331E+03  0.12415473057E+03  0.00000000000E+00 0.  1.
</event>
<event>
12    1  0.1615162E-001  0.1975913E+03  0.7818608E-02  0.1152166E+00
         21   -1    0    0  501  502  0.00000000000E+00  0.00000000000E+00  0.65741413548E+02  0.65741413548E+02  0.00000000000E+00 0.  1.
         21   -1    0    0  502  503 -0.00000000000E+00 -0.00000000000E+00 -0.81513029259E+03  0.81513029259E+03  0.00000000000E+00 0.  1.
         -6    2    1    2    0  503  0.46627706719E+02  0.83100301728E+02 -0.60808613614E+03  0.63938335610E+03  0.17309686280E+03 0.  0.
        -24    2    3    3    0    0 -0.30648246755E+02  0.69371315941E+02 -0.44570569093E+03  0.45896839823E+03  0.79036277382E+02 0.  0.
          6    2    1    2  501    0 -0.46627706719E+02 -0.83100301728E+02 -0.14130274291E+03  0.24148835004E+03  0.17108581143E+03 0.  0.
         24    2    5    5    0    0 -0.37264298670E+02  0.26127910930E+02 -0.89958699670E+02  0.12034060295E+03  0.65711470737E+02 0.  0.
          5    1    5    5  501    0 -0.93634080489E+01 -0.10922821266E+03 -0.51344043238E+02  0.12114774710E+03  0.47000000000E+01 0. -1.
        -11    1    6    6    0    0 -0.80378581803E+00 -0.19554370706E+02 -0.35060830619E+02  0.40153223146E+02  0.00000000000E+00 0.  1.
         12    1    6    6    0    0 -0.36460512852E+02  0.45682281636E+02 -0.54897869052E+02  0.80187379801E+02  0.00000000000E+00 0. -1.
         -5    1    3    3    0  503  0.77275953475E+02  0.13728985787E+02 -0.16238044521E+03  0.18041495786E+03  0.47000000000E+01 0.  1.
         13    1    4    4    0    0 -0.37179134170E+02  0.17411478511E+02 -0.84047968599E+02  0.93538808134E+02  0.00000000000E+00 0. -1.
        -14    1    4    4    0    0  0.65308874151E+01  0.51959837431E+02 -0.36165772233E+03  0.36542959010E+03  0.00000000000E+00 0.  1.
</event>
<event>
12    1  0.1615162E-001  0.1979573E+03  0.7818608E-02  0.1153940E+00
         21   -1    0    0  501  502  0.00000000000E+00  0.00000000000E+00  0.81237914385E+03  0.81237914385E+03  0.00000000000E+00 0.  1.
         21   -1    0    0  502  503 -0.00000000000E+00 -0.00000000000E+00 -0.70873708623E+02  0.70873708623E+02  0.00000000000E+00 0.  1.
         -6    2    1    2    0  503 -0.72202121533E+02 -0.14021612042E+02  0.99921188032E+02  0.21182345166E+03  0.17168336815E+03 0.  0.
        -24    2    3    3    0    0 -0.10011787971E+03  0.31209818298E+02  0.78922173649E+02  0.15448044468E+03  0.81473036633E+02 0.  0.
          6    2    1    2  501    0  0.72202121533E+02  0.14021612042E+02  0.64158424719E+03  0.67142940081E+03  0.18378613131E+03 0.  0.
         24    2    5    5    0    0  0.99555559946E+02  0.10066550006E+02  0.26989327732E+03  0.29868267689E+03  0.79726503647E+02 0.  0.
          5    1    5    5  501    0 -0.27353438412E+02  0.39550620361E+01  0.37169096987E+03  0.37274672392E+03  0.47000000000E+01 0. -1.
        -13    1    6    6    0    0  0.20076472199E+02 -0.30002103585E+02  0.10883558444E+03  0.11466636558E+03  0.00000000000E+00 0.  1.
         14    1    6    6    0    0  0.79479087746E+02  0.40068653591E+02  0.16105769288E+03  0.18401631130E+03  0.00000000000E+00 0. -1.
         -5    1    3    3    0  503  0.27915758178E+02 -0.45231430340E+02  0.20999014383E+02  0.57343006987E+02  0.47000000000E+01 0.  1.
         11    1    4    4    0    0 -0.35113498265E+02 -0.21998557501E+02  0.51530329014E+02  0.66123135897E+02  0.00000000000E+00 0. -1.
        -12    1    4    4    0    0 -0.65004381446E+02  0.53208375799E+02  0.27391844635E+02  0.88357308780E+02  0.00000000000E+00 0.  1.
</event>
<event>
12    1  0.1615162E-001  0.1924730E+03  0.7818608E-02  0.1156375E+00
         21   -1    0    0  503  502  0.00000000000E+00  0.00000000000E+00  0.12729115851E+04  0.12729115851E+04  0.00000000000E+00 0.  1.
         21   -1    0    0  501  503 -0.00000000000E+00 -0.00000000000E+00 -0.50317078056E+02  0.50317078056E+02  0.00000000000E+00 0.  1.
          6    2    1    2  501    0 -0.79754466455E+02 -0.28650337096E+02  0.18032057127E+03  0.26333205923E+03  0.17218202072E+03 0.  0.
         24    2    3    3    0    0 -0.11151728672E+03  0.15776192062E+02  0.13032338250E+03  0.18914040115E+03  0.78133948089E+02 0.  0.
         -6    2    1    2    0  502  0.79754466455E+02  0.28650337096E+02  0.10422739358E+04  0.10598966040E+04  0.17281272259E+03 0.  0.
        -24    2    5    5    0    0  0.11328498230E+03  0.37146414105E+02  0.95797395859E+03  0.96865486474E+03  0.79779686315E+02 0.  0.
          5    1    3    3  501    0  0.31762820268E+02 -0.44426529158E+02  0.49997188763E+02  0.74191658080E+02  0.47000000000E+01 0. -1.
        -13    1    4    4    0    0 -0.12024507938E+03  0.96644551670E+01  0.99003057383E+02  0.15605731697E+03  0.00000000000E+00 0.  1.
         14    1    4    4    0    0  0.87277926611E+01  0.61117368952E+01  0.31320325122E+02  0.33083084172E+02  0.00000000000E+00 0. -1.
         -5    1    5    5    0  502 -0.33530515846E+02 -0.84960770085E+01  0.84299977210E+02  0.91241739216E+02  0.47000000000E+01 0.  1.
         11    1    6    6    0    0  0.21955632118E+01  0.21769940124E+02  0.33154371855E+03  0.33226493661E+03  0.00000000000E+00 0. -1.
        -12    1    6    6    0    0  0.11108941909E+03  0.15376473981E+02  0.62643024004E+03  0.63638992813E+03  0.00000000000E+00 0.  1.
</event>
<event>
12    1  0.1615162E-001  0.2174014E+03  0.7818608E-02  0.1136254E+00
         21   -1    0    0  503  502  0.00000000000E+00  0.00000000000E+00  0.20245656712E+03  0.20245656712E+03  0.00000000000E+00 0. -1.
         21   -1    0    0  501  503 -0.00000000000E+00 -0.00000000000E+00 -0.23673796260E+03  0.23673796260E+03  0.00000000000E+00 0. -1.
          6    2    1    2  501    0  0.11488338678E+03  0.63499037445E+02 -0.51133726121E+02  0.22333391100E+03  0.17330048338E+03 0.  0.
         24    2    3    3    0    0  0.92028286654E+02  0.93766674661E+02  0.80735360907E+01  0.15286352457E+03  0.77721813787E+02 0.  0.
         -6    2    1    2    0  502 -0.11488338678E+03 -0.63499037445E+02  0.16852330642E+02  0.21586061873E+03  0.17053294507E+03 0.  0.
        -24    2    5    5    0    0  0.31007024330E+01 -0.11164169803E+02  0.29043372168E+02  0.86130532888E+02  0.80253960560E+02 0.  0.
          5    1    3    3  501    0  0.22855100124E+02 -0.30267637215E+02 -0.59207262212E+02  0.70470386425E+02  0.47000000000E+01 0. -1.
        -13    1    4    4    0    0  0.12813037924E+02  0.37895883848E+02 -0.28649741796E+02  0.49204467871E+02  0.00000000000E+00 0.  1.
         14    1    4    4    0    0  0.79215248730E+02  0.55870790812E+02  0.36723277887E+02  0.10365905670E+03  0.00000000000E+00 0. -1.
         -5    1    5    5    0  502 -0.11798408921E+03 -0.52334867642E+02 -0.12191041527E+02  0.12973008584E+03  0.47000000000E+01 0.  1.
         11    1    6    6    0    0 -0.31590029247E+02 -0.28779005845E+01  0.37858123687E+02  0.49390786476E+02  0.00000000000E+00 0. -1.
        -12    1    6    6    0    0  0.34690731680E+02 -0.82862692189E+01 -0.88147515183E+01  0.36739746412E+02  0.00000000000E+00 0.  1.
</event>
<event>
12    1  0.1615162E-001  0.2417749E+03  0.7818608E-02  0.1119224E+00
         21   -1    0    0  503  502  0.00000000000E+00  0.00000000000E+00  0.52859821009E+03  0.52859821009E+03  0.00000000000E+00 0. -1.
         21   -1    0    0  501  503 -0.00000000000E+00 -0.00000000000E+00 -0.19518658649E+03  0.19518658649E+03  0.00000000000E+00 0. -1.
          6    2    1    2  501    0  0.12374655383E+03 -0.11003905994E+03 -0.74590042406E+02  0.24952698147E+03  0.17110884185E+03 0.  0.
         24    2    3    3    0    0  0.93563929770E+01 -0.81343501729E+01 -0.95643933236E+01  0.83033426607E+02  0.81543623737E+02 0.  0.
         -6    2    1    2    0  502 -0.12374655383E+03  0.11003905994E+03  0.40800166601E+03  0.47425781511E+03  0.17616274134E+03 0.  0.
        -24    2    5    5    0    0 -0.55335864746E+02  0.29924511039E+02  0.32446791269E+03  0.33972773941E+03  0.78600103503E+02 0.  0.
          5    1    3    3  501    0  0.11439016085E+03 -0.10190470976E+03 -0.65025649083E+02  0.16649355486E+03  0.47000000000E+01 0. -1.
        -13    1    4    4    0    0 -0.34690944959E+02 -0.10915640000E+02  0.46546843133E+01  0.36664409784E+02  0.00000000000E+00 0.  1.
         14    1    4    4    0    0  0.44047337936E+02  0.27812898269E+01 -0.14219077637E+02  0.46369016823E+02  0.00000000000E+00 0. -1.
         -5    1    5    5    0  502 -0.68410689082E+02  0.80114548898E+02  0.83533753321E+02  0.13453007571E+03  0.47000000000E+01 0.  1.
         13    1    6    6    0    0 -0.16446921088E+02  0.23910282783E+02  0.26903886815E+02  0.39572995361E+02  0.00000000000E+00 0. -1.
        -14    1    6    6    0    0 -0.38888943658E+02  0.60142282565E+01  0.29756402587E+03  0.30015474404E+03  0.00000000000E+00 0.  1.
</event>
<event>
12    1  0.1615162E-001  0.1869499E+03  0.7818608E-02  0.1163755E+00
         21   -1    0    0  501  502  0.00000000000E+00  0.00000000000E+00  0.64517602781E+03  0.64517602781E+03  0.00000000000E+00 0. -1.
         21   -1    0    0  502  503 -0.00000000000E+00 -0.00000000000E+00 -0.68355954890E+02  0.68355954890E+02  0.00000000000E+00 0. -1.
         -6    2    1    2    0  503 -0.55186227953E+02  0.45312719477E+02  0.10318746802E+03  0.20433839730E+03  0.16126923064E+03 0.  0.
        -24    2    3    3    0    0 -0.86422980916E+02  0.54953880888E+02  0.34676624165E+02  0.12828241493E+03  0.69029334784E+02 0.  0.
          6    2    1    2  501    0  0.55186227953E+02 -0.45312719477E+02  0.47363260490E+03  0.50919358540E+03  0.17277586836E+03 0.  0.
         24    2    5    5    0    0 -0.17956530289E+02 -0.16175328448E+02  0.36547030965E+03  0.37532789617E+03  0.81965872026E+02 0.  0.
          5    1    5    5  501    0  0.73142758243E+02 -0.29137391030E+02  0.10816229524E+03  0.13386568923E+03  0.47000000000E+01 0. -1.
        -13    1    6    6    0    0  0.22950680769E+02  0.11834019738E+02  0.22275191651E+03  0.22424360432E+03  0.00000000000E+00 0.  1.
         14    1    6    6    0    0 -0.40907211059E+02 -0.28009348186E+02  0.14271839315E+03  0.15108429186E+03  0.00000000000E+00 0. -1.
         -5    1    3    3    0  503  0.31236752962E+02 -0.96411614112E+01  0.68510843856E+02  0.76055982374E+02  0.47000000000E+01 0.  1.
         13    1    4    4    0    0 -0.17906074454E+02  0.51267545018E+01 -0.20095654686E+02  0.27399752761E+02  0.00000000000E+00 0. -1.
        -14    1    4    4    0    0 -0.68516906462E+02  0.49827126387E+02  0.54772278851E+02  0.10088266217E+03  0.00000000000E+00 0.  1.
</event>
<event>
12    1  0.1615162E-001  0.1968946E+03  0.7818608E-02  0.1152397E+00
         21   -1    0    0  503  502  0.00000000000E+00  0.00000000000E+00  0.65451550608E+03  0.65451550608E+03  0.00000000000E+00 0.  1.
         21   -1    0    0  501  503 -0.00000000000E+00 -0.00000000000E+00 -0.81502923064E+03  0.81502923064E+03  0.00000000000E+00 0.  1.
          6    2    1    2  501    0 -0.86915636061E+02 -0.39858446543E+02 -0.78783438936E+03  0.81206557234E+03  0.17211753301E+03 0.  0.
         24    2    3    3    0    0  0.63581424071E+01  0.25283816774E+02 -0.29927049073E+03  0.31040803451E+03  0.78170479719E+02 0.  0.
         -6    2    1    2    0  502  0.86915636061E+02  0.39858446543E+02  0.62732066480E+03  0.65747916438E+03  0.17205990688E+03 0.  0.
        -24    2    5    5    0    0 -0.22093087617E+02  0.11675880946E+02  0.32407718541E+03  0.33397359003E+03  0.76732691988E+02 0.  0.
          5    1    3    3  501    0 -0.93273778468E+02 -0.65142263317E+02 -0.48856389863E+03  0.50165753783E+03  0.47000000000E+01 0. -1.
        -11    1    4    4    0    0 -0.79879170709E+01  0.43247731986E+02 -0.93157947465E+02  0.10301735930E+03  0.00000000000E+00 0.  1.
         12    1    4    4    0    0  0.14346059478E+02 -0.17963915212E+02 -0.20611254326E+03  0.20739067521E+03  0.00000000000E+00 0. -1.
         -5    1    5    5    0  502  0.10900872368E+03  0.28182565597E+02  0.30324347939E+03  0.32350557435E+03  0.47000000000E+01 0.  1.
         13    1    6    6    0    0 -0.40453187303E+02  0.29975970817E+02  0.15640289728E+03  0.16430728976E+03  0.00000000000E+00 0. -1.
        -14    1    6    6    0    0  0.18360099686E+02 -0.18300089871E+02  0.16767428813E+03  0.16966630028E+03  0.00000000000E+00 0.  1.
</event>
<event>
12    1  0.1615162E-001  0.2553071E+03  0.7818608E-02  0.1110082E+00
         21   -1    0    0  503  502  0.00000000000E+00  0.00000000000E+00  0.59311104890E+03  0.59311104890E+03  0.00000000000E+00 0.  1.
         21   -1    0    0  501  503 -0.00000000000E+00 -0.00000000000E+00 -0.64955343534E+03  0.64955343534E+03  0.00000000000E+00 0.  1.
          6    2    1    2  501    0  0.15387849593E+03 -0.10943057006E+03 -0.59467911649E+03  0.64694599883E+03  0.17100360418E+03 0.  0.
         24    2    3    3    0    0  0.14373545203E+03 -0.43045903091E+02 -0.30155310399E+03  0.34618902958E+03  0.79998373311E+02 0.  0.
         -6    2    1    2    0  502 -0.15387849593E+03  0.10943057006E+03  0.53823673005E+03  0.59571848541E+03  0.17183740894E+03 0.  0.
        -24    2    5    5    0    0 -0.30496173046E+02  0.27232888711E+02  0.31520618655E+03  0.32786709050E+03  0.80437815725E+02 0.  0.
          5    1    3    3  501    0  0.10143043895E+02 -0.66384666971E+02 -0.29312601250E+03  0.30075696925E+03  0.47000000000E+01 0. -1.
        -13    1    4    4    0    0  0.70586158649E+02 -0.62029507748E+02 -0.18017613605E+03  0.20320803533E+03  0.00000000000E+00 0.  1.
         14    1    4    4    0    0  0.73149293385E+02  0.18983604657E+02 -0.12137696794E+03  0.14298099424E+03  0.00000000000E+00 0. -1.
         -5    1    5    5    0  502 -0.12338232288E+03  0.82197681351E+02  0.22303054351E+03  0.26785139491E+03  0.47000000000E+01 0.  1.
         13    1    6    6    0    0 -0.31190868523E+02  0.44106252214E+02  0.11617236425E+03  0.12811810949E+03  0.00000000000E+00 0. -1.
        -14    1    6    6    0    0  0.69469547625E+00 -0.16873363503E+02  0.19903382229E+03  0.19974898101E+03  0.00000000000E+00 0.  1.
</event>
<event>
12    1  0.1615162E-001  0.1766556E+03  0.7818608E-02  0.1171681E+00
         21   -1    0    0  501  502  0.00000000000E+00  0.00000000000E+00  0.50176484237E+03  0.50176484237E+03  0.00000000000E+00 0. -1.
         21   -1    0    0  502  503 -0.00000000000E+00 -0.00000000000E+00 -0.75538656348E+02  0.75538656348E+02  0.00000000000E+00 0. -1.
         -6    2    1    2    0  503 -0.39505377446E+02 -0.76277168466E+01  0.86823867353E+02  0.19467948854E+03  0.16953720066E+03 0.  0.
        -24    2    3    3    0    0 -0.51252510823E+02  0.39943100961E+02  0.10564452934E+02  0.10391294109E+03  0.80399132332E+02 0.  0.
          6    2    1    2  501    0  0.39505377446E+02  0.76277168466E+01  0.33940231867E+03  0.38262401017E+03  0.17201262260E+03 0.  0.
         24    2    5    5    0    0 -0.30429895455E+02  0.34676795226E+02  0.96851463344E+02  0.12870354535E+03  0.71105119151E+02 0.  0.
          5    1    5    5  501    0  0.69935272902E+02 -0.27049078379E+02  0.24255085532E+03  0.25392046482E+03  0.47000000000E+01 0. -1.
        -11    1    6    6    0    0 -0.40168885963E+01  0.15658430700E+02 -0.86229514250E+01  0.18321493860E+02  0.00000000000E+00 0.  1.
         12    1    6    6    0    0 -0.26413006859E+02  0.19018364526E+02  0.10547441477E+03  0.11038205149E+03  0.00000000000E+00 0. -1.
         -5    1    3    3    0  503  0.11747133377E+02 -0.47570817808E+02  0.76259414419E+02  0.90766547456E+02  0.47000000000E+01 0.  1.
         11    1    4    4    0    0 -0.71823070579E+02  0.41135505736E+02  0.85972416741E+01  0.83214156632E+02  0.00000000000E+00 0. -1.
        -12    1    4    4    0    0  0.20570559756E+02 -0.11924047748E+01  0.19672112599E+01  0.20698784456E+02  0.00000000000E+00 0.  1.
</event>
<event>
12    1  0.1615162E-001  0.2890173E+03  0.7818608E-02  0.1091311E+00
         21   -1    0    0  501  502  0.00000000000E+00  0.00000000000E+00  0.17053914525E+03  0.17053914525E+03  0.00000000000E+00 0. -1.
         21   -1    0    0  502  503 -0.00000000000E+00 -0.00000000000E+00 -0.49151849078E+03  0.49151849078E+03  0.00000000000E+00 0.  1.
         -6    2    1    2    0  503 -0.28324597136E+02 -0.22716626986E+03 -0.20218310258E+03  0.35271664246E+03  0.17642059386E+03 0.  0.
        -24    2    3    3    0    0 -0.25372486448E+02 -0.23163509140E+03 -0.12689757721E+03  0.27709465060E+03  0.79874098760E+02 0.  0.
          6    2    1    2  501    0  0.28324597136E+02  0.22716626986E+03 -0.11879624295E+03  0.30934099357E+03  0.17079960773E+03 0.  0.
         24    2    5    5    0    0  0.83530488080E+02  0.14042009874E+03 -0.88246356190E+02  0.20197258956E+03  0.79437780590E+02 0.  0.
          5    1    5    5  501    0 -0.55205890944E+02  0.86746171117E+02 -0.30549886763E+02  0.10736840401E+03  0.47000000000E+01 0. -1.
        -13    1    6    6    0    0  0.34431091889E+02  0.85178542623E+02 -0.89208036023E+02  0.12805841598E+03  0.00000000000E+00 0.  1.
         14    1    6    6    0    0  0.49099396191E+02  0.55241556115E+02  0.96167983298E+00  0.73914173583E+02  0.00000000000E+00 0. -1.
         -5    1    3    3    0  503 -0.29521106879E+01  0.44688215424E+01 -0.75285525368E+02  0.75621991864E+02  0.47000000000E+01 0.  1.
         13    1    4    4    0    0  0.12155446080E+02 -0.18932376625E+03 -0.95160413153E+02  0.21224219083E+03  0.00000000000E+00 0. -1.
        -14    1    4    4    0    0 -0.37527932528E+02 -0.42311325146E+02 -0.31737164058E+02  0.64852459767E+02  0.00000000000E+00 0.  1.
</event>
<event>
12    1  0.1615162E-001  0.1953669E+03  0.7818608E-02  0.1153848E+00
         21   -1    0    0  503  502  0.00000000000E+00  0.00000000000E+00  0.12886367083E+03  0.12886367083E+03  0.00000000000E+00 0. -1.
         21   -1    0    0  501  503 -0.00000000000E+00 -0.00000000000E+00 -0.31936432163E+03  0.31936432163E+03  0.00000000000E+00 0. -1.
          6    2    1    2  501    0  0.87695290599E+02  0.29507131139E+02 -0.33768519039E+02  0.19826377161E+03  0.17206706679E+03 0.  0.
         24    2    3    3    0    0  0.12008381152E+03 -0.43758309639E+01 -0.37798746801E+02  0.15098371086E+03  0.83235004654E+02 0.  0.
         -6    2    1    2    0  502 -0.87695290599E+02 -0.29507131139E+02 -0.15673213176E+03  0.24996422085E+03  0.17133597346E+03 0.  0.
        -24    2    5    5    0    0 -0.75798480231E+02  0.36649573648E+02 -0.56608844232E+02  0.12927865258E+03  0.80123703819E+02 0.  0.
          5    1    3    3  501    0 -0.32388520923E+02  0.33882962103E+02  0.40302277623E+01  0.47280060747E+02  0.47000000000E+01 0. -1.
        -13    1    4    4    0    0  0.90163666382E+02 -0.49357828442E+01 -0.64426881174E+02  0.11092642474E+03  0.00000000000E+00 0.  1.
         14    1    4    4    0    0  0.29920145140E+02  0.55995188033E+00  0.26628134373E+02  0.40057286122E+02  0.00000000000E+00 0. -1.
         -5    1    5    5    0  502 -0.11896810368E+02 -0.66156704787E+02 -0.10012328752E+03  0.12068556828E+03  0.47000000000E+01 0.  1.
         11    1    6    6    0    0 -0.53953954482E+02  0.27272443391E+02 -0.77043221972E+02  0.97930962543E+02  0.00000000000E+00 0. -1.
        -12    1    6    6    0    0 -0.21844525749E+02  0.93771302565E+01  0.20434377740E+02  0.31347690037E+02  0.00000000000E+00 0.  1.
</event>
<event>
12    1  0.1615162E-001  0.2268320E+03  0.7818608E-02  0.1128928E+00
         21   -1    0    0  503  502  0.00000000000E+00  0.00000000000E+00  0.59441667850E+02  0.59441667850E+02  0.00000000000E+00 0.  1.
         21   -1    0    0  501  503 -0.00000000000E+00 -0.00000000000E+00 -0.11614700519E+04  0.11614700519E+04  0.00000000000E+00 0. -1.
          6    2    1    2  501    0 -0.14064070006E+03  0.46419197943E+02 -0.85973288471E+03  0.88915318904E+03  0.17180864964E+03 0.  0.
         24    2    3    3    0    0 -0.11955062914E+03 -0.15456139308E+02 -0.38572743932E+03  0.41063819377E+03  0.72847948247E+02 0.  0.
         -6    2    1    2    0  502  0.14064070006E+03 -0.46419197943E+02 -0.24229549938E+03  0.33175853075E+03  0.17152861351E+03 0.  0.
        -24    2    5    5    0    0  0.14533060726E+03 -0.82604869976E+02 -0.22466219701E+03  0.29096120923E+03  0.78998560509E+02 0.  0.
          5    1    3    3  501    0 -0.21090070918E+02  0.61875337252E+02 -0.47400544538E+03  0.47851499527E+03  0.47000000000E+01 0. -1.
        -11    1    4    4    0    0 -0.80378227065E+02 -0.40814189588E+02 -0.20427762875E+03  0.22328413975E+03  0.00000000000E+00 0.  1.
         12    1    4    4    0    0 -0.39172402074E+02  0.25358050279E+02 -0.18144981058E+03  0.18735405402E+03  0.00000000000E+00 0. -1.
         -5    1    5    5    0  502 -0.46899072028E+01  0.36185672033E+02 -0.17633302371E+02  0.40797321511E+02  0.47000000000E+01 0.  1.
         11    1    6    6    0    0  0.55877161428E+02 -0.57052476111E+02 -0.53413484069E+02  0.96074150947E+02  0.00000000000E+00 0. -1.
        -12    1    6    6    0    0  0.89453445832E+02 -0.25552393865E+02 -0.17124871294E+03  0.19488705829E+03  0.00000000000E+00 0.  1.
</event>
<event>
12    1  0.1615162E-001  0.1836290E+03  0.7818608E-02  0.1164512E+00
         21   -1    0    0  503  502  0.00000000000E+00  0.00000000000E+00  0.55357838723E+03  0.55357838723E+03  0.00000000000E+00 0.  1.
         21   -1    0    0  501  503 -0.00000000000E+00 -0.00000000000E+00 -0.73039662120E+02  0.73039662120E+02  0.00000000000E+00 0.  1.
          6    2    1    2  501    0  0.62639985877E+02  0.29214674069E+02  0.11171913176E+03  0.21494365398E+03  0.17012449845E+03 0.  0.
         24    2    3    3    0    0  0.10893905946E+03  0.29667186970E+02  0.78149880502E+02  0.15756078535E+03  0.77266659028E+02 0.  0.
         -6    2    1    2    0  502 -0.62639985877E+02 -0.29214674069E+02  0.36881959335E+03  0.41167439537E+03  0.16932409856E+03 0.  0.
        -24    2    5    5    0    0 -0.10694023418E+03 -0.31914688890E+02  0.27839562270E+03  0.31083597735E+03  0.81609564556E+02 0.  0.
          5    1    3    3  501    0 -0.46299073584E+02 -0.45251290057E+00  0.33569251258E+02  0.57382868634E+02  0.47000000000E+01 0. -1.
        -13    1    4    4    0    0  0.16824245136E+02  0.11819256487E+02 -0.14919299364E+02  0.25403455313E+02  0.00000000000E+00 0.  1.
         14    1    4    4    0    0  0.92114814325E+02  0.17847930483E+02  0.93069179866E+02  0.13215733003E+03  0.00000000000E+00 0. -1.
         -5    1    5    5    0  502  0.44300248300E+02  0.27000148208E+01  0.90423970655E+02  0.10083841802E+03  0.47000000000E+01 0.  1.
         11    1    6    6    0    0 -0.78625376148E+02 -0.58265719856E+02  0.17598397304E+03  0.20136335975E+03  0.00000000000E+00 0. -1.
        -12    1    6    6    0    0 -0.28314858030E+02  0.26351030966E+02  0.10241164966E+03  0.10947261760E+03  0.00000000000E+00 0.  1.
</event>
<event>
12    1  0.1615162E-001  0.2374103E+03  0.7818608E-02  0.1121648E+00
         21   -1    0    0  501  502  0.00000000000E+00  0.00000000000E+00  0.14143254017E+03  0.14143254017E+03  0.00000000000E+00 0.  1.
         21   -1    0    0  502  503 -0.00000000000E+00 -0.00000000000E+00 -0.41047844807E+03  0.41047844807E+03  0.00000000000E+00 0. -1.
         -6    2    1    2    0  503  0.39646078025E+02 -0.15786072880E+03 -0.18368074171E+03  0.29961979381E+03  0.17187665569E+03 0.  0.
        -24    2    3    3    0    0 -0.29920158195E+02 -0.81054193004E+02 -0.15695189140E+03  0.19249730971E+03  0.70401136066E+02 0.  0.
          6    2    1    2  501    0 -0.39646078025E+02  0.15786072880E+03 -0.85365166189E+02  0.25229119443E+03  0.17283464348E+03 0.  0.
         24    2    5    5    0    0  0.12634283230E+02  0.15174356664E+03 -0.25382069900E+02  0.17234922994E+03  0.76643802475E+02 0.  0.
          5    1    5    5  501    0 -0.52280361255E+02  0.61171621560E+01 -0.59983096289E+02  0.79941964488E+02  0.47000000000E+01 0. -1.
        -13    1    6    6    0    0  0.23917321525E+02  0.12628463236E+03 -0.47252682083E+02  0.13694036148E+03  0.00000000000E+00 0.  1.
         14    1    6    6    0    0 -0.11283038296E+02  0.25458934281E+02  0.21870612183E+02  0.35408868453E+02  0.00000000000E+00 0. -1.
         -5    1    3    3    0  503  0.69566236220E+02 -0.76806535793E+02 -0.26728850301E+02  0.10712248411E+03  0.47000000000E+01 0.  1.
         11    1    4    4    0    0 -0.53617728029E+01 -0.42320163326E+02 -0.13513721452E+03  0.14171030866E+03  0.00000000000E+00 0. -1.
        -12    1    4    4    0    0 -0.24558385392E+02 -0.38734029678E+02 -0.21814676885E+02  0.50787001051E+02  0.00000000000E+00 0.  1.
</event>
<event>
12    1  0.1615162E-001  0.1949102E+03  0.7818608E-02  0.1154368E+00
         21   -1    0    0  501  502  0.00000000000E+00  0.00000000000E+00  0.72502464399E+03  0.72502464399E+03  0.00000000000E+00 0.  1.
         21   -1    0    0  502  503 -0.00000000000E+00 -0.00000000000E+00 -0.14639693448E+03  0.14639693448E+03  0.00000000000E+00 0.  1.
         -6    2    1    2    0  503  0.64843120500E+02  0.63521499469E+02 -0.60732995201E+02  0.20301146168E+03  0.17113020100E+03 0.  0.
        -24    2    3    3    0    0  0.81050597328E+01  0.97602586802E+02 -0.38044933904E+02  0.13288610122E+03  0.81359338485E+02 0.  0.
          6    2    1    2  501    0 -0.64843120500E+02 -0.63521499469E+02  0.63936070471E+03  0.66841011679E+03  0.17248293347E+03 0.  0.
         24    2    5    5    0    0 -0.87533884041E+01 -0.17311342103E+02  0.14030341719E+03  0.16406727416E+03  0.82805296941E+02 0.  0.
          5    1    5    5  501    0 -0.56089732096E+02 -0.46210157366E+02  0.49905728752E+03  0.50434284263E+03  0.47000000000E+01 0. -1.
        -11    1    6    6    0    0 -0.32821391733E+02  0.42036344179E-01  0.12766425635E+03  0.13181581041E+03  0.00000000000E+00 0.  1.
         12    1    6    6    0    0  0.24068003329E+02 -0.17353378447E+02  0.12639160836E+02  0.32251463756E+02  0.00000000000E+00 0. -1.
         -5    1    3    3    0  503  0.56738060768E+02 -0.34081087333E+02 -0.22688061296E+02  0.70125360455E+02  0.47000000000E+01 0.  1.
         11    1    4    4    0    0 -0.22875871467E+02  0.92913868556E+02 -0.24672310834E+02  0.98818092409E+02  0.00000000000E+00 0. -1.
        -12    1    4    4    0    0  0.30980931200E+02  0.46887182467E+01 -0.13372623070E+02  0.34068008815E+02  0.00000000000E+00 0.  1.
</event>
<event>
12    1  0.1615162E-001  0.1910563E+03  0.7818608E-02  0.1157775E+00
         21   -1    0    0  501  502  0.00000000000E+00  0.00000000000E+00  0.51509183640E+03  0.51509183640E+03  0.00000000000E+00 0. -1.
         21   -1    0    0  502  503 -0.00000000000E+00 -0.00000000000E+00 -0.72128351896E+02  0.72128351896E+02  0.00000000000E+00 0. -1.
         -6    2    1    2    0  503 -0.82317780023E+02 -0.13911154579E+02  0.17580295419E+03  0.25877345895E+03  0.17054995522E+03 0.  0.
        -24    2    3    3    0    0 -0.11060289618E+03 -0.96307905925E+01  0.18290984174E+03  0.22892438589E+03  0.81391716295E+02 0.  0.
          6    2    1    2  501    0  0.82317780023E+02  0.13911154579E+02  0.26716053030E+03  0.32844672934E+03  0.17185100504E+03 0.  0.
         24    2    5    5    0    0  0.11162705070E+03  0.66686405869E+01  0.26399669465E+03  0.29772886462E+03  0.80269252069E+02 0.  0.
          5    1    5    5  501    0 -0.29309270681E+02  0.72425139924E+01  0.31638356548E+01  0.30717864718E+02  0.47000000000E+01 0. -1.
        -13    1    6    6    0    0 -0.83757224393E+01  0.64718061976E+01  0.38946043795E+01  0.11278516973E+02  0.00000000000E+00 0.  1.
         14    1    6    6    0    0  0.12000277314E+03  0.19683438928E+00  0.26010209027E+03  0.28645034765E+03  0.00000000000E+00 0. -1.
         -5    1    3    3    0  503  0.28285116157E+02 -0.42803639869E+01 -0.71068875422E+01  0.29849073058E+02  0.47000000000E+01 0.  1.
         11    1    4    4    0    0 -0.42654488150E+01  0.25296336351E+02  0.37219084275E+02  0.45203527745E+02  0.00000000000E+00 0. -1.
        -12    1    4    4    0    0 -0.10633744736E+03 -0.34927126943E+02  0.14569075746E+03  0.18372085815E+03  0.00000000000E+00 0.  1.
</event>
<event>
12    1  0.1615162E-001  0.2031529E+03  0.7818608E-02  0.1147669E+00
         21   -1    0    0  503  502  0.00000000000E+00  0.00000000000E+00  0.39035247647E+03  0.39035247647E+03  0.00000000000E+00 0.  1.
         21   -1    0    0  501  503 -0.00000000000E+00 -0.00000000000E+00 -0.12567926082E+03  0.12567926082E+03  0.00000000000E+00 0.  1.
          6    2    1    2  501    0  0.11226518594E+03  0.20205321081E+02  0.25245226963E+02  0.20203039219E+03  0.16482484919E+03 0.  0.
         24    2    3    3    0    0 -0.37830321454E+01  0.43218100105E+01  0.29045510754E+02  0.84744387054E+02  0.79403904616E+02 0.  0.
         -6    2    1    2    0  502 -0.11226518594E+03 -0.20205321081E+02  0.23942798869E+03  0.31400134509E+03  0.16810519320E+03 0.  0.
        -24    2    5    5    0    0 -0.12306337038E+03 -0.87007124187E+01  0.11171659373E+03  0.18523315333E+03  0.81304540174E+02 0.  0.
          5    1    3    3  501    0  0.11604821809E+03  0.15883511071E+02 -0.38002837912E+01  0.11728600514E+03  0.47000000000E+01 0. -1.
        -11    1    4    4    0    0  0.16270262421E+02 -0.74607952655E+01 -0.22170743216E+02  0.28494328558E+02  0.00000000000E+00 0.  1.
         12    1    4    4    0    0 -0.20053294566E+02  0.11782605276E+02  0.51216253970E+02  0.56250058496E+02  0.00000000000E+00 0. -1.
         -5    1    5    5    0  502  0.10798184437E+02 -0.11504608663E+02  0.12771139496E+03  0.12876819177E+03  0.47000000000E+01 0.  1.
         11    1    6    6    0    0  0.32152188254E+01  0.97597201887E+01 -0.57555301308E+01  0.11777771323E+02  0.00000000000E+00 0. -1.
        -12    1    6    6    0    0 -0.12627858920E+03 -0.18460432607E+02  0.11747212386E+03  0.17345538201E+03  0.00000000000E+00 0.  1.
</event>
<event>
12    1  0.1615162E-001  0.2139961E+03  0.7818608E-02  0.1138864E+00
         21   -1    0    0  501  502  0.00000000000E+00  0.00000000000E+00  0.37579696331E+03  0.37579696331E+03  0.00000000000E+00 0. -1.
         21   -1    0    0  502  503 -0.00000000000E+00 -0.00000000000E+00 -0.12386499151E+03  0.12386499151E+03  0.00000000000E+00 0.  1.
         -6    2    1    2    0  503 -0.66022984813E+01 -0.12488652942E+03  0.86160924201E+02  0.23069036341E+03  0.17364936895E+03 0.  0.
        -24    2    3    3    0    0 -0.50185673134E+02 -0.15209130685E+02  0.40677223109E+02  0.10412220231E+03  0.80230150755E+02 0.  0.
          6    2    1    2  501    0  0.66022984813E+01  0.12488652942E+03  0.16577104761E+03  0.26897159141E+03  0.17095450034E+03 0.  0.
         24    2    5    5    0    0 -0.38401928492E+02  0.10943094687E+03  0.53992336904E+02  0.14739517247E+03  0.73214234807E+02 0.  0.
          5    1    5    5  501    0  0.45004226973E+02  0.15455582553E+02  0.11177871070E+03  0.12157641895E+03  0.47000000000E+01 0. -1.
        -13    1    6    6    0    0 -0.37327469164E+02  0.12025863976E+03  0.52449793541E+02  0.13640550294E+03  0.00000000000E+00 0.  1.
         14    1    6    6    0    0 -0.10744593282E+01 -0.10827692892E+02  0.15425433627E+01  0.10989669524E+02  0.00000000000E+00 0. -1.
         -5    1    3    3    0  503  0.43583374653E+02 -0.10967739873E+03  0.45483701092E+02  0.12656816110E+03  0.47000000000E+01 0.  1.
         11    1    4    4    0    0  0.13613753530E+02  0.16926835750E+02  0.20556220056E+02  0.29906692172E+02  0.00000000000E+00 0. -1.
        -12    1    4    4    0    0 -0.63799426664E+02 -0.32135966435E+02  0.20121003053E+02  0.74215510139E+02  0.00000000000E+00 0.  1.
</event>
<event>
12    1  0.1615162E-001  0.1905634E+03  0.7818608E-02  0.1158660E+00
         21   -1    0    0  501  502  0.00000000000E+00  0.00000000000E+00  0.81052552168E+02  0.81052552168E+02  0.00000000000E+00 0. -1.
         21   -1    0    0  502  503 -0.00000000000E+00 -0.00000000000E+00 -0.94777179297E+03  0.94777179297E+03  0.00000000000E+00 0.  1.
         -6    2    1    2    0  503 -0.75190634619E+02  0.27235706897E+01 -0.81126517042E+03  0.83334601966E+03  0.17508101662E+03 0.  0.
        -24    2    3    3    0    0 -0.10776502386E+03  0.41241792619E+02 -0.58584079544E+03  0.60229844212E+03  0.78992341089E+02 0.  0.
          6    2    1    2  501    0  0.75190634619E+02 -0.27235706897E+01 -0.55454070378E+02  0.19547832547E+03  0.17168451426E+03 0.  0.
         24    2    5    5    0    0  0.12767378258E+02 -0.53632676370E+02 -0.60494067024E+02  0.11463346452E+03  0.80261006228E+02 0.  0.
          5    1    5    5  501    0  0.62423256361E+02  0.50909105680E+02  0.50399966458E+01  0.80844860950E+02  0.47000000000E+01 0. -1.
        -13    1    6    6    0    0 -0.99323635292E+01  0.64885119300E+01 -0.47642201831E+02  0.49097169243E+02  0.00000000000E+00 0.  1.
         14    1    6    6    0    0  0.22699741787E+02 -0.60121188300E+02 -0.12851865193E+02  0.65536295278E+02  0.00000000000E+00 0. -1.
         -5    1    3    3    0  503  0.32574389238E+02 -0.38518221929E+02 -0.22542437498E+03  0.23104757754E+03  0.47000000000E+01 0.  1.
         11    1    4    4    0    0 -0.36140601600E+02 -0.71771485615E+01 -0.68477828659E+02  0.77761607258E+02  0.00000000000E+00 0. -1.
        -12    1    4    4    0    0 -0.71624422257E+02  0.48418941180E+02 -0.51736296678E+03  0.52453683486E+03  0.00000000000E+00 0.  1.
</event>
<event>
12    1  0.1615162E-001  0.2098081E+03  0.7818608E-02  0.1141821E+00
         21   -1    0    0  501  502  0.00000000000E+00  0.00000000000E+00  0.76104305096E+03  0.76104305096E+03  0.00000000000E+00 0.  1.
         21   -1    0    0  502  503 -0.00000000000E+00 -0.00000000000E+00 -0.82607722206E+02  0.82607722206E+02  0.00000000000E+00 0.  1.
         -6    2    1    2    0  503 -0.36450493984E+02 -0.11364376661E+03  0.57056235536E+03  0.60773552276E+03  0.17192300625E+03 0.  0.
        -24    2    3    3    0    0 -0.44920484663E+02 -0.33582169320E+01  0.17836708371E+03  0.20021391068E+03  0.79004214556E+02 0.  0.
          6    2    1    2  501    0  0.36450493984E+02  0.11364376661E+03  0.10787297340E+03  0.23591525040E+03  0.17255689723E+03 0.  0.
         24    2    5    5    0    0  0.97942814850E+01  0.33248051772E+02  0.11963980201E+03  0.15027312943E+03  0.84065274087E+02 0.  0.
          5    1    5    5  501    0  0.26656212499E+02  0.80395714835E+02 -0.11766828613E+02  0.85642120970E+02  0.47000000000E+01 0. -1.
        -13    1    6    6    0    0  0.33690260072E+02  0.45310162313E+02  0.10630127298E+03  0.12036612925E+03  0.00000000000E+00 0.  1.
         14    1    6    6    0    0 -0.23895978587E+02 -0.12062110541E+02  0.13338529030E+02  0.29907000184E+02  0.00000000000E+00 0. -1.
         -5    1    3    3    0  503  0.84699906790E+01 -0.11028554967E+03  0.39219527165E+03  0.40752161208E+03  0.47000000000E+01 0.  1.
         11    1    4    4    0    0 -0.13351606412E+02  0.14172010501E+02  0.15711025672E+03  0.15831217275E+03  0.00000000000E+00 0. -1.
        -12    1    4    4    0    0 -0.31568878251E+02 -0.17530227433E+02  0.21256826985E+02  0.41901737928E+02  0.00000000000E+00 0.  1.
</event>
<event>
12    1  0.1615162E-001  0.2664801E+03  0.7818608E-02  0.1103486E+00
         21   -1    0    0  501  502  0.00000000000E+00  0.00000000000E+00  0.97582768099E+03  0.97582768099E+03  0.00000000000E+00 0. -1.
         21   -1    0    0  502  503 -0.00000000000E+00 -0.00000000000E+00 -0.99202862365E+02  0.99202862365E+02  0.00000000000E+00 0.  1.
         -6    2    1    2    0  503 -0.10309579160E+02 -0.20253902505E+03  0.15842527920E+03  0.30898732558E+03  0.17101536242E+03 0.  0.
        -24    2    3    3    0    0  0.32676357648E+02 -0.50745872483E+02  0.26696844590E+02  0.10340662994E+03  0.79607296664E+02 0.  0.
          6    2    1    2  501    0  0.10309579160E+02  0.20253902505E+03  0.71819953942E+03  0.76604321778E+03  0.17286783677E+03 0.  0.
         24    2    5    5    0    0  0.89433643891E+01  0.17704458450E+02  0.24491921240E+03  0.25792704848E+03  0.78406059211E+02 0.  0.
          5    1    5    5  501    0  0.13662147713E+01  0.18483456660E+03  0.47328032702E+03  0.50811616930E+03  0.47000000000E+01 0. -1.
        -11    1    6    6    0    0  0.42517785527E+02  0.15147993886E+02  0.16806424182E+03  0.17401957701E+03  0.00000000000E+00 0.  1.
         12    1    6    6    0    0 -0.33574421138E+02  0.25564645639E+01  0.76854970579E+02  0.83907471471E+02  0.00000000000E+00 0. -1.
         -5    1    3    3    0  503 -0.42985936808E+02 -0.15179315257E+03  0.13172843461E+03  0.20558069563E+03  0.47000000000E+01 0.  1.
         13    1    4    4    0    0  0.67723776483E+00 -0.10486770388E+02  0.46967533753E+02  0.48128787965E+02  0.00000000000E+00 0. -1.
        -14    1    4    4    0    0  0.31999119883E+02 -0.40259102094E+02 -0.20270689163E+02  0.55277841979E+02  0.00000000000E+00 0.  1.
</event>
<event>
12    1  0.1615162E-001  0.1694655E+03  0.7818608E-02  0.1178610E+00
         21   -1    0    0  501  502  0.00000000000E+00  0.00000000000E+00  0.63722463281E+03  0.63722463281E+03  0.00000000000E+00 0. -1.
         21   -1    0    0  502  503 -0.00000000000E+00 -0.00000000000E+00 -0.66873227556E+02  0.66873227556E+02  0.00000000000E+00 0. -1.
         -6    2    1    2    0  503 -0.24328205821E+01 -0.15240256240E+02  0.83639513026E+02  0.18898181863E+03  0.16876129772E+03 0.  0.
        -24    2    3    3    0    0 -0.42035644385E+01  0.55877573356E+02  0.65687193447E+02  0.11546136571E+03  0.76658635716E+02 0.  0.
          6    2    1    2  501    0  0.24328205821E+01  0.15240256240E+02  0.48671189223E+03  0.51511604173E+03  0.16798180374E+03 0.  0.
         24    2    5    5    0    0 -0.12368085192E+02  0.44509505142E+02  0.12658772333E+03  0.15347082502E+03  0.73449144694E+02 0.  0.
          5    1    5    5  501    0  0.14800905774E+02 -0.29269248902E+02  0.36012416890E+03  0.36164521671E+03  0.47000000000E+01 0. -1.
        -13    1    6    6    0    0 -0.67373169802E+01 -0.18509198351E+02  0.13474817897E+02  0.23865300774E+02  0.00000000000E+00 0.  1.
         14    1    6    6    0    0 -0.56307682118E+01  0.63018703493E+02  0.11311290543E+03  0.12960552425E+03  0.00000000000E+00 0. -1.
         -5    1    3    3    0  503  0.17707438564E+01 -0.71117829596E+02  0.17952319578E+02  0.73520452927E+02  0.47000000000E+01 0.  1.
         11    1    4    4    0    0 -0.37136200704E+02  0.46921139894E+02  0.49638499393E+02  0.77747484806E+02  0.00000000000E+00 0. -1.
        -12    1    4    4    0    0  0.32932636266E+02  0.89564334623E+01  0.16048694055E+02  0.37713880901E+02  0.00000000000E+00 0.  1.
</event>
<event>
12    1  0.1615162E-001  0.2008738E+03  0.7818608E-02  0.1151763E+00
         21   -1    0    0  501  502  0.00000000000E+00  0.00000000000E+00  0.49621321170E+02  0.49621321170E+02  0.00000000000E+00 0.  1.
         21   -1    0    0  502  503 -0.00000000000E+00 -0.00000000000E+00 -0.76453869183E+03  0.76453869183E+03  0.00000000000E+00 0.  1.
         -6    2    1    2    0  503 -0.50462354643E+02  0.56189207599E+02 -0.32509197525E+03  0.37562369399E+03  0.17235048833E+03 0.  0.
        -24    2    3    3    0    0 -0.75764835246E+02  0.66550559936E+02 -0.14985061241E+03  0.19819991205E+03  0.81600930204E+02 0.  0.
          6    2    1    2  501    0  0.50462354643E+02 -0.56189207599E+02 -0.38982539541E+03  0.43853631901E+03  0.18613593930E+03 0.  0.
         24    2    5    5    0    0  0.79312680616E+02 -0.98835121265E+02 -0.28520837047E+03  0.32184087279E+03  0.78605663347E+02 0.  0.
          5    1    5    5  501    0 -0.28850325973E+02  0.42645913666E+02 -0.10461702495E+03  0.11669544623E+03  0.47000000000E+01 0. -1.
        -13    1    6    6    0    0  0.84905570011E+02 -0.66423626099E+02 -0.25631430800E+03  0.27806128534E+03  0.00000000000E+00 0.  1.
         14    1    6    6    0    0 -0.55928893952E+01 -0.32411495166E+02 -0.28894062469E+02  0.43779587443E+02  0.00000000000E+00 0. -1.
         -5    1    3    3    0  503  0.25302480603E+02 -0.10361352337E+02 -0.17524136284E+03  0.17742378194E+03  0.47000000000E+01 0.  1.
         11    1    4    4    0    0  0.19598432079E+01  0.50189150811E+02 -0.61177878386E+02  0.79155067105E+02  0.00000000000E+00 0. -1.
        -12    1    4    4    0    0 -0.77724678454E+02  0.16361409125E+02 -0.88672734020E+02  0.11904484494E+03  0.00000000000E+00 0.  1.
</event>
<event>
12    1  0.1615162E-001  0.1915833E+03  0.7818608E-02  0.1157860E+00
         21   -1    0    0  503  502  0.00000000000E+00  0.00000000000E+00  0.12022847203E+03  0.12022847203E+03  0.00000000000E+00 0.  1.
         21   -1    0    0  501  503 -0.00000000000E+00 -0.00000000000E+00 -0.49943195096E+03  0.49943195096E+03  0.00000000000E+00 0.  1.
          6    2    1    2  501    0  0.21956287262E+02 -0.80525830092E+02 -0.38670659206E+03  0.43156245806E+03  0.17244616262E+03 0.  0.
         24    2    3    3    0    0 -0.51710509249E+02 -0.58056850650E+02 -0.18925197298E+03  0.21956701343E+03  0.79679291147E+02 0.  0.
         -6    2    1    2    0  502 -0.21956287262E+02  0.80525830092E+02  0.75031131385E+01  0.18809796493E+03  0.16839851496E+03 0.  0.
        -24    2    5    5    0    0 -0.58414278714E+02  0.53898115692E+02 -0.42947329537E+02  0.12023370717E+03  0.79337484162E+02 0.  0.
          5    1    3    3  501    0  0.73666796511E+02 -0.22468979442E+02 -0.19745461908E+03  0.21199544463E+03  0.47000000000E+01 0. -1.
        -13    1    4    4    0    0 -0.66129522862E+01 -0.57246476806E+02 -0.62421363136E+02  0.84954792805E+02  0.00000000000E+00 0.  1.
         14    1    4    4    0    0 -0.45097556963E+02 -0.81037384425E+00 -0.12683060984E+03  0.13461222063E+03  0.00000000000E+00 0. -1.
         -5    1    5    5    0  502  0.36457991452E+02  0.26627714400E+02  0.50450442676E+02  0.67864257758E+02  0.47000000000E+01 0.  1.
         11    1    6    6    0    0 -0.24866660434E+02 -0.56051647855E+00  0.18916337476E+02  0.31248884834E+02  0.00000000000E+00 0. -1.
        -12    1    6    6    0    0 -0.33547618280E+02  0.54458632171E+02 -0.61863667013E+02  0.88984822338E+02  0.00000000000E+00 0.  1.
</event>
<event>
12    1  0.1615162E-001  0.1960325E+03  0.7818608E-02  0.1153596E+00
         21   -1    0    0  501  502  0.00000000000E+00  0.00000000000E+00  0.10039589215E+03  0.10039589215E+03  0.00000000000E+00 0. -1.
         21   -1    0    0  502  503 -0.00000000000E+00 -0.00000000000E+00 -0.14459575276E+04  0.14459575276E+04  0.00000000000E+00 0. -1.
         -6    2    1    2    0  503  0.87627783806E+02  0.22488390970E+02 -0.13360971799E+04  0.13500925617E+04  0.17149313314E+03 0.  0.
        -24    2    3    3    0    0  0.70696142650E+02  0.60966387669E+02 -0.12213235737E+04  0.12277720508E+04  0.84131397302E+02 0.  0.
          6    2    1    2  501    0 -0.87627783806E+02 -0.22488390970E+02 -0.94644555214E+01  0.19626085805E+03  0.17390914945E+03 0.  0.
         24    2    5    5    0    0 -0.12055333987E+03 -0.35909167292E+02  0.20857048157E+02  0.14929605139E+03  0.77664138798E+02 0.  0.
          5    1    5    5  501    0  0.32925556061E+02  0.13420776321E+02 -0.30321503678E+02  0.46964806657E+02  0.47000000000E+01 0. -1.
        -11    1    6    6    0    0 -0.21050733183E+02 -0.31269635752E+02  0.31492393487E+02  0.49119185001E+02  0.00000000000E+00 0.  1.
         12    1    6    6    0    0 -0.99502606684E+02 -0.46395315392E+01 -0.10635345330E+02  0.10017686639E+03  0.00000000000E+00 0. -1.
         -5    1    3    3    0  503  0.16931641156E+02 -0.38477996699E+02 -0.11477360622E+03  0.12232051090E+03  0.47000000000E+01 0.  1.
         13    1    4    4    0    0  0.56183330535E+02  0.46638962224E+02 -0.42782888133E+03  0.43401533513E+03  0.00000000000E+00 0. -1.
        -14    1    4    4    0    0  0.14512812115E+02  0.14327425445E+02 -0.79349469237E+03  0.79375671566E+03  0.00000000000E+00 0.  1.
</event>
<event>
12    1  0.1615162E-001  0.1766267E+03  0.7818608E-02  0.1171168E+00
         21   -1    0    0  501  502  0.00000000000E+00  0.00000000000E+00  0.53851498320E+02  0.53851498320E+02  0.00000000000E+00 0.  1.
         21   -1    0    0  502  503 -0.00000000000E+00 -0.00000000000E+00 -0.10841475565E+04  0.10841475565E+04  0.00000000000E+00 0.  1.
         -6    2    1    2    0  503  0.25319070447E+02  0.36359571157E+02 -0.90391728184E+03  0.92101217775E+03  0.17097925434E+03 0.  0.
        -24    2    3    3    0    0  0.86469169920E+01  0.87570987232E+02 -0.52347826237E+03  0.53675118914E+03  0.79554389479E+02 0.  0.
          6    2    1    2  501    0 -0.25319070447E+02 -0.36359571157E+02 -0.12637877634E+03  0.21698687707E+03  0.17072971613E+03 0.  0.
         24    2    5    5    0    0  0.62513250787E+01 -0.40647901321E+02 -0.31716247591E+01  0.89640216924E+02  0.79586294922E+02 0.  0.
          5    1    5    5  501    0 -0.31570395526E+02  0.42883301646E+01 -0.12320715158E+03  0.12734666015E+03  0.47000000000E+01 0. -1.
        -11    1    6    6    0    0  0.39869365431E+02 -0.73346415946E+01  0.72415410729E+01  0.41180130941E+02  0.00000000000E+00 0.  1.
         12    1    6    6    0    0 -0.33618040353E+02 -0.33313259727E+02 -0.10413165832E+02  0.48460085982E+02  0.00000000000E+00 0. -1.
         -5    1    3    3    0  503  0.16672153455E+02 -0.51211416075E+02 -0.38043901947E+03  0.38426098862E+03  0.47000000000E+01 0.  1.
         11    1    4    4    0    0  0.37746611839E+02  0.20009904372E+02 -0.14378800215E+03  0.15000064180E+03  0.00000000000E+00 0. -1.
        -12    1    4    4    0    0 -0.29099694847E+02  0.67561082860E+02 -0.37969026022E+03  0.38675054733E+03  0.00000000000E+00 0.  1.
</event>
<event>
12    1  0.1615162E-001  0.2836391E+03  0.7818608E-02  0.1094111E+00
         21   -1    0    0  503  502  0.00000000000E+00  0.00000000000E+00  0.15145192505E+04  0.15145192505E+04  0.00000000000E+00 0. -1.
         21   -1    0    0  501  503 -0.00000000000E+00 -0.00000000000E+00 -0.70121841493E+02  0.70121841493E+02  0.00000000000E+00 0.  1.
          6    2    1    2  501    0  0.64060057004E+02 -0.21564728146E+03  0.32307114900E+03  0.42799779508E+03  0.16792767603E+03 0.  0.
         24    2    3    3    0    0  0.97576314292E+00 -0.14357526069E+03  0.12062709190E+03  0.20398955737E+03  0.80287213290E+02 0.  0.
         -6    2    1    2    0  502 -0.64060057004E+02  0.21564728146E+03  0.11213262600E+04  0.11566432969E+04  0.17275327493E+03 0.  0.
        -24    2    5    5    0    0 -0.10087519012E+03  0.17143347361E+03  0.99286433510E+03  0.10158073250E+04  0.80744620637E+02 0.  0.
          5    1    3    3  501    0  0.63084293861E+02 -0.72072020765E+02  0.20244405710E+03  0.22400823772E+03  0.47000000000E+01 0. -1.
        -11    1    4    4    0    0 -0.63784091875E+01 -0.58606575383E+02  0.34397677918E+01  0.59052915122E+02  0.00000000000E+00 0.  1.
         12    1    4    4    0    0  0.73541723304E+01 -0.84968685310E+02  0.11718732411E+03  0.14493664225E+03  0.00000000000E+00 0. -1.
         -5    1    5    5    0  502  0.36815133117E+02  0.44213807853E+02  0.12846192488E+03  0.14083597188E+03  0.47000000000E+01 0.  1.
         13    1    6    6    0    0 -0.34814134418E+02  0.60251792285E+01  0.20868965211E+03  0.21165939062E+03  0.00000000000E+00 0. -1.
        -14    1    6    6    0    0 -0.66061055704E+02  0.16540829438E+03  0.78417468299E+03  0.80414793438E+03  0.00000000000E+00 0.  1.
</event>
<event>
12    1  0.1615162E-001  0.2889412E+03  0.7818608E-02  0.1091006E+00
         21   -1    0    0  501  502  0.00000000000E+00  0.00000000000E+00  0.33031885715E+03  0.33031885715E+03  0.00000000000E+00 0. -1.
         21   -1    0    0  502  503 -0.00000000000E+00 -0.00000000000E+00 -0.84765140347E+03  0.84765140347E+03  0.00000000000E+00 0.  1.
         -6    2    1    2    0  503  0.42043670247E+02 -0.22651116206E+03 -0.75247559513E+03  0.80604374647E+03  0.17439043326E+03 0.  0.
        -24    2    3    3    0    0 -0.22003611922E+02 -0.61456840332E+02 -0.18202813349E+03  0.20873530021E+03  0.78581690068E+02 0.  0.
          6    2    1    2  501    0 -0.42043670247E+02  0.22651116206E+03  0.23514304881E+03  0.37192651415E+03  0.17309564343E+03 0.  0.
         24    2    5    5    0    0 -0.49628474851E+02  0.24166344809E+03  0.18663544784E+03  0.32033001829E+03  0.83152405676E+02 0.  0.
          5    1    5    5  501    0  0.75848046043E+01 -0.15152286023E+02  0.48507600973E+02  0.51596495857E+02  0.47000000000E+01 0. -1.
        -11    1    6    6    0    0  0.16497259341E+02  0.11925712458E+03  0.73918563570E+02  0.14127411429E+03  0.00000000000E+00 0.  1.
         12    1    6    6    0    0 -0.66125734192E+02  0.12240632351E+03  0.11271688427E+03  0.17905590400E+03  0.00000000000E+00 0. -1.
         -5    1    3    3    0  503  0.64047282169E+02 -0.16505432173E+03 -0.57044746164E+03  0.59730844626E+03  0.47000000000E+01 0.  1.
         11    1    4    4    0    0 -0.80963596661E+00 -0.31145987219E+02 -0.99194844340E+01  0.32697464759E+02  0.00000000000E+00 0. -1.
        -12    1    4    4    0    0 -0.21193975956E+02 -0.30310853113E+02 -0.17210864905E+03  0.17603783546E+03  0.00000000000E+00 0.  1.
</event>
<event>
12    1  0.1615162E-001  0.2181693E+03  0.7818608E-02  0.1135439E+00
         21   -1    0    0  501  502  0.00000000000E+00  0.00000000000E+00  0.71977053387E+03  0.71977053387E+03  0.00000000000E+00 0. -1.
         21   -1    0    0  502  503 -0.00000000000E+00 -0.00000000000E+00 -0.65837815784E+02  0.65837815784E+02  0.00000000000E+00 0.  1.
         -6    2    1    2    0  503 -0.13184511626E+03 -0.17658166773E+01  0.33067700003E+03  0.39616300884E+03  0.17381483951E+03 0.  0.
        -24    2    3    3    0    0 -0.11674304267E+03 -0.45503198114E+02  0.31283952121E+03  0.34635039184E+03  0.79940908478E+02 0.  0.
          6    2    1    2  501    0  0.13184511626E+03  0.17658166773E+01  0.32325571805E+03  0.38944534081E+03  0.17258957511E+03 0.  0.
         24    2    5    5    0    0  0.15560164453E+03 -0.70235601660E+01  0.20610260860E+03  0.26949298846E+03  0.76726679712E+02 0.  0.
          5    1    5    5  501    0 -0.23756528265E+02  0.87893768433E+01  0.11715310946E+03  0.11995235236E+03  0.47000000000E+01 0. -1.
        -13    1    6    6    0    0  0.70271138469E+01  0.80222356830E+00 -0.67635321768E+01  0.97861769439E+01  0.00000000000E+00 0.  1.
         14    1    6    6    0    0  0.14857453068E+03 -0.78257837343E+01  0.21286614077E+03  0.25970681151E+03  0.00000000000E+00 0. -1.
         -5    1    3    3    0  503 -0.15102073590E+02  0.43737381437E+02  0.17837478823E+02  0.49812617001E+02  0.47000000000E+01 0.  1.
         13    1    4    4    0    0 -0.47733727823E+02 -0.10512637855E+02  0.22062982721E+03  0.22597908085E+03  0.00000000000E+00 0. -1.
        -14    1    4    4    0    0 -0.69009314847E+02 -0.34990560260E+02  0.92209694002E+02  0.12037131100E+03  0.00000000000E+00 0.  1.
</event>
<event>
12    1  0.1615162E-001  0.1854308E+03  0.7818608E-02  0.1163546E+00
         21   -1    0    0  501  502  0.00000000000E+00  0.00000000000E+00  0.20667602988E+03  0.20667602988E+03  0.00000000000E+00 0.  1.
         21   -1    0    0  502  503 -0.00000000000E+00 -0.00000000000E+00 -0.26077779410E+03  0.26077779410E+03  0.00000000000E+00 0.  1.
         -6    2    1    2    0  503 -0.82700334957E+01 -0.60756059400E+02 -0.17036415210E+03  0.25181046192E+03  0.17499963487E+03 0.  0.
        -24    2    3    3    0    0  0.47385503714E+02 -0.24872733257E+02 -0.15739257971E+03  0.18416799296E+03  0.79255199575E+02 0.  0.
          6    2    1    2  501    0  0.82700334957E+01  0.60756059400E+02  0.11626238788E+03  0.21564336205E+03  0.17095445169E+03 0.  0.
         24    2    5    5    0    0  0.34182794579E+02  0.89960904381E+02  0.12251566382E+03  0.17582392437E+03  0.81501759110E+02 0.  0.
          5    1    5    5  501    0 -0.25912761083E+02 -0.29204844980E+02 -0.62532759385E+01  0.39819437681E+02  0.47000000000E+01 0. -1.
        -13    1    6    6    0    0 -0.93962819995E+00  0.66149780000E+02  0.11508542154E+03  0.13274535979E+03  0.00000000000E+00 0.  1.
         14    1    6    6    0    0  0.35122422779E+02  0.23811124380E+02  0.74302422832E+01  0.43078564583E+02  0.00000000000E+00 0. -1.
         -5    1    3    3    0  503 -0.55655537210E+02 -0.35883326143E+02 -0.12971572389E+02  0.67642468964E+02  0.47000000000E+01 0.  1.
         13    1    4    4    0    0  0.52265818709E+00  0.14084045256E+02 -0.98219772671E+02  0.99225789217E+02  0.00000000000E+00 0. -1.
        -14    1    4    4    0    0  0.46862845527E+02 -0.38956778513E+02 -0.59172807041E+02  0.84942203739E+02  0.00000000000E+00 0.  1.
</event>
<event>
12    1  0.1615162E-001  0.2265033E+03  0.7818608E-02  0.1129194E+00
         21   -1    0    0  503  502  0.00000000000E+00  0.00000000000E+00  0.16053264660E+03  0.16053264660E+03  0.00000000000E+00 0. -1.
         21   -1    0    0  501  503 -0.00000000000E+00 -0.00000000000E+00 -0.73173429953E+03  0.73173429953E+03  0.00000000000E+00 0. -1.
          6    2    1    2  501    0  0.19862523717E+02  0.14654470135E+03  0.49336457189E+02  0.23181420895E+03  0.17156302668E+03 0.  0.
         24    2    3    3    0    0 -0.16548837415E+02  0.11167388553E+03  0.91826956665E+02  0.16571357688E+03  0.79270920655E+02 0.  0.
         -6    2    1    2    0  502 -0.19862523717E+02 -0.14654470135E+03 -0.62053811012E+03  0.66045273717E+03  0.17105672330E+03 0.  0.
        -24    2    5    5    0    0  0.45110054787E+02 -0.11993339798E+03 -0.47292343976E+03  0.49692360115E+03  0.82810316432E+02 0.  0.
          5    1    3    3  501    0  0.36411361132E+02  0.34870815814E+02 -0.42490499476E+02  0.66100632076E+02  0.47000000000E+01 0. -1.
        -11    1    4    4    0    0 -0.92552132950E+01  0.12341180869E+03  0.78759157124E+02  0.14669402963E+03  0.00000000000E+00 0.  1.
         12    1    4    4    0    0 -0.72936241202E+01 -0.11737923156E+02  0.13067799541E+02  0.19019547252E+02  0.00000000000E+00 0. -1.
         -5    1    5    5    0  502 -0.64972578504E+02 -0.26611303365E+02 -0.14761467036E+03  0.16352913603E+03  0.47000000000E+01 0.  1.
         13    1    6    6    0    0  0.28633686821E+02 -0.63275851833E+02 -0.38382956807E+03  0.39006263442E+03  0.00000000000E+00 0. -1.
        -14    1    6    6    0    0  0.16476367966E+02 -0.56657546150E+02 -0.89093871693E+02  0.10686096673E+03  0.00000000000E+00 0.  1.
</event>
<event>
12    1  0.1615162E-001  0.2162558E+03  0.7818608E-02  0.1137880E+00
         21   -1    0    0  503  502  0.00000000000E+00  0.00000000000E+00  0.58030909451E+03  0.58030909451E+03  0.00000000000E+00 0. -1.
         21   -1    0    0  501  503 -0.00000000000E+00 -0.00000000000E+00 -0.10864235201E+03  0.10864235201E+03  0.00000000000E+00 0.  1.
          6    2    1    2  501    0  0.46236577201E+02  0.12370075454E+03  0.51507783358E+02  0.21640504421E+03  0.16351878690E+03 0.  0.
         24    2    3    3    0    0  0.42108520217E+02  0.15221496926E+03  0.57335715993E+02  0.18663667016E+03  0.81260925283E+02 0.  0.
         -6    2    1    2    0  502 -0.46236577201E+02 -0.12370075454E+03  0.42015895914E+03  0.47254640231E+03  0.17125085005E+03 0.  0.
        -24    2    5    5    0    0 -0.58506641181E+02 -0.12343187657E+03  0.21579868165E+03  0.26776398172E+03  0.80436457471E+02 0.  0.
          5    1    3    3  501    0  0.41280569838E+01 -0.28514214714E+02 -0.58279326343E+01  0.29768374057E+02  0.47000000000E+01 0. -1.
        -11    1    4    4    0    0  0.43863515110E+02  0.14743073962E+03  0.27361241091E+02  0.15623209803E+03  0.00000000000E+00 0.  1.
         12    1    4    4    0    0 -0.17549948929E+01  0.47842296390E+01  0.29974474902E+02  0.30404572122E+02  0.00000000000E+00 0. -1.
         -5    1    5    5    0  502  0.12270063980E+02 -0.26887797676E+00  0.20436027749E+03  0.20478242058E+03  0.47000000000E+01 0.  1.
         13    1    6    6    0    0 -0.49018007489E+02 -0.21653737061E+02  0.51892127862E+02  0.74595189664E+02  0.00000000000E+00 0. -1.
        -14    1    6    6    0    0 -0.94886336921E+01 -0.10177813951E+03  0.16390655379E+03  0.19316879206E+03  0.00000000000E+00 0.  1.
</event>
<event>
12    1  0.1615162E-001  0.2215412E+03  0.7818608E-02  0.1133217E+00
         21   -1    0    0  503  502  0.00000000000E+00  0.00000000000E+00  0.24610696566E+03  0.24610696566E+03  0.00000000000E+00 0. -1.
         21   -1    0    0  501  503 -0.00000000000E+00 -0.00000000000E+00 -0.40019034681E+03  0.40019034681E+03  0.00000000000E+00 0. -1.
          6    2    1    2  501    0 -0.76583787514E+02  0.11697194748E+03 -0.30701043610E+03  0.37710003243E+03  0.16852748611E+03 0.  0.
         24    2    3    3    0    0 -0.84115246695E+02  0.19243712823E+02 -0.23253107420E+03  0.25390589265E+03  0.54330531424E+02 0.  0.
         -6    2    1    2    0  502  0.76583787514E+02 -0.11697194748E+03  0.15292705495E+03  0.26919728004E+03  0.17185161750E+03 0.  0.
        -24    2    5    5    0    0  0.53283849936E+02 -0.14744612014E+03  0.93253265474E+02  0.19810147537E+03  0.77256041938E+02 0.  0.
          5    1    3    3  501    0  0.75314591805E+01  0.97728234660E+02 -0.74479361907E+02  0.12319413978E+03  0.47000000000E+01 0. -1.
        -11    1    4    4    0    0 -0.18179116383E+02  0.19892062723E+02 -0.27373624015E+02  0.38412103867E+02  0.00000000000E+00 0.  1.
         12    1    4    4    0    0 -0.65936130312E+02 -0.64834989982E+00 -0.20515745018E+03  0.21549378878E+03  0.00000000000E+00 0. -1.
         -5    1    5    5    0  502  0.23299937579E+02  0.30474172656E+02  0.59673789481E+02  0.71095804667E+02  0.47000000000E+01 0.  1.
         11    1    6    6    0    0  0.17488818185E+01 -0.13088912863E+02  0.44102933697E+02  0.46037452017E+02  0.00000000000E+00 0. -1.
        -12    1    6    6    0    0  0.51534968117E+02 -0.13435720728E+03  0.49150331777E+02  0.15206402336E+03  0.00000000000E+00 0.  1.
</event>
<event>
12    1  0.1615162E-001  0.1899541E+03  0.7818608E-02  0.1159020E+00
         21   -1    0    0  501  502  0.00000000000E+00  0.00000000000E+00  0.59258137755E+03  0.59258137755E+03  0.00000000000E+00 0.  1.
         21   -1    0    0  502  503 -0.00000000000E+00 -0.00000000000E+00 -0.18745425455E+03  0.18745425455E+03  0.00000000000E+00 0.  1.
         -6    2    1    2    0  503 -0.77449835030E+02  0.12561347586E+02 -0.11922155021E+03  0.22234029085E+03  0.17048507999E+03 0.  0.
        -24    2    3    3    0    0  0.11303657373E+02 -0.21897753123E+02 -0.21450211551E+02  0.85790165625E+02  0.79325636969E+02 0.  0.
          6    2    1    2  501    0  0.77449835030E+02 -0.12561347586E+02  0.52434867321E+03  0.55769534125E+03  0.17299219102E+03 0.  0.
         24    2    5    5    0    0  0.11809250488E+03 -0.66476311518E+01  0.33943248924E+03  0.36821477827E+03  0.79860362329E+02 0.  0.
          5    1    5    5  501    0 -0.40642669854E+02 -0.59137164346E+01  0.18491618396E+03  0.18948056298E+03  0.47000000000E+01 0. -1.
        -11    1    6    6    0    0  0.65468063821E+02 -0.42881535135E+02  0.20296904082E+03  0.21753465234E+03  0.00000000000E+00 0.  1.
         12    1    6    6    0    0  0.52624441062E+02  0.36233903983E+02  0.13646344842E+03  0.15068012593E+03  0.00000000000E+00 0. -1.
         -5    1    3    3    0  503 -0.88753492403E+02  0.34459100710E+02 -0.97771338656E+02  0.13655012522E+03  0.47000000000E+01 0.  1.
         11    1    4    4    0    0 -0.30755566313E+02 -0.22824040036E+02 -0.21083693182E+02  0.43719146618E+02  0.00000000000E+00 0. -1.
        -12    1    4    4    0    0  0.42059223686E+02  0.92628691332E+00 -0.36651836969E+00  0.42071019007E+02  0.00000000000E+00 0.  1.
</event>
<event>
12    1  0.1615162E-001  0.2667032E+03  0.7818608E-02  0.1104165E+00
         21   -1    0    0  503  502  0.00000000000E+00  0.00000000000E+00  0.21043825688E+03  0.21043825688E+03  0.00000000000E+00 0.  1.
         21   -1    0    0  501  503 -0.00000000000E+00 -0.00000000000E+00 -0.48600634140E+03  0.48600634140E+03  0.00000000000E+00 0. -1.
          6    2    1    2  501    0  0.19234249474E+03 -0.34247250019E+02 -0.33649601195E+03  0.42937182921E+03  0.18155465360E+03 0.  0.
         24    2    3    3    0    0  0.19996053466E+03 -0.56133921505E+02 -0.33893939871E+03  0.40559955419E+03  0.80596834939E+02 0.  0.
         -6    2    1    2    0  502 -0.19234249474E+03  0.34247250019E+02  0.60927927428E+02  0.26707276907E+03  0.17160169643E+03 0.  0.
        -24    2    5    5    0    0 -0.28906514732E+02  0.39650882665E+02  0.26625519904E+01  0.93413727312E+02  0.79443414938E+02 0.  0.
          5    1    3    3  501    0 -0.76180399112E+01  0.21886671485E+02  0.24433867576E+01  0.23772275020E+02  0.47000000000E+01 0. -1.
        -13    1    4    4    0    0 -0.69406714997E+01 -0.17856880898E+01 -0.22682316947E+02  0.23787582999E+02  0.00000000000E+00 0.  1.
         14    1    4    4    0    0  0.20690120616E+03 -0.54348233415E+02 -0.31625708176E+03  0.38181197120E+03  0.00000000000E+00 0. -1.
         -5    1    5    5    0  502 -0.16343598001E+03 -0.54036326453E+01  0.58265375438E+02  0.17365904175E+03  0.47000000000E+01 0.  1.
         13    1    6    6    0    0  0.20041751382E+02 -0.72798590074E+01  0.12767727871E+02  0.24853229581E+02  0.00000000000E+00 0. -1.
        -14    1    6    6    0    0 -0.48948266114E+02  0.46930741672E+02 -0.10105175880E+02  0.68560497731E+02  0.00000000000E+00 0.  1.
</event>
<event>
12    1  0.1615162E-001  0.1965720E+03  0.7818608E-02  0.1152764E+00
         21   -1    0    0  501  502  0.00000000000E+00  0.00000000000E+00  0.49043498723E+03  0.49043498723E+03  0.00000000000E+00 0. -1.
         21   -1    0    0  502  503 -0.00000000000E+00 -0.00000000000E+00 -0.92633003633E+02  0.92633003633E+02  0.00000000000E+00 0. -1.
         -6    2    1    2    0  503  0.89453155072E+02  0.25845437836E+02  0.31256129795E+03  0.36923584677E+03  0.17312045505E+03 0.  0.
        -24    2    3    3    0    0  0.24583748857E+02  0.52707780823E+02  0.26926837128E+03  0.28661627988E+03  0.79126261468E+02 0.  0.
          6    2    1    2  501    0 -0.89453155072E+02 -0.25845437836E+02  0.85240685645E+02  0.21383214409E+03  0.17259304084E+03 0.  0.
         24    2    5    5    0    0  0.12230705357E+02 -0.78792145890E+01  0.76161785044E+02  0.11006842651E+03  0.78120220414E+02 0.  0.
          5    1    5    5  501    0 -0.10168386043E+03 -0.17966223247E+02  0.90789006002E+01  0.10376371758E+03  0.47000000000E+01 0. -1.
        -13    1    6    6    0    0 -0.24322931375E+02  0.91476235634E+01  0.62174765494E+02  0.67386834558E+02  0.00000000000E+00 0.  1.
         14    1    6    6    0    0  0.36553636732E+02 -0.17026838152E+02  0.13987019550E+02  0.42681591953E+02  0.00000000000E+00 0. -1.
         -5    1    3    3    0  503  0.64869406215E+02 -0.26862342988E+02  0.43292926669E+02  0.82619566890E+02  0.47000000000E+01 0.  1.
         11    1    4    4    0    0  0.49439340945E+02  0.29551285648E+02  0.21509041759E+03  0.22266884527E+03  0.00000000000E+00 0. -1.
        -12    1    4    4    0    0 -0.24855592088E+02  0.23156495176E+02  0.54177953694E+02  0.63947434611E+02  0.00000000000E+00 0.  1.
</event>
<event>
12    1  0.1615162E-001  0.2465603E+03  0.7818608E-02  0.1115653E+00
         21   -1    0    0  503  502  0.00000000000E+00  0.00000000000E+00  0.73678569861E+03  0.73678569861E+03  0.00000000000E+00 0. -1.
         21   -1    0    0  501  503 -0.00000000000E+00 -0.00000000000E+00 -0.11262646066E+03  0.11262646066E+03  0.00000000000E+00 0.  1.
          6    2    1    2  501    0 -0.17335104026E+03  0.32587677439E+02  0.90844942515E+02  0.26186120320E+03  0.17089747301E+03 0.  0.
         24    2    3    3    0    0 -0.63587052503E+02 -0.75720206425E+01 -0.14810904199E+02  0.10423448496E+03  0.80900038498E+02 0.  0.
         -6    2    1    2    0  502  0.17335104026E+03 -0.32587677439E+02  0.53331429543E+03  0.58755095607E+03  0.17227724280E+03 0.  0.
        -24    2    5    5    0    0  0.48871241620E+02 -0.13975141296E+01  0.35872072075E+03  0.37081827999E+03  0.80220259173E+02 0.  0.
          5    1    3    3  501    0 -0.10976398776E+03  0.40159698082E+02  0.10565584671E+03  0.15762671824E+03  0.47000000000E+01 0. -1.
        -13    1    4    4    0    0 -0.44401651180E+01  0.16457070185E+02 -0.33607668989E+02  0.37683227571E+02  0.00000000000E+00 0.  1.
         14    1    4    4    0    0 -0.59146887385E+02 -0.24029090828E+02  0.18796764789E+02  0.66551257388E+02  0.00000000000E+00 0. -1.
         -5    1    5    5    0  502  0.12447979864E+03 -0.31190163310E+02  0.17459357469E+03  0.21673267608E+03  0.47000000000E+01 0.  1.
         13    1    6    6    0    0  0.49418782544E+02 -0.34211366984E+02  0.25697922993E+03  0.26391467999E+03  0.00000000000E+00 0. -1.
        -14    1    6    6    0    0 -0.54754092455E+00  0.32813852854E+02  0.10174149082E+03  0.10690360001E+03  0.00000000000E+00 0.  1.
</event>
<event>
12    1  0.1615162E-001  0.2370362E+03  0.7818608E-02  0.1121877E+00
         21   -1    0    0  503  502  0.00000000000E+00  0.00000000000E+00  0.14356231967E+03  0.14356231967E+03  0.00000000000E+00 0. -1.
         21   -1    0    0  501  503 -0.00000000000E+00 -0.00000000000E+00 -0.76297112262E+03  0.76297112262E+03  0.00000000000E+00 0.  1.
          6    2    1    2  501    0  0.13251764054E+03 -0.94024239598E+02 -0.62660642320E+03  0.66994160242E+03  0.17258232345E+03 0.  0.
         24    2    3    3    0    0  0.16303887426E+03 -0.63632103312E+02 -0.47401007128E+03  0.51131321821E+03  0.78261998144E+02 0.  0.
         -6    2    1    2    0  502 -0.13251764054E+03  0.94024239598E+02  0.71976202460E+01  0.23659183987E+03  0.17182086680E+03 0.  0.
        -24    2    5    5    0    0 -0.14961235011E+03  0.85002492155E+02 -0.33022967728E+02  0.19172083900E+03  0.77827274986E+02 0.  0.
          5    1    3    3  501    0 -0.30521233716E+02 -0.30392136286E+02 -0.15259635193E+03  0.15862838421E+03  0.47000000000E+01 0. -1.
        -13    1    4    4    0    0  0.88589103774E+02 -0.27631056956E+02 -0.35121446487E+03  0.36326726380E+03  0.00000000000E+00 0.  1.
         14    1    4    4    0    0  0.74449770486E+02 -0.36001046355E+02 -0.12279560641E+03  0.14804595441E+03  0.00000000000E+00 0. -1.
         -5    1    5    5    0  502  0.17094709565E+02  0.90217474431E+01  0.40220587974E+02  0.44871000869E+02  0.47000000000E+01 0.  1.
         11    1    6    6    0    0 -0.59128084925E+02 -0.73016938775E+01 -0.90969858785E+01  0.60267738571E+02  0.00000000000E+00 0. -1.
        -12    1    6    6    0    0 -0.90484265183E+02  0.92304186032E+02 -0.23925981850E+02  0.13145310043E+03  0.00000000000E+00 0.  1.
</event>
<event>
12    1  0.1615162E-001  0.2155919E+03  0.7818608E-02  0.1137217E+00
         21   -1    0    0  503  502  0.00000000000E+00  0.00000000000E+00  0.16943782142E+03  0.16943782142E+03  0.00000000000E+00 0. -1.
         21   -1    0    0  501  503 -0.00000000000E+00 -0.00000000000E+00 -0.27429412974E+03  0.27429412974E+03  0.00000000000E+00 0. -1.
          6    2    1    2  501    0 -0.12831404525E+03 -0.40022641720E+01 -0.53365254329E+02  0.22209846666E+03  0.17320325111E+03 0.  0.
         24    2    3    3    0    0 -0.34473524746E+02 -0.18771720888E+02 -0.84189754011E+02  0.12211636865E+03  0.79269738233E+02 0.  0.
         -6    2    1    2    0  502  0.12831404525E+03  0.40022641720E+01 -0.51491053990E+02  0.22163348450E+03  0.17317494184E+03 0.  0.
        -24    2    5    5    0    0  0.58640623326E+02  0.68862612919E+02 -0.26650138279E+02  0.12314281664E+03  0.79203164438E+02 0.  0.
          5    1    3    3  501    0 -0.93840520504E+02  0.14769456716E+02  0.30824499681E+02  0.99982098002E+02  0.47000000000E+01 0. -1.
        -13    1    4    4    0    0 -0.41060632265E+02  0.95065894652E+01 -0.82963254217E+02  0.93055103651E+02  0.00000000000E+00 0.  1.
         14    1    4    4    0    0  0.65871075187E+01 -0.28278310353E+02 -0.12264997942E+01  0.29061265004E+02  0.00000000000E+00 0. -1.
         -5    1    5    5    0  502  0.69673421925E+02 -0.64860348747E+02 -0.24840915711E+02  0.98490667861E+02  0.47000000000E+01 0.  1.
         11    1    6    6    0    0  0.24646019222E+02  0.59813743863E+02 -0.49271341000E+02  0.81318972339E+02  0.00000000000E+00 0. -1.
        -12    1    6    6    0    0  0.33994604104E+02  0.90488690562E+01  0.22621202721E+02  0.41823844298E+02  0.00000000000E+00 0.  1.
</event>
<event>
12    1  0.1615162E-001  0.1893823E+03  0.7818608E-02  0.1159356E+00
         21   -1    0    0  501  502  0.00000000000E+00  0.00000000000E+00  0.24899755542E+03  0.24899755542E+03  0.00000000000E+00 0. -1.
         21   -1    0    0  502  503 -0.00000000000E+00 -0.00000000000E+00 -0.14719334873E+03  0.14719334873E+03  0.00000000000E+00 0. -1.
         -6    2    1    2    0  503  0.56766492222E+02  0.60258535839E+02  0.16939468934E+02  0.18866332465E+03  0.16868129322E+03 0.  0.
        -24    2    3    3    0    0  0.19170559360E+01 -0.28837857183E+02 -0.57386746644E+01  0.81504488772E+02  0.75991790299E+02 0.  0.
          6    2    1    2  501    0 -0.56766492222E+02 -0.60258535839E+02  0.84864737759E+02  0.20752757950E+03  0.17032952404E+03 0.  0.
         24    2    5    5    0    0  0.60439348618E+01 -0.67101067014E+02  0.97225797595E+02  0.14297639219E+03  0.80313826097E+02 0.  0.
          5    1    5    5  501    0 -0.62810427083E+02  0.68425311749E+01 -0.12361059836E+02  0.64551187313E+02  0.47000000000E+01 0. -1.
        -13    1    6    6    0    0  0.13709464790E+02  0.14045811028E+02  0.57433872920E+01  0.20450445713E+02  0.00000000000E+00 0.  1.
         14    1    6    6    0    0 -0.76655299278E+01 -0.81146878042E+02  0.91482410303E+02  0.12252594648E+03  0.00000000000E+00 0. -1.
         -5    1    3    3    0  503  0.54849436286E+02  0.89096393022E+02  0.22678143598E+02  0.10715883588E+03  0.47000000000E+01 0.  1.
         13    1    4    4    0    0  0.43284998109E+01  0.25045947985E+02 -0.10189127159E+02  0.27383457294E+02  0.00000000000E+00 0. -1.
        -14    1    4    4    0    0 -0.24114438749E+01 -0.53883805168E+02  0.44504524943E+01  0.54121031479E+02  0.00000000000E+00 0.  1.
</event>
<event>
12    1  0.1615162E-001  0.2263743E+03  0.7818608E-02  0.1129260E+00
         21   -1    0    0  501  502  0.00000000000E+00  0.00000000000E+00  0.76714918522E+02  0.76714918522E+02  0.00000000000E+00 0.  1.
         21   -1    0    0  502  503 -0.00000000000E+00 -0.00000000000E+00 -0.86491103503E+03  0.86491103503E+03  0.00000000000E+00 0. -1.
         -6    2    1    2    0  503 -0.13899622876E+03  0.46330688683E+02 -0.16921393181E+03  0.28262815068E+03  0.17256544415E+03 0.  0.
        -24    2    3    3    0    0 -0.27370632704E+02  0.68195898736E+02 -0.63692047914E+02  0.12740148065E+03  0.82308129406E+02 0.  0.
          6    2    1    2  501    0  0.13899622876E+03 -0.46330688683E+02 -0.61898218470E+03  0.65899780287E+03  0.17225758299E+03 0.  0.
         24    2    5    5    0    0  0.21900189022E+02 -0.86799232639E+01 -0.40202794249E+03  0.40955783841E+03  0.74539902836E+02 0.  0.
          5    1    5    5  501    0  0.11709603974E+03 -0.37650765419E+02 -0.21695424221E+03  0.24943996446E+03  0.47000000000E+01 0. -1.
        -13    1    6    6    0    0 -0.78380565294E+01 -0.67718550839E+01 -0.51593173552E+01  0.11572022598E+02  0.00000000000E+00 0.  1.
         14    1    6    6    0    0  0.29738245552E+02 -0.19080681801E+01 -0.39686862514E+03  0.39798581582E+03  0.00000000000E+00 0. -1.
         -5    1    3    3    0  503 -0.11162559606E+03 -0.21865210053E+02 -0.10552188390E+03  0.15522667002E+03  0.47000000000E+01 0.  1.
         13    1    4    4    0    0 -0.26423859672E+02  0.58501770968E+02 -0.83503125862E+02  0.10532544610E+03  0.00000000000E+00 0. -1.
        -14    1    4    4    0    0 -0.94677303181E+00  0.96941277681E+01  0.19811077948E+02  0.22076034559E+02  0.00000000000E+00 0.  1.
</event>
<event>
12    1  0.1615162E-001  0.1857109E+03  0.7818608E-02  0.1163891E+00
         21   -1    0    0  503  502  0.00000000000E+00  0.00000000000E+00  0.50655193677E+03  0.50655193677E+03  0.00000000000E+00 0. -1.
         21   -1    0    0  501  503 -0.00000000000E+00 -0.00000000000E+00 -0.66794405604E+02  0.66794405604E+02  0.00000000000E+00 0. -1.
          6    2    1    2  501    0  0.56353403257E+02  0.28871386465E+02  0.18070957371E+03  0.25460758926E+03  0.16780885395E+03 0.  0.
         24    2    3    3    0    0 -0.22992897942E+02  0.36056012214E+02  0.58051824507E+02  0.10827075930E+03  0.80770252069E+02 0.  0.
         -6    2    1    2    0  502 -0.56353403257E+02 -0.28871386465E+02  0.25904795746E+03  0.31873875312E+03  0.17458317634E+03 0.  0.
        -24    2    5    5    0    0 -0.95658776444E+02 -0.37370860846E+02  0.24284601990E+03  0.27512973791E+03  0.78581171756E+02 0.  0.
          5    1    3    3  501    0  0.79346301199E+02 -0.71846257492E+01  0.12265774921E+03  0.14633682996E+03  0.47000000000E+01 0. -1.
        -13    1    4    4    0    0  0.37500601591E+00  0.35813900212E+02  0.72451936098E+02  0.80821155165E+02  0.00000000000E+00 0.  1.
         14    1    4    4    0    0 -0.23367903958E+02  0.24211200232E+00 -0.14400111591E+02  0.27449604140E+02  0.00000000000E+00 0. -1.
         -5    1    5    5    0  502  0.39305373188E+02  0.84994743816E+01  0.16201937561E+02  0.43609015202E+02  0.47000000000E+01 0.  1.
         13    1    6    6    0    0 -0.65637866734E+02 -0.54799195326E+02  0.21236795791E+03  0.22893542955E+03  0.00000000000E+00 0. -1.
        -14    1    6    6    0    0 -0.30020909710E+02  0.17428334480E+02  0.30478061985E+02  0.46194308361E+02  0.00000000000E+00 0.  1.
</event>
<event>
12    1  0.1615162E-001  0.1806389E+03  0.7818608E-02  0.1167676E+00
         21   -1    0    0  503  502  0.00000000000E+00  0.00000000000E+00  0.60219489039E+03  0.60219489039E+03  0.00000000000E+00 0. -1.
         21   -1    0    0  501  503 -0.00000000000E+00 -0.00000000000E+00 -0.14141460504E+03  0.14141460504E+03  0.00000000000E+00 0. -1.
          6    2    1    2  501    0  0.52882947920E+02  0.71405213957E+01 -0.63120201839E+02  0.18944154324E+03  0.17045921857E+03 0.  0.
         24    2    3    3    0    0 -0.10807876439E+02  0.51602826421E+02 -0.52466181263E+02  0.11089846060E+03  0.82256346255E+02 0.  0.
         -6    2    1    2    0  502 -0.52882947920E+02 -0.71405213957E+01  0.52390048719E+03  0.55416795219E+03  0.17257695539E+03 0.  0.
        -24    2    5    5    0    0  0.28493436517E+02  0.30687016444E+02  0.27106467253E+03  0.28583778665E+03  0.80458776295E+02 0.  0.
          5    1    3    3  501    0  0.63690824359E+02 -0.44462305025E+02 -0.10654020576E+02  0.78543082637E+02  0.47000000000E+01 0. -1.
        -11    1    4    4    0    0  0.21408005523E+02 -0.10737882714E+02 -0.11749401642E+01  0.23978851308E+02  0.00000000000E+00 0.  1.
         12    1    4    4    0    0 -0.32215881962E+02  0.62340709134E+02 -0.51291241099E+02  0.86919609291E+02  0.00000000000E+00 0. -1.
         -5    1    5    5    0  502 -0.81376384437E+02 -0.37827537839E+02  0.25283581466E+03  0.26833016554E+03  0.47000000000E+01 0.  1.
         13    1    6    6    0    0 -0.40585591712E+00 -0.28047742680E+01  0.21212602861E+03  0.21214495868E+03  0.00000000000E+00 0. -1.
        -14    1    6    6    0    0  0.28899292434E+02  0.33491790712E+02  0.58938643918E+02  0.73692827976E+02  0.00000000000E+00 0.  1.
</event>
<event>
12    1  0.1615162E-001  0.2139559E+03  0.7818608E-02  0.1138656E+00
         21   -1    0    0  501  502  0.00000000000E+00  0.00000000000E+00  0.13575189905E+03  0.13575189905E+03  0.00000000000E+00 0.  1.
         21   -1    0    0  502  503 -0.00000000000E+00 -0.00000000000E+00 -0.38668970561E+03  0.38668970561E+03  0.00000000000E+00 0.  1.
         -6    2    1    2    0  503 -0.12455600311E+03  0.34113071848E+02 -0.22007327438E+03  0.30627100454E+03  0.16938648868E+03 0.  0.
        -24    2    3    3    0    0 -0.69235895246E+02  0.63649956540E+02 -0.20815941861E+03  0.24226497474E+03  0.80728237155E+02 0.  0.
          6    2    1    2  501    0  0.12455600311E+03 -0.34113071848E+02 -0.30864532178E+02  0.21617060012E+03  0.17058490387E+03 0.  0.
         24    2    5    5    0    0  0.11527098459E+03  0.27812715880E+02  0.32996508184E+01  0.14468426468E+03  0.82835389162E+02 0.  0.
          5    1    5    5  501    0  0.92850185166E+01 -0.61925787727E+02 -0.34164182997E+02  0.71486335438E+02  0.47000000000E+01 0. -1.
        -13    1    6    6    0    0  0.63252342807E+02  0.25402078759E+02  0.41768162255E+02  0.79941877974E+02  0.00000000000E+00 0.  1.
         14    1    6    6    0    0  0.52018641786E+02  0.24106371213E+01 -0.38468511437E+02  0.64742386709E+02  0.00000000000E+00 0. -1.
         -5    1    3    3    0  503 -0.55320107864E+02 -0.29536884692E+02 -0.11913855771E+02  0.64006029800E+02  0.47000000000E+01 0.  1.
         13    1    4    4    0    0  0.15838533159E+02 -0.14568326525E+01 -0.37953648081E+02  0.41151681577E+02  0.00000000000E+00 0. -1.
        -14    1    4    4    0    0 -0.85074428405E+02  0.65106789192E+02 -0.17020577053E+03  0.20111329317E+03  0.00000000000E+00 0.  1.
</event>
<event>
12    1  0.1615162E-001  0.1995009E+03  0.7818608E-02  0.1150676E+00
         21   -1    0    0  501  502  0.00000000000E+00  0.00000000000E+00  0.42067907209E+02  0.42067907209E+02  0.00000000000E+00 0.  1.
         21   -1    0    0  502  503 -0.00000000000E+00 -0.00000000000E+00 -0.93681032773E+03  0.93681032773E+03  0.00000000000E+00 0.  1.
         -6    2    1    2    0  503  0.31661651976E+02  0.96698310025E+02 -0.42673640646E+03  0.47106747736E+03  0.17160298443E+03 0.  0.
        -24    2    3    3    0    0 -0.36031953475E+02  0.36207076341E+02 -0.30068748076E+03  0.31565822654E+03  0.81350481547E+02 0.  0.
          6    2    1    2  501    0 -0.31661651976E+02 -0.96698310025E+02 -0.46800601406E+03  0.50781075758E+03  0.16878718241E+03 0.  0.
         24    2    5    5    0    0 -0.63322150983E+02 -0.57612964293E+02 -0.17263133468E+03  0.20814704160E+03  0.78706192621E+02 0.  0.
          5    1    5    5  501    0  0.31660499007E+02 -0.39085345732E+02 -0.29537467939E+03  0.29966371598E+03  0.47000000000E+01 0. -1.
        -13    1    6    6    0    0 -0.62938130458E+02 -0.23285664582E+02 -0.15636848436E+03  0.17016031658E+03  0.00000000000E+00 0.  1.
         14    1    6    6    0    0 -0.38402052498E+00 -0.34327299710E+02 -0.16262850320E+02  0.37986725020E+02  0.00000000000E+00 0. -1.
         -5    1    3    3    0  503  0.67693605450E+02  0.60491233684E+02 -0.12604892570E+03  0.15540925082E+03  0.47000000000E+01 0.  1.
         11    1    4    4    0    0 -0.49464979197E+02 -0.60327841941E+01 -0.12759018186E+03  0.13697603133E+03  0.00000000000E+00 0. -1.
        -12    1    4    4    0    0  0.13433025722E+02  0.42239860535E+02 -0.17309729890E+03  0.17868219521E+03  0.00000000000E+00 0.  1.
</event>
<event>
12    1  0.1615162E-001  0.4700999E+03  0.7818608E-02  0.1021993E+00
         21   -1    0    0  501  502  0.00000000000E+00  0.00000000000E+00  0.10960153954E+04  0.10960153954E+04  0.00000000000E+00 0.  1.
         21   -1    0    0  502  503 -0.00000000000E+00 -0.00000000000E+00 -0.35947730418E+03  0.35947730418E+03  0.00000000000E+00 0. -1.
         -6    2    1    2    0  503  0.43689995086E+03  0.78292085612E+01 -0.11458562164E+03  0.48386343537E+03  0.17335251898E+03 0.  0.
        -24    2    3    3    0    0  0.11825704549E+03  0.97236695851E+01 -0.81774625421E+02  0.16349561302E+03  0.77229835920E+02 0.  0.
          6    2    1    2  501    0 -0.43689995086E+03 -0.78292085612E+01  0.85112371288E+03  0.97162926423E+03  0.16943727132E+03 0.  0.
         24    2    5    5    0    0 -0.17454145238E+03 -0.45861745493E+02  0.44570573153E+03  0.48720766563E+03  0.78419972133E+02 0.  0.
          5    1    5    5  501    0 -0.26235849847E+03  0.38032536932E+02  0.40541798135E+03  0.48442159860E+03  0.47000000000E+01 0. -1.
        -13    1    6    6    0    0 -0.54779617308E+02  0.21856408658E+02  0.12366207231E+03  0.13700663195E+03  0.00000000000E+00 0.  1.
         14    1    6    6    0    0 -0.11976183508E+03 -0.67718154151E+02  0.32204365922E+03  0.35020103368E+03  0.00000000000E+00 0. -1.
         -5    1    3    3    0  503  0.31864290537E+03 -0.18944610239E+01 -0.32810996220E+02  0.32036782235E+03  0.47000000000E+01 0.  1.
         13    1    4    4    0    0  0.89450897452E+02  0.24838843322E+02 -0.21945184507E+02  0.95394037108E+02  0.00000000000E+00 0. -1.
        -14    1    4    4    0    0  0.28806148037E+02 -0.15115173737E+02 -0.59829440913E+02  0.68101575913E+02  0.00000000000E+00 0.  1.
</event>
<event>
12    1  0.1615162E-001  0.1895259E+03  0.7818608E-02  0.1159030E+00
         21   -1    0    0  501  502  0.00000000000E+00  0.00000000000E+00  0.10943961716E+04  0.10943961716E+04  0.00000000000E+00 0.  1.
         21   -1    0    0  502  503 -0.00000000000E+00 -0.00000000000E+00 -0.57219638802E+02  0.57219638802E+02  0.00000000000E+00 0.  1.
         -6    2    1    2    0  503 -0.90334642017E+01  0.79726057907E+02  0.14225480293E+03  0.23697359911E+03  0.17170384367E+03 0.  0.
        -24    2    3    3    0    0 -0.25495169233E+02 -0.82400259214E+01  0.22652812876E+02  0.87522116473E+02  0.80181477034E+02 0.  0.
          6    2    1    2  501    0  0.90334642017E+01 -0.79726057907E+02  0.89492172985E+03  0.91464221128E+03  0.17101936823E+03 0.  0.
         24    2    5    5    0    0  0.56270285822E+02 -0.97186587429E+02  0.63120348718E+03  0.64611737271E+03  0.80238639407E+02 0.  0.
          5    1    5    5  501    0 -0.47236821621E+02  0.17460529521E+02  0.26371824268E+03  0.26852483857E+03  0.47000000000E+01 0. -1.
        -11    1    6    6    0    0  0.58306674178E+02 -0.74941380327E+02  0.31188776469E+03  0.32602125162E+03  0.00000000000E+00 0.  1.
         12    1    6    6    0    0 -0.20363883560E+01 -0.22245207101E+02  0.31931572248E+03  0.32009612110E+03  0.00000000000E+00 0. -1.
         -5    1    3    3    0  503  0.16461705031E+02  0.87966083828E+02  0.11960199006E+03  0.14945148264E+03  0.47000000000E+01 0.  1.
         11    1    4    4    0    0  0.51387357623E+01  0.14334477392E+02  0.42113096156E+02  0.44781656012E+02  0.00000000000E+00 0. -1.
        -12    1    4    4    0    0 -0.30633904995E+02 -0.22574503314E+02 -0.19460283279E+02  0.42740460461E+02  0.00000000000E+00 0.  1.
</event>
<event>
12    1  0.1615162E-001  0.1864767E+03  0.7818608E-02  0.1161798E+00
         21   -1    0    0  503  502  0.00000000000E+00  0.00000000000E+00  0.17260613122E+04  0.17260613122E+04  0.00000000000E+00 0.  1.
         21   -1    0    0  501  503 -0.00000000000E+00 -0.00000000000E+00 -0.43474517447E+02  0.43474517447E+02  0.00000000000E+00 0.  1.
          6    2    1    2  501    0 -0.41323955452E+02  0.55492658147E+02  0.19186246295E+03  0.26719346466E+03  0.17260949703E+03 0.  0.
         24    2    3    3    0    0  0.47814357819E+01  0.62808842136E+02  0.42398057247E+02  0.11053800762E+03  0.80332080086E+02 0.  0.
         -6    2    1    2    0  502  0.41323955452E+02 -0.55492658147E+02  0.14907243318E+04  0.15023423650E+04  0.17316594298E+03 0.  0.
        -24    2    5    5    0    0 -0.53878851425E+01 -0.94087115532E+02  0.11062572662E+04  0.11131013822E+04  0.79423757742E+02 0.  0.
          5    1    3    3  501    0 -0.46105391234E+02 -0.73161839894E+01  0.14946440571E+03  0.15665545705E+03  0.47000000000E+01 0. -1.
        -11    1    4    4    0    0 -0.37174188697E+02  0.36821182973E+02  0.16877882814E+02  0.54978020600E+02  0.00000000000E+00 0.  1.
         12    1    4    4    0    0  0.41955624479E+02  0.25987659163E+02  0.25520174432E+02  0.55559987017E+02  0.00000000000E+00 0. -1.
         -5    1    5    5    0  502  0.46711840595E+02  0.38594457386E+02  0.38446706561E+03  0.38924098285E+03  0.47000000000E+01 0.  1.
         13    1    6    6    0    0 -0.47904488949E+01 -0.34335073283E+02  0.11667116760E+03  0.12171280543E+03  0.00000000000E+00 0. -1.
        -14    1    6    6    0    0 -0.59743624761E+00 -0.59752042249E+02  0.98958609862E+03  0.99138857673E+03  0.00000000000E+00 0.  1.
</event>
<event>
12    1  0.1615162E-001  0.1892139E+03  0.7818608E-02  0.1159187E+00
         21   -1    0    0  501  502  0.00000000000E+00  0.00000000000E+00  0.84401104766E+02  0.84401104766E+02  0.00000000000E+00 0. -1.
         21   -1    0    0  502  503 -0.00000000000E+00 -0.00000000000E+00 -0.44380002121E+03  0.44380002121E+03  0.00000000000E+00 0. -1.
         -6    2    1    2    0  503 -0.71296849190E+02  0.35346321418E+02 -0.12395119256E+03  0.22614560318E+03  0.17159642351E+03 0.  0.
        -24    2    3    3    0    0  0.11151649043E+02  0.11656887154E+02 -0.56895301591E+01  0.79971546149E+02  0.78120644810E+02 0.  0.
          6    2    1    2  501    0  0.71296849190E+02 -0.35346321418E+02 -0.23544772389E+03  0.30205552280E+03  0.17166626059E+03 0.  0.
         24    2    5    5    0    0 -0.10866406649E+01  0.11488996307E+02 -0.18732608369E+03  0.20320867739E+03  0.77907169856E+02 0.  0.
          5    1    5    5  501    0  0.72383489855E+02 -0.46835317725E+02 -0.48121640205E+02  0.98846845402E+02  0.47000000000E+01 0. -1.
        -11    1    6    6    0    0 -0.82657493242E+01 -0.13884464475E+02 -0.23100301374E+01  0.16322904303E+02  0.00000000000E+00 0.  1.
         12    1    6    6    0    0  0.71791086593E+01  0.25373460782E+02 -0.18501605355E+03  0.18688577309E+03  0.00000000000E+00 0. -1.
         -5    1    3    3    0  503 -0.82448498233E+02  0.23689434264E+02 -0.11826166240E+03  0.14617405703E+03  0.47000000000E+01 0.  1.
         13    1    4    4    0    0  0.93558229585E+01  0.35998172869E+02  0.21878306372E+02  0.43151595137E+02  0.00000000000E+00 0. -1.
        -14    1    4    4    0    0  0.17958260846E+01 -0.24341285715E+02 -0.27567836531E+02  0.36819951013E+02  0.00000000000E+00 0.  1.
</event>
<event>
12    1  0.1615162E-001  0.2340080E+03  0.7818608E-02  0.1124295E+00
         21   -1    0    0  501  502  0.00000000000E+00  0.00000000000E+00  0.65133332159E+02  0.65133332159E+02  0.00000000000E+00 0.  1.
         21   -1    0    0  502  503 -0.00000000000E+00 -0.00000000000E+00 -0.87636306592E+03  0.87636306592E+03  0.00000000000E+00 0.  1.
         -6    2    1    2    0  503  0.44626127085E+02  0.14682625203E+03 -0.30126616632E+03  0.38147219941E+03  0.17666436100E+03 0.  0.
        -24    2    3    3    0    0 -0.36839266814E+01 -0.27002931829E+01 -0.74955801313E+02  0.10591726781E+03  0.74694260630E+02 0.  0.
          6    2    1    2  501    0 -0.44626127085E+02 -0.14682625203E+03 -0.50996356744E+03  0.56002419867E+03  0.17324786716E+03 0.  0.
         24    2    5    5    0    0 -0.96845662083E+02 -0.11588419773E+03 -0.37889412724E+03  0.41550576139E+03  0.79221515659E+02 0.  0.
          5    1    5    5  501    0  0.52219534997E+02 -0.30942054295E+02 -0.13106944020E+03  0.14451843728E+03  0.47000000000E+01 0. -1.
        -11    1    6    6    0    0 -0.83445208896E+02 -0.12473512562E+03 -0.30544378513E+03  0.34032023203E+03  0.00000000000E+00 0.  1.
         12    1    6    6    0    0 -0.13400453187E+02  0.88509278846E+01 -0.73450342107E+02  0.75185529364E+02  0.00000000000E+00 0. -1.
         -5    1    3    3    0  503  0.48310053767E+02  0.14952654521E+03 -0.22631036501E+03  0.27555493160E+03  0.47000000000E+01 0.  1.
         11    1    4    4    0    0 -0.25562214130E+02 -0.33424791462E+01 -0.79489088541E+02  0.83565029499E+02  0.00000000000E+00 0. -1.
        -12    1    4    4    0    0  0.21878287448E+02  0.64218596327E+00  0.45332872281E+01  0.22352238312E+02  0.00000000000E+00 0.  1.
</event>
<event>
12    1  0.1615162E-001  0.2016445E+03  0.7818608E-02  0.1148810E+00
         21   -1    0    0  503  502  0.00000000000E+00  0.00000000000E+00  0.46552023706E+02  0.46552023706E+02  0.00000000000E+00 0.  1.
         21   -1    0    0  501  503 -0.00000000000E+00 -0.00000000000E+00 -0.87164274036E+03  0.87164274036E+03  0.00000000000E+00 0.  1.
          6    2    1    2  501    0  0.64075916964E+02 -0.83216786626E+02 -0.45288950844E+03  0.49488136425E+03  0.16961102887E+03 0.  0.
         24    2    3    3    0    0 -0.23737416941E+02 -0.67825979198E+02 -0.28513936032E+03  0.30485436417E+03  0.80423256165E+02 0.  0.
         -6    2    1    2    0  502 -0.64075916964E+02  0.83216786626E+02 -0.37220120821E+03  0.42331339981E+03  0.17213290899E+03 0.  0.
        -24    2    5    5    0    0 -0.24505224486E+02  0.12186902209E+02 -0.69477979132E+02  0.10982571647E+03  0.80532427021E+02 0.  0.
          5    1    3    3  501    0  0.87813333904E+02 -0.15390807428E+02 -0.16775014812E+03  0.19002700008E+03  0.47000000000E+01 0. -1.
        -13    1    4    4    0    0 -0.20998703508E+02 -0.16724741581E+02 -0.22183028930E+03  0.22344874083E+03  0.00000000000E+00 0.  1.
         14    1    4    4    0    0 -0.27387134322E+01 -0.51101237617E+02 -0.63309071029E+02  0.81405623342E+02  0.00000000000E+00 0. -1.
         -5    1    5    5    0  502 -0.39570692478E+02  0.71029884417E+02 -0.30272322908E+03  0.31348768334E+03  0.47000000000E+01 0.  1.
         11    1    6    6    0    0  0.13708906023E+02 -0.26426433332E+02 -0.32696826211E+02  0.44219598904E+02  0.00000000000E+00 0. -1.
        -12    1    6    6    0    0 -0.38214130508E+02  0.38613335541E+02 -0.36781152921E+02  0.65606117568E+02  0.00000000000E+00 0.  1.
</event>
<event>
12    1  0.1615162E-001  0.1918211E+03  0.7818608E-02  0.1156980E+00
         21   -1    0    0  501  502  0.00000000000E+00  0.00000000000E+00  0.34187241762E+02  0.34187241762E+02  0.00000000000E+00 0.  1.
         21   -1    0    0  502  503 -0.00000000000E+00 -0.00000000000E+00 -0.15771644052E+04  0.15771644052E+04  0.00000000000E+00 0. -1.
         -6    2    1    2    0  503 -0.69841294445E+02  0.44630463568E+02 -0.12263121487E+04  0.12411191755E+04  0.17223715361E+03 0.  0.
        -24    2    3    3    0    0 -0.77844666729E+02  0.81578220832E+02 -0.70312052380E+03  0.71654243461E+03  0.79622806696E+02 0.  0.
          6    2    1    2  501    0  0.69841294445E+02 -0.44630463568E+02 -0.31666501466E+03  0.37023247138E+03  0.17299036581E+03 0.  0.
         24    2    5    5    0    0 -0.19447248984E+02  0.76372904966E+00 -0.20181806514E+03  0.21776939872E+03  0.79461945762E+02 0.  0.
          5    1    5    5  501    0  0.89288543429E+02 -0.45394192618E+02 -0.11484694952E+03  0.15246307266E+03  0.47000000000E+01 0. -1.
        -11    1    6    6    0    0 -0.38762783158E+02 -0.52622843302E+01 -0.44892601671E+02  0.59544862745E+02  0.00000000000E+00 0.  1.
         12    1    6    6    0    0  0.19315534174E+02  0.60260133799E+01 -0.15692546347E+03  0.15822453597E+03  0.00000000000E+00 0. -1.
         -5    1    3    3    0  503  0.80033722841E+01 -0.36947757264E+02 -0.52319162493E+03  0.52457674094E+03  0.47000000000E+01 0.  1.
         11    1    4    4    0    0 -0.83254978082E+01  0.26501909201E+02 -0.39322003673E+03  0.39420002840E+03  0.00000000000E+00 0. -1.
        -12    1    4    4    0    0 -0.69519168921E+02  0.55076311631E+02 -0.30990048707E+03  0.32234240620E+03  0.00000000000E+00 0.  1.
</event>
<event>
12    1  0.1615162E-001  0.2220490E+03  0.7818608E-02  0.1132440E+00
         21   -1    0    0  501  502  0.00000000000E+00  0.00000000000E+00  0.13539759662E+03  0.13539759662E+03  0.00000000000E+00 0.  1.
         21   -1    0    0  502  503 -0.00000000000E+00 -0.00000000000E+00 -0.62459061592E+03  0.62459061592E+03  0.00000000000E+00 0.  1.
         -6    2    1    2    0  503  0.13342288177E+03 -0.43419180170E+02 -0.49041926176E+03  0.53834638231E+03  0.17210137843E+03 0.  0.
        -24    2    3    3    0    0  0.34982922324E+02  0.17576032965E+02 -0.11983346340E+03  0.15005941937E+03  0.81394401546E+02 0.  0.
          6    2    1    2  501    0 -0.13342288177E+03  0.43419180170E+02  0.12262424593E+01  0.22164183023E+03  0.17157128737E+03 0.  0.
         24    2    5    5    0    0 -0.12347991805E+03  0.87436726862E+02 -0.19927412864E+02  0.17158212510E+03  0.78427370889E+02 0.  0.
          5    1    5    5  501    0 -0.99429637192E+01 -0.44017546692E+02  0.21153655323E+02  0.50059705131E+02  0.47000000000E+01 0. -1.
        -11    1    6    6    0    0 -0.10209677424E+03  0.41389407945E+02  0.13207365282E+02  0.11095615755E+03  0.00000000000E+00 0.  1.
         12    1    6    6    0    0 -0.21383143806E+02  0.46047318917E+02 -0.33134778146E+02  0.60625967549E+02  0.00000000000E+00 0. -1.
         -5    1    3    3    0  503  0.98439959442E+02 -0.60995213136E+02 -0.37058579837E+03  0.38828696294E+03  0.47000000000E+01 0.  1.
         11    1    4    4    0    0  0.39397712589E+02 -0.12102069836E+02 -0.19993095205E+02  0.45807900054E+02  0.00000000000E+00 0. -1.
        -12    1    4    4    0    0 -0.44147902644E+01  0.29678102801E+02 -0.99840368191E+02  0.10425151932E+03  0.00000000000E+00 0.  1.
</event>
<event>
12    1  0.1615162E-001  0.1848593E+03  0.7818608E-02  0.1163332E+00
         21   -1    0    0  503  502  0.00000000000E+00  0.00000000000E+00  0.60525800912E+03  0.60525800912E+03  0.00000000000E+00 0. -1.
         21   -1    0    0  501  503 -0.00000000000E+00 -0.00000000000E+00 -0.70909517662E+02  0.70909517662E+02  0.00000000000E+00 0. -1.
          6    2    1    2  501    0  0.68161356025E+01  0.64985638046E+02  0.11315804742E+03  0.21619539869E+03  0.17223853767E+03 0.  0.
         24    2    3    3    0    0 -0.55968353272E+02  0.35129262955E+02  0.31167552041E+02  0.10859508963E+03  0.80342737736E+02 0.  0.
         -6    2    1    2    0  502 -0.68161356025E+01 -0.64985638046E+02  0.42119044403E+03  0.45997212809E+03  0.17292592524E+03 0.  0.
        -24    2    5    5    0    0  0.62250579999E+02 -0.26099644475E+02  0.20687439193E+03  0.23142061992E+03  0.78753813464E+02 0.  0.
          5    1    3    3  501    0  0.62784488875E+02  0.29856375091E+02  0.81990495381E+02  0.10760030906E+03  0.47000000000E+01 0. -1.
        -11    1    4    4    0    0 -0.59361421335E+02  0.20267187434E+02 -0.11065928365E+02  0.63694520957E+02  0.00000000000E+00 0.  1.
         12    1    4    4    0    0  0.33930680623E+01  0.14862075522E+02  0.42233480406E+02  0.44900568670E+02  0.00000000000E+00 0. -1.
         -5    1    5    5    0  502 -0.69066715602E+02 -0.38885993571E+02  0.21431605210E+03  0.22855150817E+03  0.47000000000E+01 0.  1.
         11    1    6    6    0    0  0.60063358408E+02  0.13252094285E+02  0.15098002459E+03  0.16302819650E+03  0.00000000000E+00 0. -1.
        -12    1    6    6    0    0  0.21872215911E+01 -0.39351738761E+02  0.55894367335E+02  0.68392423422E+02  0.00000000000E+00 0.  1.
</event>
<event>
12    1  0.1615162E-001  0.3142827E+03  0.7818608E-02  0.1078936E+00
         21   -1    0    0  503  502  0.00000000000E+00  0.00000000000E+00  0.76104022452E+03  0.76104022452E+03  0.00000000000E+00 0. -1.
         21   -1    0    0  501  503 -0.00000000000E+00 -0.00000000000E+00 -0.21179463394E+03  0.21179463394E+03  0.00000000000E+00 0.  1.
          6    2    1    2  501    0  0.69801849897E+02  0.24680078233E+03 -0.33405400779E+02  0.31082594314E+03  0.17237726566E+03 0.  0.
         24    2    3    3    0    0  0.37033962446E+02  0.24668637396E+03  0.26031618564E+01  0.26191322373E+03  0.79787711088E+02 0.  0.
         -6    2    1    2    0  502 -0.69801849897E+02 -0.24680078233E+03  0.58265099136E+03  0.66200891532E+03  0.18163342706E+03 0.  0.
        -24    2    5    5    0    0 -0.99263541343E+02 -0.16487266101E+03  0.50117509700E+03  0.54267484773E+03  0.79267064526E+02 0.  0.
          5    1    3    3  501    0  0.32767887451E+02  0.11440837574E+00 -0.36008562635E+02  0.48912719413E+02  0.47000000000E+01 0. -1.
        -11    1    4    4    0    0  0.26403428845E+02  0.14488315068E+03 -0.37519380169E+02  0.15197359078E+03  0.00000000000E+00 0.  1.
         12    1    4    4    0    0  0.10630533601E+02  0.10180322328E+03  0.40122542026E+02  0.10993963295E+03  0.00000000000E+00 0. -1.
         -5    1    5    5    0  502  0.29461691445E+02 -0.81928121324E+02  0.81475894362E+02  0.11933406759E+03  0.47000000000E+01 0.  1.
         13    1    6    6    0    0 -0.18171823381E+02 -0.10604855720E+03  0.27541019872E+03  0.29568105994E+03  0.00000000000E+00 0. -1.
        -14    1    6    6    0    0 -0.81091717961E+02 -0.58824103804E+02  0.22576489828E+03  0.24699378779E+03  0.00000000000E+00 0.  1.
</event>
<event>
12    1  0.1615162E-001  0.1977608E+03  0.7818608E-02  0.1153050E+00
         21   -1    0    0  501  502  0.00000000000E+00  0.00000000000E+00  0.42461629467E+03  0.42461629467E+03  0.00000000000E+00 0.  1.
         21   -1    0    0  502  503 -0.00000000000E+00 -0.00000000000E+00 -0.30238763540E+03  0.30238763540E+03  0.00000000000E+00 0.  1.
         -6    2    1    2    0  503 -0.65410258351E+02  0.56673952116E+02 -0.24384592160E+03  0.31395886367E+03  0.17781702913E+03 0.  0.
        -24    2    3    3    0    0 -0.41026632484E+01 -0.35833164894E+02 -0.12332179932E+03  0.15005541048E+03  0.77508144573E+02 0.  0.
          6    2    1    2  501    0  0.65410258351E+02 -0.56673952116E+02  0.36607458088E+03  0.41304506640E+03  0.17060243073E+03 0.  0.
         24    2    5    5    0    0  0.53460394133E+02 -0.50834819598E+02  0.10368136549E+03  0.15027295182E+03  0.79937111990E+02 0.  0.
          5    1    5    5  501    0  0.11949864218E+02 -0.58391325179E+01  0.26239321539E+03  0.26277211459E+03  0.47000000000E+01 0. -1.
        -13    1    6    6    0    0  0.55789025719E+02 -0.39118140773E+01  0.80137979541E+02  0.97723146925E+02  0.00000000000E+00 0.  1.
         14    1    6    6    0    0 -0.23286315860E+01 -0.46923005521E+02  0.23543385950E+02  0.52549804892E+02  0.00000000000E+00 0. -1.
         -5    1    3    3    0  503 -0.61307595103E+02  0.92507117010E+02 -0.12052412228E+03  0.16390345319E+03  0.47000000000E+01 0.  1.
         13    1    4    4    0    0  0.30467149896E+02 -0.90036660803E+01 -0.88818904814E+02  0.94329799523E+02  0.00000000000E+00 0. -1.
        -14    1    4    4    0    0 -0.34569813145E+02 -0.26829498813E+02 -0.34502894507E+02  0.55725610960E+02  0.00000000000E+00 0.  1.
</event>
<event>
12    1  0.1615162E-001  0.4003462E+03  0.7818608E-02  0.1043712E+00
         21   -1    0    0  503  502  0.00000000000E+00  0.00000000000E+00  0.18601793025E+03  0.18601793025E+03  0.00000000000E+00 0. -1.
         21   -1    0    0  501  503 -0.00000000000E+00 -0.00000000000E+00 -0.99935615939E+03  0.99935615939E+03  0.00000000000E+00 0.  1.
          6    2    1    2  501    0  0.23259537699E+03  0.27612358310E+03 -0.62746660308E+03  0.74398385508E+03  0.17161816948E+03 0.  0.
         24    2    3    3    0    0  0.23157159278E+03  0.29033358786E+03 -0.57970554853E+03  0.69392208623E+03  0.86892715077E+02 0.  0.
         -6    2    1    2    0  502 -0.23259537699E+03 -0.27612358310E+03 -0.18587162606E+03  0.44139023456E+03  0.17300935018E+03 0.  0.
        -24    2    5    5    0    0 -0.19057802317E+03 -0.24753769398E+03 -0.92746341675E+02  0.33519692182E+03  0.78486939353E+02 0.  0.
          5    1    3    3  501    0  0.10237842168E+01 -0.14210004756E+02 -0.47761054545E+02  0.50061768852E+02  0.47000000000E+01 0. -1.
        -13    1    4    4    0    0  0.22398101721E+03  0.28957847073E+03 -0.58045338505E+03  0.68625747282E+03  0.00000000000E+00 0.  1.
         14    1    4    4    0    0  0.75905755624E+01  0.75511713066E+00  0.74783651788E+00  0.76646134088E+01  0.00000000000E+00 0. -1.
         -5    1    5    5    0  502 -0.42017353818E+02 -0.28585889125E+02 -0.93125284384E+02  0.10619331274E+03  0.47000000000E+01 0.  1.
         11    1    6    6    0    0 -0.10755567100E+03 -0.18670375249E+03 -0.86178260491E+02  0.23206293573E+03  0.00000000000E+00 0. -1.
        -12    1    6    6    0    0 -0.83022352171E+02 -0.60833941489E+02 -0.65680811834E+01  0.10313398609E+03  0.00000000000E+00 0.  1.
</event>
<event>
12    1  0.1615162E-001  0.1963936E+03  0.7818608E-02  0.1153498E+00
         21   -1    0    0  503  502  0.00000000000E+00  0.00000000000E+00  0.58480292426E+03  0.58480292426E+03  0.00000000000E+00 0. -1.
         21   -1    0    0  501  503 -0.00000000000E+00 -0.00000000000E+00 -0.65868456206E+02  0.65868456206E+02  0.00000000000E+00 0.  1.
          6    2    1    2  501    0 -0.94848214203E+02 -0.12838346531E+02  0.22228687469E+03  0.29661745059E+03  0.17149183786E+03 0.  0.
         24    2    3    3    0    0 -0.66827600917E+02 -0.73605610291E+02  0.16442620745E+03  0.20802985592E+03  0.79729098511E+02 0.  0.
         -6    2    1    2    0  502  0.94848214203E+02  0.12838346531E+02  0.29664759336E+03  0.35405392988E+03  0.16790885545E+03 0.  0.
        -24    2    5    5    0    0  0.71613446980E+02 -0.52946269277E+02  0.14803443487E+03  0.18981194085E+03  0.78629420465E+02 0.  0.
          5    1    3    3  501    0 -0.28020613286E+02  0.60767263760E+02  0.57860667246E+02  0.88587594662E+02  0.47000000000E+01 0. -1.
        -13    1    4    4    0    0  0.30717498870E+01 -0.11979280586E+02 -0.60344390392E+01  0.13760569220E+02  0.00000000000E+00 0.  1.
         14    1    4    4    0    0 -0.69899350804E+02 -0.61626329705E+02  0.17046064649E+03  0.19426928670E+03  0.00000000000E+00 0. -1.
         -5    1    5    5    0  502  0.23234767223E+02  0.65784615808E+02  0.14861315849E+03  0.16424198904E+03  0.47000000000E+01 0.  1.
         13    1    6    6    0    0  0.45305328561E+02 -0.11235669122E+02  0.12859499591E+03  0.13680455413E+03  0.00000000000E+00 0. -1.
        -14    1    6    6    0    0  0.26308118420E+02 -0.41710600155E+02  0.19439438960E+02  0.53007386722E+02  0.00000000000E+00 0.  1.
</event>
<event>
12    1  0.1615162E-001  0.3282581E+03  0.7818608E-02  0.1071934E+00
         21   -1    0    0  501  502  0.00000000000E+00  0.00000000000E+00  0.49823100239E+03  0.49823100239E+03  0.00000000000E+00 0.  1.
         21   -1    0    0  502  503 -0.00000000000E+00 -0.00000000000E+00 -0.33535431029E+03  0.33535431029E+03  0.00000000000E+00 0.  1.
         -6    2    1    2    0  503  0.19326708465E+03  0.20197404361E+03 -0.16709132484E+03  0.36814759010E+03  0.17166087778E+03 0.  0.
        -24    2    3    3    0    0  0.63105657411E+02  0.26899989593E+02 -0.27094259042E+02  0.10889059412E+03  0.80106985827E+02 0.  0.
          6    2    1    2  501    0 -0.19326708465E+03 -0.20197404361E+03  0.32996801694E+03  0.46543772258E+03  0.17206888472E+03 0.  0.
         24    2    5    5    0    0 -0.13755566957E+02 -0.56330846757E+02  0.12703304645E+03  0.15779991927E+03  0.73491766290E+02 0.  0.
          5    1    5    5  501    0 -0.17951151770E+03 -0.14564319685E+03  0.20293497050E+03  0.30763780331E+03  0.47000000000E+01 0. -1.
        -13    1    6    6    0    0 -0.43456190494E+02 -0.25423994078E+02  0.75849702210E+02  0.91038438544E+02  0.00000000000E+00 0.  1.
         14    1    6    6    0    0  0.29700623537E+02 -0.30906852679E+02  0.51183344235E+02  0.66761480722E+02  0.00000000000E+00 0. -1.
         -5    1    3    3    0  503  0.13016142724E+03  0.17507405402E+03 -0.13999706579E+03  0.25925699598E+03  0.47000000000E+01 0.  1.
         13    1    4    4    0    0  0.56584423611E+02 -0.10207904401E+02 -0.38885096659E+02  0.69412167881E+02  0.00000000000E+00 0. -1.
        -14    1    4    4    0    0  0.65212337993E+01  0.37107893994E+02  0.11790837617E+02  0.39478426243E+02  0.00000000000E+00 0.  1.
</event>
<event>
12    1  0.1615162E-001  0.1903157E+03  0.7818608E-02  0.1158204E+00
         21   -1    0    0  503  502  0.00000000000E+00  0.00000000000E+00  0.10421190302E+03  0.10421190302E+03  0.00000000000E+00 0.  1.
         21   -1    0    0  501  503 -0.00000000000E+00 -0.00000000000E+00 -0.40025041276E+03  0.40025041276E+03  0.00000000000E+00 0.  1.
          6    2    1    2  501    0  0.22089775125E+02  0.79041160476E+02 -0.23976478836E+03  0.30611632137E+03  0.17171076045E+03 0.  0.
         24    2    3    3    0    0 -0.51901632690E+01  0.80151071247E+02 -0.66719804789E+02  0.13086768862E+03  0.78890351482E+02 0.  0.
         -6    2    1    2    0  502 -0.22089775125E+02 -0.79041160476E+02 -0.56273721374E+02  0.19834599441E+03  0.17157779159E+03 0.  0.
        -24    2    5    5    0    0 -0.74464925688E+02 -0.79784658474E+02 -0.31795272291E+02  0.14033742905E+03  0.82298467579E+02 0.  0.
          5    1    3    3  501    0  0.27279938394E+02 -0.11099107704E+01 -0.17304498357E+03  0.17524863275E+03  0.47000000000E+01 0. -1.
        -11    1    4    4    0    0 -0.31021992894E+02  0.33003466439E+02 -0.62163105962E+02  0.76914527775E+02  0.00000000000E+00 0.  1.
         12    1    4    4    0    0  0.25831829625E+02  0.47147604808E+02 -0.45566988274E+01  0.53953160845E+02  0.00000000000E+00 0. -1.
         -5    1    5    5    0  502  0.52375150563E+02  0.74349799817E+00 -0.24478449083E+02  0.58008565362E+02  0.47000000000E+01 0.  1.
         13    1    6    6    0    0 -0.75274745199E+02 -0.80458175531E+02 -0.50782847644E+02  0.12132066143E+03  0.00000000000E+00 0. -1.
        -14    1    6    6    0    0  0.80981951151E+00  0.67351705713E+00  0.18987575353E+02  0.19016767618E+02  0.00000000000E+00 0.  1.
</event>
<event>
12    1  0.1615162E-001  0.2831989E+03  0.7818608E-02  0.1094507E+00
         21   -1    0    0  503  502  0.00000000000E+00  0.00000000000E+00  0.63968187201E+03  0.63968187201E+03  0.00000000000E+00 0. -1.
         21   -1    0    0  501  503 -0.00000000000E+00 -0.00000000000E+00 -0.13083256573E+03  0.13083256573E+03  0.00000000000E+00 0. -1.
          6    2    1    2  501    0 -0.13816435558E+03 -0.16974397247E+03  0.16198976342E+03  0.32272745963E+03  0.17323372767E+03 0.  0.
         24    2    3    3    0    0 -0.12260305688E+03 -0.13452856513E+03  0.18982223858E+03  0.27498842314E+03  0.80353632208E+02 0.  0.
         -6    2    1    2    0  502  0.13816435558E+03  0.16974397247E+03  0.34685954285E+03  0.44778697811E+03  0.17971986521E+03 0.  0.
        -24    2    5    5    0    0  0.76916914817E+02  0.16650300110E+03  0.17714373098E+03  0.26726745092E+03  0.80078260070E+02 0.  0.
          5    1    3    3  501    0 -0.15561298697E+02 -0.35215407348E+02 -0.27832475159E+02  0.47739036493E+02  0.47000000000E+01 0. -1.
        -13    1    4    4    0    0 -0.30658000504E+02  0.55628042402E+01  0.25055168724E+02  0.39982737096E+02  0.00000000000E+00 0.  1.
         14    1    4    4    0    0 -0.91945056377E+02 -0.14009136937E+03  0.16476706986E+03  0.23500568604E+03  0.00000000000E+00 0. -1.
         -5    1    5    5    0  502  0.61247440760E+02  0.32409713700E+01  0.16971581187E+03  0.18051952718E+03  0.47000000000E+01 0.  1.
         11    1    6    6    0    0  0.46363083108E+02  0.63724542054E+02  0.12565387896E+03  0.14832144158E+03  0.00000000000E+00 0. -1.
        -12    1    6    6    0    0  0.30553831709E+02  0.10277845905E+03  0.51489852015E+02  0.11894600934E+03  0.00000000000E+00 0.  1.
</event>
<event>
12    1  0.1615162E-001  0.2032091E+03  0.7818608E-02  0.1147761E+00
         21   -1    0    0  503  502  0.00000000000E+00  0.00000000000E+00  0.10068028502E+03  0.10068028502E+03  0.00000000000E+00 0.  1.
         21   -1    0    0  501  503 -0.00000000000E+00 -0.00000000000E+00 -0.40822208811E+03  0.40822208811E+03  0.00000000000E+00 0.  1.
          6    2    1    2  501    0  0.94683837872E+02  0.44247534449E+02 -0.12735143756E+03  0.23981728825E+03  0.17427297448E+03 0.  0.
         24    2    3    3    0    0  0.48904275047E+02  0.64287792068E+02 -0.14711549349E+03  0.18587205487E+03  0.79880561016E+02 0.  0.
         -6    2    1    2    0  502 -0.94683837872E+02 -0.44247534449E+02 -0.18019036552E+03  0.26908508487E+03  0.17033890223E+03 0.  0.
        -24    2    5    5    0    0  0.15526376691E+02 -0.58634568446E+02 -0.73474218299E+02  0.11493027885E+03  0.64276179507E+02 0.  0.
          5    1    3    3  501    0  0.45779562825E+02 -0.20040257619E+02  0.19764055930E+02  0.53945233382E+02  0.47000000000E+01 0. -1.
        -11    1    4    4    0    0 -0.10307004672E+01  0.41549356989E+02 -0.17452409364E+02  0.45077688519E+02  0.00000000000E+00 0.  1.
         12    1    4    4    0    0  0.49934975515E+02  0.22738435079E+02 -0.12966308413E+03  0.14079436635E+03  0.00000000000E+00 0. -1.
         -5    1    5    5    0  502 -0.11021021456E+03  0.14387033997E+02 -0.10671614722E+03  0.15415480602E+03  0.47000000000E+01 0.  1.
         11    1    6    6    0    0  0.37701796800E+02 -0.22258923950E+02 -0.49349849693E+02  0.65971909492E+02  0.00000000000E+00 0. -1.
        -12    1    6    6    0    0 -0.22175420109E+02 -0.36375644497E+02 -0.24124368606E+02  0.48958369358E+02  0.00000000000E+00 0.  1.
</event>
<event>
12    1  0.1615162E-001  0.2522928E+03  0.7818608E-02  0.1112458E+00
         21   -1    0    0  503  502  0.00000000000E+00  0.00000000000E+00  0.39450672476E+03  0.39450672476E+03  0.00000000000E+00 0.  1.
         21   -1    0    0  501  503 -0.00000000000E+00 -0.00000000000E+00 -0.15927025156E+03  0.15927025156E+03  0.00000000000E+00 0. -1.
          6    2    1    2  501    0 -0.10738757807E+03 -0.14927708493E+03  0.13104230413E+03  0.28429513291E+03  0.17273070693E+03 0.  0.
         24    2    3    3    0    0 -0.22220560802E+02 -0.14411630798E+03  0.75009191732E+02  0.18210974191E+03  0.79210578258E+02 0.  0.
         -6    2    1    2    0  502  0.10738757807E+03  0.14927708493E+03  0.10419416907E+03  0.26948184340E+03  0.16717744778E+03 0.  0.
        -24    2    5    5    0    0  0.10501060145E+02  0.26357032650E+02  0.40668013859E+01  0.83621905902E+02  0.78556469109E+02 0.  0.
          5    1    3    3  501    0 -0.85167017266E+02 -0.51607769549E+01  0.56033112401E+02  0.10218539100E+03  0.47000000000E+01 0. -1.
        -13    1    4    4    0    0  0.20161591409E+02 -0.40597881513E+02  0.50002434819E+02  0.67490156610E+02  0.00000000000E+00 0.  1.
         14    1    4    4    0    0 -0.42382152211E+02 -0.10351842646E+03  0.25006756914E+02  0.11461958530E+03  0.00000000000E+00 0. -1.
         -5    1    5    5    0  502  0.96886517923E+02  0.12292005228E+03  0.10012736768E+03  0.18585993750E+03  0.47000000000E+01 0.  1.
         13    1    6    6    0    0  0.42708999833E+02  0.28135150572E+02  0.46983691672E+01  0.51358738665E+02  0.00000000000E+00 0. -1.
        -14    1    6    6    0    0 -0.32207939688E+02 -0.17781179216E+01 -0.63156778124E+00  0.32263167237E+02  0.00000000000E+00 0.  1.
</event>
<event>
12    1  0.1615162E-001  0.2732913E+03  0.7818608E-02  0.1099799E+00
         21   -1    0    0  503  502  0.00000000000E+00  0.00000000000E+00  0.87957092396E+02  0.87957092396E+02  0.00000000000E+00 0. -1.
         21   -1    0    0  501  503 -0.00000000000E+00 -0.00000000000E+00 -0.87081902414E+03  0.87081902414E+03  0.00000000000E+00 0.  1.
          6    2    1    2  501    0  0.20866886798E+03  0.63518011891E+01 -0.47875980474E+03  0.54991641763E+03  0.17208740193E+03 0.  0.
         24    2    3    3    0    0  0.37721288928E+02  0.34259039348E+02 -0.16405483099E+03  0.19066274788E+03  0.82714680942E+02 0.  0.
         -6    2    1    2    0  502 -0.20866886798E+03 -0.63518011891E+01 -0.30410212700E+03  0.40885969890E+03  0.17636640241E+03 0.  0.
        -24    2    5    5    0    0 -0.79112825912E+02  0.38865234364E+02 -0.69950531155E+02  0.13742202986E+03  0.78882138762E+02 0.  0.
          5    1    3    3  501    0  0.17094757905E+03 -0.27907238159E+02 -0.31470497375E+03  0.35925366975E+03  0.47000000000E+01 0. -1.
        -11    1    4    4    0    0  0.54091529557E+01  0.14167200504E+02 -0.14895777658E+03  0.14972771190E+03  0.00000000000E+00 0.  1.
         12    1    4    4    0    0  0.32312135972E+02  0.20091838844E+02 -0.15097054407E+02  0.40935035983E+02  0.00000000000E+00 0. -1.
         -5    1    5    5    0  502 -0.12955604206E+03 -0.45217035553E+02 -0.23415159585E+03  0.27143766904E+03  0.47000000000E+01 0.  1.
         13    1    6    6    0    0 -0.38529282883E+02  0.38164262562E+02 -0.79012508254E+02  0.95833152077E+02  0.00000000000E+00 0. -1.
        -14    1    6    6    0    0 -0.40583543029E+02  0.70097180205E+00  0.90619770983E+01  0.41588877782E+02  0.00000000000E+00 0.  1.
</event>
<event>
12    1  0.1615162E-001  0.2960411E+03  0.7818608E-02  0.1087336E+00
         21   -1    0    0  503  502  0.00000000000E+00  0.00000000000E+00  0.59811695642E+03  0.59811695642E+03  0.00000000000E+00 0.  1.
         21   -1    0    0  501  503 -0.00000000000E+00 -0.00000000000E+00 -0.14908142601E+03  0.14908142601E+03  0.00000000000E+00 0. -1.
          6    2    1    2  501    0 -0.24033771860E+03  0.79443031925E+01  0.27671232704E+03  0.40465553859E+03  0.17132151658E+03 0.  0.
         24    2    3    3    0    0 -0.62977592849E+02  0.37421468203E+02  0.32998794763E+02  0.10176299448E+03  0.62451926364E+02 0.  0.
         -6    2    1    2    0  502  0.24033771860E+03 -0.79443031925E+01  0.17232320337E+03  0.34254284383E+03  0.17267015522E+03 0.  0.
        -24    2    5    5    0    0  0.22743066298E+03 -0.32791987639E+02  0.19036432545E+03  0.30890400329E+03  0.79894217118E+02 0.  0.
          5    1    3    3  501    0 -0.17736012575E+03 -0.29477165010E+02  0.24371353228E+03  0.30289254411E+03  0.47000000000E+01 0. -1.
        -11    1    4    4    0    0 -0.31582451956E+02  0.47171855501E+02  0.38277468892E+02  0.68467509432E+02  0.00000000000E+00 0.  1.
         12    1    4    4    0    0 -0.31395140893E+02 -0.97503872981E+01 -0.52786741299E+01  0.33295485050E+02  0.00000000000E+00 0. -1.
         -5    1    5    5    0  502  0.12907055615E+02  0.24847684446E+02 -0.18041122074E+02  0.33638840537E+02  0.47000000000E+01 0.  1.
         13    1    6    6    0    0  0.13262729929E+03 -0.98801138741E+01  0.59514478181E+02  0.14570377579E+03  0.00000000000E+00 0. -1.
        -14    1    6    6    0    0  0.94803363698E+02 -0.22911873765E+02  0.13084984727E+03  0.16320022750E+03  0.00000000000E+00 0.  1.
</event>
<event>
12    1  0.1615162E-001  0.2171868E+03  0.7818608E-02  0.1136031E+00
         21   -1    0    0  503  502  0.00000000000E+00  0.00000000000E+00  0.22331345842E+02  0.22331345842E+02  0.00000000000E+00 0. -1.
         21   -1    0    0  501  503 -0.00000000000E+00 -0.00000000000E+00 -0.24970506612E+04  0.24970506612E+04  0.00000000000E+00 0.  1.
          6    2    1    2  501    0 -0.10827743770E+03 -0.77207253023E+02 -0.17325186214E+04  0.17460567229E+04  0.17148860745E+03 0.  0.
         24    2    3    3    0    0 -0.52002465429E+02 -0.11020563324E+03 -0.12098170760E+04  0.12192790078E+04  0.90190926732E+02 0.  0.
         -6    2    1    2    0  502  0.10827743770E+03  0.77207253023E+02 -0.74220069395E+03  0.77332528418E+03  0.17171243875E+03 0.  0.
        -24    2    5    5    0    0  0.20081531660E+02  0.90397925351E+02 -0.51682589400E+03  0.53090333358E+03  0.78576663715E+02 0.  0.
          5    1    3    3  501    0 -0.56274972274E+02  0.32998380217E+02 -0.52270154537E+03  0.52677771511E+03  0.47000000000E+01 0. -1.
        -13    1    4    4    0    0 -0.11194259218E+02 -0.70098591743E+02 -0.32732619324E+03  0.33493515907E+03  0.00000000000E+00 0.  1.
         14    1    4    4    0    0 -0.40808206211E+02 -0.40107041497E+02 -0.88249088281E+03  0.88434384869E+03  0.00000000000E+00 0. -1.
         -5    1    5    5    0  502  0.88195906043E+02 -0.13190672329E+02 -0.22537479996E+03  0.24242195060E+03  0.47000000000E+01 0.  1.
         13    1    6    6    0    0 -0.23496257199E+02  0.29353610054E+01 -0.94878102482E+02  0.97788265028E+02  0.00000000000E+00 0. -1.
        -14    1    6    6    0    0  0.43577788859E+02  0.87462564346E+02 -0.42194779151E+03  0.43311506855E+03  0.00000000000E+00 0.  1.
</event>
<event>
12    1  0.1615162E-001  0.1845086E+03  0.7818608E-02  0.1164023E+00
         21   -1    0    0  503  502  0.00000000000E+00  0.00000000000E+00  0.10404267631E+04  0.10404267631E+04  0.00000000000E+00 0. -1.
         21   -1    0    0  501  503 -0.00000000000E+00 -0.00000000000E+00 -0.51396457643E+02  0.51396457643E+02  0.00000000000E+00 0. -1.
          6    2    1    2  501    0 -0.53074544443E+02 -0.30138678843E+02  0.16391515926E+03  0.24680277674E+03  0.17412117602E+03 0.  0.
         24    2    3    3    0    0  0.31518326809E+02  0.69200396975E+01  0.48447307556E+02  0.98869625402E+02  0.79917265616E+02 0.  0.
         -6    2    1    2    0  502  0.53074544443E+02  0.30138678843E+02  0.82511514620E+03  0.84502044401E+03  0.17181181297E+03 0.  0.
        -24    2    5    5    0    0  0.45669925311E+02  0.22571317750E+02  0.21835575997E+03  0.23815049409E+03  0.80257170772E+02 0.  0.
          5    1    3    3  501    0 -0.84592871252E+02 -0.37058718540E+02  0.11546785171E+03  0.14793315134E+03  0.47000000000E+01 0. -1.
        -11    1    4    4    0    0  0.89085805329E+01 -0.27510563412E+02  0.49877944916E+02  0.57654169801E+02  0.00000000000E+00 0.  1.
         12    1    4    4    0    0  0.22609746276E+02  0.34430603110E+02 -0.14306373604E+01  0.41215455601E+02  0.00000000000E+00 0. -1.
         -5    1    5    5    0  502  0.74046191321E+01  0.75673610924E+01  0.60675938623E+03  0.60686994992E+03  0.47000000000E+01 0.  1.
         11    1    6    6    0    0  0.50044840546E+02  0.60925584453E+01  0.21492567983E+03  0.22075926523E+03  0.00000000000E+00 0. -1.
        -12    1    6    6    0    0 -0.43749152355E+01  0.16478759305E+02  0.34300801403E+01  0.17391228862E+02  0.00000000000E+00 0.  1.
</event>
<event>
12    1  0.1615162E-001  0.2054600E+03  0.7818608E-02  0.1145359E+00
         21   -1    0    0  503  502  0.00000000000E+00  0.00000000000E+00  0.10467405287E+04  0.10467405287E+04  0.00000000000E+00 0. -1.
         21   -1    0    0  501  503 -0.00000000000E+00 -0.00000000000E+00 -0.25325758045E+03  0.25325758045E+03  0.00000000000E+00 0. -1.
          6    2    1    2  501    0  0.24205822554E+01 -0.11217478911E+03 -0.19956924986E+03  0.28591405416E+03  0.17125979781E+03 0.  0.
         24    2    3    3    0    0 -0.52852188365E+02 -0.51767540159E+02 -0.14605812059E+03  0.18798731698E+03  0.92374372681E+02 0.  0.
         -6    2    1    2    0  502 -0.24205822554E+01  0.11217478911E+03  0.99305219815E+03  0.10140840550E+04  0.17211844723E+03 0.  0.
        -24    2    5    5    0    0  0.45941293121E+01  0.14619971447E+01  0.21065385005E+03  0.22384624677E+03  0.75556959929E+02 0.  0.
          5    1    3    3  501    0  0.55272770621E+02 -0.60407248949E+02 -0.53511129272E+02  0.97926737175E+02  0.47000000000E+01 0. -1.
        -13    1    4    4    0    0 -0.14780339133E+02 -0.67913823545E+02 -0.57336415722E+02  0.90101112209E+02  0.00000000000E+00 0.  1.
         14    1    4    4    0    0 -0.38071849232E+02  0.16146283386E+02 -0.88721704865E+02  0.97886204775E+02  0.00000000000E+00 0. -1.
         -5    1    5    5    0  502 -0.70147115675E+01  0.11071279196E+03  0.78239834810E+03  0.79023780826E+03  0.47000000000E+01 0.  1.
         13    1    6    6    0    0 -0.19685129055E+02 -0.17125705396E+02  0.17474566286E+03  0.17668288197E+03  0.00000000000E+00 0. -1.
        -14    1    6    6    0    0  0.24279258367E+02  0.18587702541E+02  0.35908187186E+02  0.47163364803E+02  0.00000000000E+00 0.  1.
</event>
<event>
12    1  0.1615162E-001  0.1868366E+03  0.7818608E-02  0.1161449E+00
         21   -1    0    0  503  502  0.00000000000E+00  0.00000000000E+00  0.86156840335E+02  0.86156840335E+02  0.00000000000E+00 0.  1.
         21   -1    0    0  501  503 -0.00000000000E+00 -0.00000000000E+00 -0.41085230958E+03  0.41085230958E+03  0.00000000000E+00 0.  1.
          6    2    1    2  501    0 -0.45416766411E+02 -0.56805857427E+02 -0.19415961678E+03  0.26945477286E+03  0.17209976676E+03 0.  0.
         24    2    3    3    0    0 -0.50825042437E+02 -0.73386192215E+02 -0.21240902507E+03  0.24377817157E+03  0.79633440542E+02 0.  0.
         -6    2    1    2    0  502  0.45416766411E+02  0.56805857427E+02 -0.13053585246E+03  0.22755437705E+03  0.17161526048E+03 0.  0.
        -24    2    5    5    0    0  0.86954341983E+01  0.10016596930E+03 -0.10291623494E+03  0.16420227517E+03  0.79131559904E+02 0.  0.
          5    1    3    3  501    0  0.54082760254E+01  0.16580334788E+02  0.18249408291E+02  0.25676601298E+02  0.47000000000E+01 0. -1.
        -11    1    4    4    0    0  0.67029695114E+01 -0.57456320567E+02 -0.12725653089E+03  0.13978692081E+03  0.00000000000E+00 0.  1.
         12    1    4    4    0    0 -0.57528011948E+02 -0.15929871648E+02 -0.85152494179E+02  0.10399125076E+03  0.00000000000E+00 0. -1.
         -5    1    5    5    0  502  0.36721332213E+02 -0.43360111877E+02 -0.27619617523E+02  0.63352101888E+02  0.47000000000E+01 0.  1.
         11    1    6    6    0    0 -0.12590993501E+02  0.29627289835E+01 -0.49707281307E+02  0.51362678039E+02  0.00000000000E+00 0. -1.
        -12    1    6    6    0    0  0.21286427699E+02  0.97203240320E+02 -0.53208953633E+02  0.11283959713E+03  0.00000000000E+00 0.  1.
</event>
<event>
12    1  0.1615162E-001  0.2396476E+03  0.7818608E-02  0.1120076E+00
         21   -1    0    0  501  502  0.00000000000E+00  0.00000000000E+00  0.13018185115E+04  0.13018185115E+04  0.00000000000E+00 0. -1.
         21   -1    0    0  502  503 -0.00000000000E+00 -0.00000000000E+00 -0.44251144087E+02  0.44251144087E+02  0.00000000000E+00 0. -1.
         -6    2    1    2    0  503 -0.21208031757E+02  0.16378647464E+03  0.67229373510E+03  0.71363293893E+03  0.17325505875E+03 0.  0.
        -24    2    3    3    0    0 -0.42422326778E+02  0.17763989281E+03  0.48416837342E+03  0.52375085653E+03  0.80872495755E+02 0.  0.
          6    2    1    2  501    0  0.21208031757E+02 -0.16378647464E+03  0.58527363232E+03  0.63243671666E+03  0.17365248634E+03 0.  0.
         24    2    5    5    0    0  0.15443501689E+02 -0.52662513005E+01  0.18618749139E+03  0.20295595005E+03  0.79114477572E+02 0.  0.
          5    1    5    5  501    0  0.57645300673E+01 -0.15852022334E+03  0.39908614092E+03  0.42948076661E+03  0.47000000000E+01 0. -1.
        -13    1    6    6    0    0 -0.15724459603E+02 -0.58110295051E+01  0.16360838417E+03  0.16446498127E+03  0.00000000000E+00 0.  1.
         14    1    6    6    0    0  0.31167961292E+02  0.54477820460E+00  0.22579107223E+02  0.38490968777E+02  0.00000000000E+00 0. -1.
         -5    1    3    3    0  503  0.21214295021E+02 -0.13853418173E+02  0.18812536168E+03  0.18988208240E+03  0.47000000000E+01 0.  1.
         11    1    4    4    0    0 -0.10019310064E+01  0.12408089283E+03  0.37785908632E+03  0.39771165553E+03  0.00000000000E+00 0. -1.
        -12    1    4    4    0    0 -0.41420395772E+02  0.53558999986E+02  0.10630928711E+03  0.12603920101E+03  0.00000000000E+00 0.  1.
</event>
<event>
12    1  0.1615162E-001  0.2098471E+03  0.7818608E-02  0.1142124E+00
         21   -1    0    0  503  502  0.00000000000E+00  0.00000000000E+00  0.12071336151E+03  0.12071336151E+03  0.00000000000E+00 0. -1.
         21   -1    0    0  501  503 -0.00000000000E+00 -0.00000000000E+00 -0.45065160656E+03  0.45065160656E+03  0.00000000000E+00 0.  1.
          6    2    1    2  501    0  0.25793841041E+01 -0.11696601516E+03 -0.29308472294E+03  0.36046423084E+03  0.17420707497E+03 0.  0.
         24    2    3    3    0    0  0.19498335551E+02 -0.12946238316E+03 -0.30085136036E+03  0.33755526343E+03  0.79317848557E+02 0.  0.
         -6    2    1    2    0  502 -0.25793841041E+01  0.11696601516E+03 -0.36853522113E+02  0.21090073723E+03  0.17156117552E+03 0.  0.
        -24    2    5    5    0    0 -0.17460833422E+02  0.22195989649E+02  0.29839891673E+02  0.93969489429E+02  0.84512147933E+02 0.  0.
          5    1    3    3  501    0 -0.16918951447E+02  0.12496367995E+02  0.77666374132E+01  0.22908967411E+02  0.47000000000E+01 0. -1.
        -11    1    4    4    0    0 -0.59547541958E+00  0.54722522367E+00 -0.83421140447E+02  0.83425060503E+02  0.00000000000E+00 0.  1.
         12    1    4    4    0    0  0.20093810971E+02 -0.13000960838E+03 -0.21743021991E+03  0.25413020293E+03  0.00000000000E+00 0. -1.
         -5    1    5    5    0  502  0.14881449318E+02  0.94770025511E+02 -0.66693413786E+02  0.11693124780E+03  0.47000000000E+01 0.  1.
         13    1    6    6    0    0  0.30576778989E+02  0.25843493086E+02  0.20183963750E+02  0.44835454061E+02  0.00000000000E+00 0. -1.
        -14    1    6    6    0    0 -0.48037612412E+02 -0.36475034369E+01  0.96559279231E+01  0.49134035368E+02  0.00000000000E+00 0.  1.
</event>
<event>
12    1  0.1615162E-001  0.1797950E+03  0.7818608E-02  0.1168008E+00
         21   -1    0    0  503  502  0.00000000000E+00  0.00000000000E+00  0.56141677974E+03  0.56141677974E+03  0.00000000000E+00 0. -1.
         21   -1    0    0  501  503 -0.00000000000E+00 -0.00000000000E+00 -0.60478859397E+02  0.60478859397E+02  0.00000000000E+00 0. -1.
          6    2    1    2  501    0 -0.20514643407E+02  0.52605781803E+02  0.31865983838E+03  0.36588293337E+03  0.17069859242E+03 0.  0.
         24    2    3    3    0    0  0.21158479257E+02  0.77118068971E+02  0.21422150295E+03  0.25070065485E+03  0.10278661494E+03 0.  0.
         -6    2    1    2    0  502  0.20514643407E+02 -0.52605781803E+02  0.18227808196E+03  0.25601270577E+03  0.17067216376E+03 0.  0.
        -24    2    5    5    0    0  0.76015395911E+02 -0.39903782148E+02  0.15057483972E+03  0.19067619307E+03  0.79460531097E+02 0.  0.
          5    1    3    3  501    0 -0.41673122664E+02 -0.24512287168E+02  0.10443833544E+03  0.11518227851E+03  0.47000000000E+01 0. -1.
        -13    1    4    4    0    0 -0.13149722410E+02  0.91421496420E+02  0.14052505231E+03  0.16816092154E+03  0.00000000000E+00 0.  1.
         14    1    4    4    0    0  0.34308201666E+02 -0.14303427449E+02  0.73696450638E+02  0.82539733311E+02  0.00000000000E+00 0. -1.
         -5    1    5    5    0  502 -0.55500752505E+02 -0.12701999655E+02  0.31703242246E+02  0.65336512707E+02  0.47000000000E+01 0.  1.
         13    1    6    6    0    0  0.49751450559E+02 -0.49218527397E+02  0.49215844114E+02  0.85556236381E+02  0.00000000000E+00 0. -1.
        -14    1    6    6    0    0  0.26263945352E+02  0.93147452486E+01  0.10135899560E+03  0.10511995669E+03  0.00000000000E+00 0.  1.
</event>
<event>
12    1  0.1615162E-001  0.1934450E+03  0.7818608E-02  0.1155738E+00
         21   -1    0    0  501  502  0.00000000000E+00  0.00000000000E+00  0.10355460232E+04  0.10355460232E+04  0.00000000000E+00 0. -1.
         21   -1    0    0  502  503 -0.00000000000E+00 -0.00000000000E+00 -0.35993328322E+02  0.35993328322E+02  0.00000000000E+00 0. -1.
         -6    2    1    2    0  503 -0.55883234543E+02  0.67347763710E+02  0.46315529490E+03  0.50132612064E+03  0.17075243735E+03 0.  0.
        -24    2    3    3    0    0 -0.60897020632E+02  0.60622333197E+02  0.16276831545E+03  0.20078528000E+03  0.80235215134E+02 0.  0.
          6    2    1    2  501    0  0.55883234543E+02 -0.67347763710E+02  0.53639739998E+03  0.57021323088E+03  0.17251753764E+03 0.  0.
         24    2    5    5    0    0  0.78454161284E+02  0.26087210866E+01  0.40606553928E+03  0.42050738460E+03  0.75995904247E+02 0.  0.
          5    1    5    5  501    0 -0.22570926741E+02 -0.69956484797E+02  0.13033186070E+03  0.14970584629E+03  0.47000000000E+01 0. -1.
        -11    1    6    6    0    0  0.45466081778E+02  0.31931868932E+02  0.30794696343E+03  0.31291874525E+03  0.00000000000E+00 0.  1.
         12    1    6    6    0    0  0.32988079506E+02 -0.29323147845E+02  0.98118575852E+02  0.10758863935E+03  0.00000000000E+00 0. -1.
         -5    1    3    3    0  503  0.50137860888E+01  0.67254305140E+01  0.30038697945E+03  0.30054084064E+03  0.47000000000E+01 0.  1.
         11    1    4    4    0    0 -0.48807782582E+02  0.37771194531E+02  0.16366832863E+03  0.17491765084E+03  0.00000000000E+00 0. -1.
        -12    1    4    4    0    0 -0.12089238050E+02  0.22851138665E+02 -0.90001318413E+00  0.25867629165E+02  0.00000000000E+00 0.  1.
</event>
<event>
12    1  0.1615162E-001  0.2125719E+03  0.7818608E-02  0.1141415E+00
         21   -1    0    0  503  502  0.00000000000E+00  0.00000000000E+00  0.63628704603E+03  0.63628704603E+03  0.00000000000E+00 0.  1.
         21   -1    0    0  501  503 -0.00000000000E+00 -0.00000000000E+00 -0.80471171530E+02  0.80471171530E+02  0.00000000000E+00 0.  1.
          6    2    1    2  501    0  0.97203322785E+02 -0.43029564974E+02  0.13113013818E+03  0.24184266639E+03  0.17318410067E+03 0.  0.
         24    2    3    3    0    0  0.81412394532E+02 -0.94564929892E+02  0.10731762770E+03  0.18272944530E+03  0.79388116342E+02 0.  0.
         -6    2    1    2    0  502 -0.97203322785E+02  0.43029564974E+02  0.42468573632E+03  0.47491555117E+03  0.18408361330E+03 0.  0.
        -24    2    5    5    0    0 -0.64166807258E+02  0.13995088928E+02  0.41638097811E+03  0.42991031629E+03  0.84477922887E+02 0.  0.
          5    1    3    3  501    0  0.15790928253E+02  0.51535364917E+02  0.23812510480E+02  0.59113221090E+02  0.47000000000E+01 0. -1.
        -13    1    4    4    0    0  0.96805312487E+02 -0.76891057571E+02  0.82688759761E+02  0.14873108031E+03  0.00000000000E+00 0.  1.
         14    1    4    4    0    0 -0.15392917956E+02 -0.17673872320E+02  0.24628867935E+02  0.33998364987E+02  0.00000000000E+00 0. -1.
         -5    1    5    5    0  502 -0.33036515527E+02  0.29034476047E+02  0.83047582134E+01  0.45005234878E+02  0.47000000000E+01 0.  1.
         13    1    6    6    0    0  0.86798399781E+01  0.20811529312E+02  0.35429721974E+02  0.41996720985E+02  0.00000000000E+00 0. -1.
        -14    1    6    6    0    0 -0.72846647236E+02 -0.68164403838E+01  0.38095125613E+03  0.38791359530E+03  0.00000000000E+00 0.  1.
</event>
<event>
12    1  0.1615162E-001  0.2093341E+03  0.7818608E-02  0.1143035E+00
         21   -1    0    0  503  502  0.00000000000E+00  0.00000000000E+00  0.31387772570E+03  0.31387772570E+03  0.00000000000E+00 0. -1.
         21   -1    0    0  501  503 -0.00000000000E+00 -0.00000000000E+00 -0.39163011662E+03  0.39163011662E+03  0.00000000000E+00 0. -1.
          6    2    1    2  501    0  0.29694356222E+00 -0.11068817393E+03 -0.32342863263E+03  0.38274230571E+03  0.17214421904E+03 0.  0.
         24    2    3    3    0    0 -0.62063760307E+01 -0.17555627631E+02 -0.24838552610E+03  0.26286936388E+03  0.84013175886E+02 0.  0.
         -6    2    1    2    0  502 -0.29694356222E+00  0.11068817393E+03  0.24567624172E+03  0.32276553661E+03  0.17767615444E+03 0.  0.
        -24    2    5    5    0    0  0.62831195694E+02  0.10345759342E+03  0.17139901135E+03  0.22490522693E+03  0.80953735056E+02 0.  0.
          5    1    3    3  501    0  0.65033195930E+01 -0.93132546295E+02 -0.75043106527E+02  0.11987294183E+03  0.47000000000E+01 0. -1.
        -11    1    4    4    0    0 -0.51023809270E+01 -0.28548741956E+02 -0.22479241973E+02  0.36693068529E+02  0.00000000000E+00 0.  1.
         12    1    4    4    0    0 -0.11039951037E+01  0.10993114325E+02 -0.22590628413E+03  0.22617629535E+03  0.00000000000E+00 0. -1.
         -5    1    5    5    0  502 -0.63128139256E+02  0.72305805043E+01  0.74277230372E+02  0.97860309687E+02  0.47000000000E+01 0.  1.
         13    1    6    6    0    0 -0.13984833122E+02  0.36630553046E+02  0.75314065037E+02  0.84909253715E+02  0.00000000000E+00 0. -1.
        -14    1    6    6    0    0  0.76816028816E+02  0.66827040376E+02  0.96084946308E+02  0.13999597321E+03  0.00000000000E+00 0.  1.
</event>
<event>
12    1  0.1615162E-001  0.1964740E+03  0.7818608E-02  0.1153036E+00
         21   -1    0    0  501  502  0.00000000000E+00  0.00000000000E+00  0.43944941458E+03  0.43944941458E+03  0.00000000000E+00 0. -1.
         21   -1    0    0  502  503 -0.00000000000E+00 -0.00000000000E+00 -0.11588990908E+03  0.11588990908E+03  0.00000000000E+00 0. -1.
         -6    2    1    2    0  503 -0.17105858116E+02  0.90341475735E+02  0.30023160205E+03  0.35880504813E+03  0.17363137698E+03 0.  0.
        -24    2    3    3    0    0  0.51327224932E+00  0.10937371531E+03  0.13288576878E+03  0.18939614100E+03  0.79053131718E+02 0.  0.
          6    2    1    2  501    0  0.17105858116E+02 -0.90341475735E+02  0.23327903445E+02  0.19653427554E+03  0.17212593576E+03 0.  0.
         24    2    5    5    0    0  0.16569955308E+00  0.19961009596E+02  0.22146116788E+02  0.84833363000E+02  0.79421531266E+02 0.  0.
          5    1    5    5  501    0  0.16940158563E+02 -0.11030248533E+03  0.11817866573E+01  0.11170091254E+03  0.47000000000E+01 0. -1.
        -11    1    6    6    0    0 -0.33049027458E+02  0.11985787646E+02 -0.11399310578E+02  0.36957294315E+02  0.00000000000E+00 0.  1.
         12    1    6    6    0    0  0.33214727011E+02  0.79752219497E+01  0.33545427366E+02  0.47876068685E+02  0.00000000000E+00 0. -1.
         -5    1    3    3    0  503 -0.17619130365E+02 -0.19032239575E+02  0.16734583328E+03  0.16940890712E+03  0.47000000000E+01 0.  1.
         11    1    4    4    0    0 -0.32217433056E+02  0.21954206752E+02  0.57196546718E+02  0.69219904242E+02  0.00000000000E+00 0. -1.
        -12    1    4    4    0    0  0.32730705305E+02  0.87419508558E+02  0.75689222058E+02  0.12017623676E+03  0.00000000000E+00 0.  1.
</event>
<event>
12    1  0.1615162E-001  0.4217634E+03  0.7818608E-02  0.1036570E+00
         21   -1    0    0  501  502  0.00000000000E+00  0.00000000000E+00  0.12616617824E+04  0.12616617824E+04  0.00000000000E+00 0. -1.
         21   -1    0    0  502  503 -0.00000000000E+00 -0.00000000000E+00 -0.14219164690E+03  0.14219164690E+03  0.00000000000E+00 0.  1.
         -6    2    1    2    0  503 -0.68723260351E+02  0.37873348751E+03  0.63276238446E+03  0.76044238418E+03  0.17240198200E+03 0.  0.
        -24    2    3    3    0    0 -0.95611774039E+02  0.32914779860E+03  0.59821520260E+03  0.69413001363E+03  0.80468394711E+02 0.  0.
          6    2    1    2  501    0  0.68723260351E+02 -0.37873348751E+03  0.48670775104E+03  0.64341104512E+03  0.17009231898E+03 0.  0.
         24    2    5    5    0    0  0.30151444927E+02 -0.37104891301E+03  0.43738092040E+03  0.58014917784E+03  0.81759363592E+02 0.  0.
          5    1    5    5  501    0  0.38571815424E+02 -0.76845744991E+01  0.49326830644E+02  0.63261867280E+02  0.47000000000E+01 0. -1.
        -11    1    6    6    0    0  0.45763679418E+01 -0.19436312211E+03  0.28740644897E+03  0.34698765582E+03  0.00000000000E+00 0.  1.
         12    1    6    6    0    0  0.25575076985E+02 -0.17668579090E+03  0.14997447143E+03  0.23316152202E+03  0.00000000000E+00 0. -1.
         -5    1    3    3    0  503  0.26888513688E+02  0.49585688915E+02  0.34547181860E+02  0.66312370550E+02  0.47000000000E+01 0.  1.
         11    1    4    4    0    0 -0.89878190791E+01  0.10724732145E+03  0.25054732202E+03  0.27268430359E+03  0.00000000000E+00 0. -1.
        -12    1    4    4    0    0 -0.86623954960E+02  0.22190047715E+03  0.34766788058E+03  0.42144571005E+03  0.00000000000E+00 0.  1.
</event>
<event>
12    1  0.1615162E-001  0.2483781E+03  0.7818608E-02  0.1114358E+00
         21   -1    0    0  501  502  0.00000000000E+00  0.00000000000E+00  0.11850490223E+04  0.11850490223E+04  0.00000000000E+00 0. -1.
         21   -1    0    0  502  503 -0.00000000000E+00 -0.00000000000E+00 -0.52136730931E+02  0.52136730931E+02  0.00000000000E+00 0.  1.
         -6    2    1    2    0  503  0.12957402861E+03  0.12291917707E+03  0.53783724712E+03  0.59235556963E+03  0.17238811879E+03 0.  0.
        -24    2    3    3    0    0  0.82433182443E+02  0.33881032876E+02  0.42333222349E+03  0.43976611739E+03  0.78999446840E+02 0.  0.
          6    2    1    2  501    0 -0.12957402861E+03 -0.12291917707E+03  0.59507504425E+03  0.64483018360E+03  0.17260679134E+03 0.  0.
         24    2    5    5    0    0 -0.14954314422E+03 -0.10608486745E+03  0.39364372690E+03  0.44165827322E+03  0.80557404943E+02 0.  0.
          5    1    5    5  501    0  0.19969115614E+02 -0.16834309616E+02  0.20143131735E+03  0.20317191038E+03  0.47000000000E+01 0. -1.
        -11    1    6    6    0    0 -0.18128608620E+02 -0.21800669250E+02  0.14966963224E+02  0.32061279114E+02  0.00000000000E+00 0.  1.
         12    1    6    6    0    0 -0.13141453560E+03 -0.84284198202E+02  0.37867676368E+03  0.40959699411E+03  0.00000000000E+00 0. -1.
         -5    1    3    3    0  503  0.47140846166E+02  0.89038144193E+02  0.11450502363E+03  0.15258945224E+03  0.47000000000E+01 0.  1.
         11    1    4    4    0    0  0.15748000886E+02 -0.20137150645E+02  0.44362832981E+02  0.51201223795E+02  0.00000000000E+00 0. -1.
        -12    1    4    4    0    0  0.66685181557E+02  0.54018183520E+02  0.37896939051E+03  0.38856489359E+03  0.00000000000E+00 0.  1.
</event>
<event>
12    1  0.1615162E-001  0.2459625E+03  0.7818608E-02  0.1115957E+00
         21   -1    0    0  503  502  0.00000000000E+00  0.00000000000E+00  0.87399406134E+02  0.87399406134E+02  0.00000000000E+00 0.  1.
         21   -1    0    0  501  503 -0.00000000000E+00 -0.00000000000E+00 -0.70565914339E+03  0.70565914339E+03  0.00000000000E+00 0.  1.
          6    2    1    2  501    0 -0.57411494493E+02  0.16642878581E+03 -0.36673153690E+03  0.44157621367E+03  0.17176411695E+03 0.  0.
         24    2    3    3    0    0 -0.51475068656E+02  0.17596586903E+03 -0.22968640815E+03  0.30399113300E+03  0.77724469084E+02 0.  0.
         -6    2    1    2    0  502  0.57411494493E+02 -0.16642878581E+03 -0.25152820036E+03  0.35148233586E+03  0.17111042166E+03 0.  0.
        -24    2    5    5    0    0  0.44244773412E+01 -0.41867194587E+02 -0.35792833646E+02  0.96752964871E+02  0.79420219645E+02 0.  0.
          5    1    3    3  501    0 -0.59364258377E+01 -0.95370832221E+01 -0.13704512875E+03  0.13758508066E+03  0.47000000000E+01 0. -1.
        -13    1    4    4    0    0 -0.20832113883E+02  0.17703025670E+02 -0.77965647385E+02  0.82619708659E+02  0.00000000000E+00 0.  1.
         14    1    4    4    0    0 -0.30642954773E+02  0.15826284336E+03 -0.15172076077E+03  0.22137142434E+03  0.00000000000E+00 0. -1.
         -5    1    5    5    0  502  0.52987017152E+02 -0.12456159123E+03 -0.21573536671E+03  0.25472937099E+03  0.47000000000E+01 0.  1.
         11    1    6    6    0    0  0.32096755087E+02 -0.14426930911E+02  0.10037581647E+02  0.36593593263E+02  0.00000000000E+00 0. -1.
        -12    1    6    6    0    0 -0.27672277745E+02 -0.27440263676E+02 -0.45830415293E+02  0.60159371607E+02  0.00000000000E+00 0.  1.
</event>
<event>
12    1  0.1615162E-001  0.1842651E+03  0.7818608E-02  0.1164356E+00
         21   -1    0    0  501  502  0.00000000000E+00  0.00000000000E+00  0.75452309782E+03  0.75452309782E+03  0.00000000000E+00 0.  1.
         21   -1    0    0  502  503 -0.00000000000E+00 -0.00000000000E+00 -0.44762330552E+02  0.44762330552E+02  0.00000000000E+00 0.  1.
         -6    2    1    2    0  503  0.58814166151E+02  0.29339904639E+01  0.31469888119E+03  0.36336397084E+03  0.17184375184E+03 0.  0.
        -24    2    3    3    0    0  0.29664765585E+02 -0.64598062131E+02  0.18933636656E+03  0.21794005344E+03  0.81220066729E+02 0.  0.
          6    2    1    2  501    0 -0.58814166151E+02 -0.29339904639E+01  0.39506188608E+03  0.43592145753E+03  0.17460214450E+03 0.  0.
         24    2    5    5    0    0  0.23815713825E+02  0.15521813678E+01  0.29065923218E+03  0.30261794316E+03  0.80778912951E+02 0.  0.
          5    1    5    5  501    0 -0.82629879976E+02 -0.44861718316E+01  0.10440265389E+03  0.13330351437E+03  0.47000000000E+01 0. -1.
        -11    1    6    6    0    0 -0.29309842664E+02 -0.87367605649E-01  0.13465357213E+03  0.13780659998E+03  0.00000000000E+00 0.  1.
         12    1    6    6    0    0  0.53125556489E+02  0.16395489734E+01  0.15600566005E+03  0.16481134318E+03  0.00000000000E+00 0. -1.
         -5    1    3    3    0  503  0.29149400566E+02  0.67532052595E+02  0.12536251463E+03  0.14542391741E+03  0.47000000000E+01 0.  1.
         11    1    4    4    0    0  0.36900115087E+01 -0.61384335488E+02  0.59768091885E+02  0.85754752847E+02  0.00000000000E+00 0. -1.
        -12    1    4    4    0    0  0.25974754077E+02 -0.32137266425E+01  0.12956827468E+03  0.13218530059E+03  0.00000000000E+00 0.  1.
</event>
<event>
12    1  0.1615162E-001  0.1806741E+03  0.7818608E-02  0.1167634E+00
         21   -1    0    0  501  502  0.00000000000E+00  0.00000000000E+00  0.91278631850E+02  0.91278631850E+02  0.00000000000E+00 0.  1.
         21   -1    0    0  502  503 -0.00000000000E+00 -0.00000000000E+00 -0.70800954858E+03  0.70800954858E+03  0.00000000000E+00 0.  1.
         -6    2    1    2    0  503 -0.23841759156E+02  0.50097327683E+02 -0.59022584926E+03  0.61668024038E+03  0.16985227117E+03 0.  0.
        -24    2    3    3    0    0 -0.30298764484E+02  0.17094230840E+02 -0.57105368746E+03  0.57768589326E+03  0.80052791698E+02 0.  0.
          6    2    1    2  501    0  0.23841759156E+02 -0.50097327683E+02 -0.26505067470E+02  0.18260794005E+03  0.17194466972E+03 0.  0.
         24    2    5    5    0    0  0.30135490342E+02  0.39204368388E+02  0.14526120352E+01  0.88703063622E+02  0.73627393920E+02 0.  0.
          5    1    5    5  501    0 -0.62937311851E+01 -0.89301696071E+02 -0.27957679505E+02  0.93904876427E+02  0.47000000000E+01 0. -1.
        -13    1    6    6    0    0 -0.81051567650E+01  0.38777010291E+02  0.21974685100E+02  0.45301621147E+02  0.00000000000E+00 0.  1.
         14    1    6    6    0    0  0.38240647107E+02  0.42735809719E+00 -0.20522073065E+02  0.43401442476E+02  0.00000000000E+00 0. -1.
         -5    1    3    3    0  503  0.64570053274E+01  0.33003096843E+02 -0.19172161805E+02  0.38994347120E+02  0.47000000000E+01 0.  1.
         11    1    4    4    0    0 -0.52727798936E+01  0.10905744955E+02 -0.91242206756E+01  0.15165384392E+02  0.00000000000E+00 0. -1.
        -12    1    4    4    0    0 -0.25025984590E+02  0.61884858857E+01 -0.56192946678E+03  0.56252050887E+03  0.00000000000E+00 0.  1.
</event>
<event>
12    1  0.1615162E-001  0.2452170E+03  0.7818608E-02  0.1117277E+00
         21   -1    0    0  503  502  0.00000000000E+00  0.00000000000E+00  0.67765838407E+03  0.67765838407E+03  0.00000000000E+00 0.  1.
         21   -1    0    0  501  503 -0.00000000000E+00 -0.00000000000E+00 -0.87401819692E+02  0.87401819692E+02  0.00000000000E+00 0. -1.
          6    2    1    2  501    0 -0.12395934331E+03  0.12138350563E+03  0.32523311055E+03  0.40399399333E+03  0.16533207862E+03 0.  0.
         24    2    3    3    0    0 -0.36751060004E+02  0.85201575662E+02  0.26512288449E+03  0.29196834444E+03  0.79658153191E+02 0.  0.
         -6    2    1    2    0  502  0.12395934331E+03 -0.12138350563E+03  0.26502345383E+03  0.36106621043E+03  0.17329599823E+03 0.  0.
        -24    2    5    5    0    0  0.14448467526E+03 -0.13187237752E+03  0.19509229069E+03  0.28728434773E+03  0.78772769569E+02 0.  0.
          5    1    3    3  501    0 -0.87208283302E+02  0.36181929971E+02  0.60110226061E+02  0.11202564889E+03  0.47000000000E+01 0. -1.
        -13    1    4    4    0    0 -0.16476938809E+02  0.35430307431E+02  0.21486144840E+03  0.21838552654E+03  0.00000000000E+00 0.  1.
         14    1    4    4    0    0 -0.20274121195E+02  0.49771268231E+02  0.50261436090E+02  0.73582817895E+02  0.00000000000E+00 0. -1.
         -5    1    5    5    0  502 -0.20525331951E+02  0.10488871890E+02  0.69931163143E+02  0.73781862702E+02  0.47000000000E+01 0.  1.
         13    1    6    6    0    0  0.55190931402E+02 -0.30693511121E+02  0.20039497834E+02  0.66254901762E+02  0.00000000000E+00 0. -1.
        -14    1    6    6    0    0  0.89293743855E+02 -0.10117886640E+03  0.17505279285E+03  0.22102944597E+03  0.00000000000E+00 0.  1.
</event>
<event>
12    1  0.1615162E-001  0.2055008E+03  0.7818608E-02  0.1145660E+00
         21   -1    0    0  501  502  0.00000000000E+00  0.00000000000E+00  0.20300077018E+03  0.20300077018E+03  0.00000000000E+00 0. -1.
         21   -1    0    0  502  503 -0.00000000000E+00 -0.00000000000E+00 -0.20820191168E+03  0.20820191168E+03  0.00000000000E+00 0.  1.
         -6    2    1    2    0  503 -0.78677989977E+02 -0.80086181025E+02 -0.25313740869E+02  0.20705401969E+03  0.17212367384E+03 0.  0.
        -24    2    3    3    0    0 -0.35759493240E+02 -0.23282986021E+02  0.49366262831E+02  0.10376900975E+03  0.80685442830E+02 0.  0.
          6    2    1    2  501    0  0.78677989977E+02  0.80086181025E+02  0.20112599368E+02  0.20414866217E+03  0.16931667701E+03 0.  0.
         24    2    5    5    0    0  0.60128763497E+02  0.16673668527E+02 -0.47453701084E+02  0.10953092862E+03  0.76496347344E+02 0.  0.
          5    1    5    5  501    0  0.18549226480E+02  0.63412512498E+02  0.67566300452E+02  0.94617733544E+02  0.47000000000E+01 0. -1.
        -13    1    6    6    0    0  0.42933613402E+02  0.46726007019E+02 -0.36557462320E+02  0.73232936189E+02  0.00000000000E+00 0.  1.
         14    1    6    6    0    0  0.17195150096E+02 -0.30052338491E+02 -0.10896238763E+02  0.36297992435E+02  0.00000000000E+00 0. -1.
         -5    1    3    3    0  503 -0.42918496738E+02 -0.56803195004E+02 -0.74680003700E+02  0.10328500994E+03  0.47000000000E+01 0.  1.
         11    1    4    4    0    0 -0.32218226873E+02  0.22629380733E+02  0.41226536016E+02  0.57006405667E+02  0.00000000000E+00 0. -1.
        -12    1    4    4    0    0 -0.35412663670E+01 -0.45912366754E+02  0.81397268147E+01  0.46762604087E+02  0.00000000000E+00 0.  1.
</event>
<event>
12    1  0.1615162E-001  0.2013022E+03  0.7818608E-02  0.1149261E+00
         21   -1    0    0  503  502  0.00000000000E+00  0.00000000000E+00  0.35383443527E+02  0.35383443527E+02  0.00000000000E+00 0.  1.
         21   -1    0    0  501  503 -0.00000000000E+00 -0.00000000000E+00 -0.12085727907E+04  0.12085727907E+04  0.00000000000E+00 0. -1.
          6    2    1    2  501    0 -0.81738369561E+02 -0.61062388244E+02 -0.74250466270E+03  0.76854916038E+03  0.17013189437E+03 0.  0.
         24    2    3    3    0    0 -0.85443507324E+02 -0.83447457601E+02 -0.72430257524E+03  0.73908349623E+03  0.85826119475E+02 0.  0.
         -6    2    1    2    0  502  0.81738369561E+02  0.61062388244E+02 -0.43068468443E+03  0.47540707380E+03  0.17353043565E+03 0.  0.
        -24    2    5    5    0    0  0.59566239891E+02  0.82100884721E+02 -0.18094318961E+03  0.22375825917E+03  0.83896534340E+02 0.  0.
          5    1    3    3  501    0  0.37051377628E+01  0.22385069357E+02 -0.18202087460E+02  0.29465664151E+02  0.47000000000E+01 0. -1.
        -13    1    4    4    0    0  0.16251297107E+01  0.10305945521E+02 -0.14629658072E+02  0.17968874616E+02  0.00000000000E+00 0.  1.
         14    1    4    4    0    0 -0.87068637035E+02 -0.93753403121E+02 -0.70967291717E+03  0.72111462162E+03  0.00000000000E+00 0. -1.
         -5    1    5    5    0  502  0.22172129671E+02 -0.21038496477E+02 -0.24974149482E+03  0.25164881463E+03  0.47000000000E+01 0.  1.
         13    1    6    6    0    0  0.29672052467E+02 -0.12405966195E+02 -0.51590658702E+02  0.60794200054E+02  0.00000000000E+00 0. -1.
        -14    1    6    6    0    0  0.29894187423E+02  0.94506850915E+02 -0.12935253091E+03  0.16296405912E+03  0.00000000000E+00 0.  1.
</event>
<event>
12    1  0.1615162E-001  0.1811610E+03  0.7818608E-02  0.1167718E+00
         21   -1    0    0  501  502  0.00000000000E+00  0.00000000000E+00  0.84399774761E+02  0.84399774761E+02  0.00000000000E+00 0. -1.
         21   -1    0    0  502  503 -0.00000000000E+00 -0.00000000000E+00 -0.49057054661E+03  0.49057054661E+03  0.00000000000E+00 0. -1.
         -6    2    1    2    0  503 -0.22926653441E+02  0.49588390921E+02 -0.33783146669E+03  0.38134806597E+03  0.16826053484E+03 0.  0.
        -24    2    3    3    0    0 -0.48564643020E+02  0.30843945253E+02 -0.33474323149E+03  0.34909457082E+03  0.80648092566E+02 0.  0.
          6    2    1    2  501    0  0.22926653441E+02 -0.49588390921E+02 -0.68339305159E+02  0.19362225540E+03  0.17272717563E+03 0.  0.
         24    2    5    5    0    0  0.55089195419E+02  0.10042125842E+02 -0.61284304467E+01  0.10152170942E+03  0.84459671330E+02 0.  0.
          5    1    5    5  501    0 -0.32162541978E+02 -0.59630516763E+02 -0.62210874713E+02  0.92100545972E+02  0.47000000000E+01 0. -1.
        -11    1    6    6    0    0 -0.15766706295E+02  0.18154439212E+02 -0.16905380975E+02  0.29393274680E+02  0.00000000000E+00 0.  1.
         12    1    6    6    0    0  0.70855901713E+02 -0.81123133705E+01  0.10776950528E+02  0.72128434743E+02  0.00000000000E+00 0. -1.
         -5    1    3    3    0  503  0.25637989580E+02  0.18744445668E+02 -0.30882351947E+01  0.32253495155E+02  0.47000000000E+01 0.  1.
         13    1    4    4    0    0 -0.19552553515E+02  0.45937306910E+02 -0.96819007003E+02  0.10893327606E+03  0.00000000000E+00 0. -1.
        -14    1    4    4    0    0 -0.29012089506E+02 -0.15093361657E+02 -0.23792422449E+03  0.24016129476E+03  0.00000000000E+00 0.  1.
</event>
<event>
12    1  0.1615162E-001  0.2092063E+03  0.7818608E-02  0.1142249E+00
         21   -1    0    0  503  502  0.00000000000E+00  0.00000000000E+00  0.71519151911E+03  0.71519151911E+03  0.00000000000E+00 0. -1.
         21   -1    0    0  501  503 -0.00000000000E+00 -0.00000000000E+00 -0.63039003043E+02  0.63039003043E+02  0.00000000000E+00 0. -1.
          6    2    1    2  501    0 -0.99697404258E+02 -0.64332378017E+02  0.25795482771E+03  0.33195806265E+03  0.17198033301E+03 0.  0.
         24    2    3    3    0    0 -0.95315006465E+01 -0.36892593881E+02  0.20749674762E+03  0.22494899867E+03  0.78072009987E+02 0.  0.
         -6    2    1    2    0  502  0.99697404258E+02  0.64332378017E+02  0.39419768836E+03  0.44627245950E+03  0.17230514597E+03 0.  0.
        -24    2    5    5    0    0 -0.59002094273E+01 -0.72312492908E+01  0.16937142918E+03  0.18773591357E+03  0.80442456341E+02 0.  0.
          5    1    3    3  501    0 -0.90165903611E+02 -0.27439784136E+02  0.50458080095E+02  0.10700906398E+03  0.47000000000E+01 0. -1.
        -13    1    4    4    0    0 -0.21732219371E+02 -0.57603086116E+02  0.16519936541E+03  0.17629871020E+03  0.00000000000E+00 0.  1.
         14    1    4    4    0    0  0.12200718725E+02  0.20710492235E+02  0.42297382208E+02  0.48650288464E+02  0.00000000000E+00 0. -1.
         -5    1    5    5    0  502  0.10559761368E+03  0.71563627308E+02  0.22482625917E+03  0.25853654593E+03  0.47000000000E+01 0.  1.
         11    1    6    6    0    0  0.27903860040E+02 -0.16084865044E+02  0.29878319727E+02  0.43932474074E+02  0.00000000000E+00 0. -1.
        -12    1    6    6    0    0 -0.33804069467E+02  0.88536157527E+01  0.13949310946E+03  0.14380343949E+03  0.00000000000E+00 0.  1.
</event>
<event>
12    1  0.1615162E-001  0.4550421E+03  0.7818608E-02  0.1026234E+00
         21   -1    0    0  503  502  0.00000000000E+00  0.00000000000E+00  0.56281492676E+03  0.56281492676E+03  0.00000000000E+00 0. -1.
         21   -1    0    0  501  503 -0.00000000000E+00 -0.00000000000E+00 -0.54560534641E+03  0.54560534641E+03  0.00000000000E+00 0. -1.
          6    2    1    2  501    0  0.10999989461E+03  0.40691705122E+03 -0.30772670782E+03  0.54927188240E+03  0.17123787755E+03 0.  0.
         24    2    3    3    0    0  0.79378033900E+02  0.13957160300E+03 -0.96917558334E+02  0.20740367016E+03  0.88555997274E+02 0.  0.
         -6    2    1    2    0  502 -0.10999989461E+03 -0.40691705122E+03  0.32493628816E+03  0.55914839076E+03  0.17141140027E+03 0.  0.
        -24    2    5    5    0    0 -0.11877589966E+03 -0.29044156656E+03  0.29577079758E+03  0.43866489550E+03  0.80514023074E+02 0.  0.
          5    1    3    3  501    0  0.30621860710E+02  0.26734544822E+03 -0.21080914948E+03  0.34186821224E+03  0.47000000000E+01 0. -1.
        -13    1    4    4    0    0  0.15005420804E+01  0.91625487379E+02 -0.42827356615E+02  0.10115168826E+03  0.00000000000E+00 0.  1.
         14    1    4    4    0    0  0.77877491819E+02  0.47946115622E+02 -0.54090201719E+02  0.10625198190E+03  0.00000000000E+00 0. -1.
         -5    1    5    5    0  502  0.87760050514E+01 -0.11647548466E+03  0.29165490577E+02  0.12048349527E+03  0.47000000000E+01 0.  1.
         13    1    6    6    0    0 -0.10578166624E+03 -0.17543348754E+03  0.15786758709E+03  0.25862877743E+03  0.00000000000E+00 0. -1.
        -14    1    6    6    0    0 -0.12994233417E+02 -0.11500807902E+03  0.13790321050E+03  0.18003611806E+03  0.00000000000E+00 0.  1.
</event>
<event>
12    1  0.1615162E-001  0.1766245E+03  0.7818608E-02  0.1171374E+00
         21   -1    0    0  503  502  0.00000000000E+00  0.00000000000E+00  0.11908690494E+03  0.11908690494E+03  0.00000000000E+00 0.  1.
         21   -1    0    0  501  503 -0.00000000000E+00 -0.00000000000E+00 -0.28700443775E+03  0.28700443775E+03  0.00000000000E+00 0.  1.
          6    2    1    2  501    0 -0.24491208186E+02  0.23589159361E+02 -0.14601270831E+03  0.22916353663E+03  0.17332036179E+03 0.  0.
         24    2    3    3    0    0 -0.77504435029E+02 -0.86554448452E+00 -0.60160881052E+02  0.12523538354E+03  0.77825979366E+02 0.  0.
         -6    2    1    2    0  502  0.24491208186E+02 -0.23589159361E+02 -0.21904824498E+02  0.17692780606E+03  0.17224215368E+03 0.  0.
        -24    2    5    5    0    0 -0.20089851996E+02  0.40625340999E+02  0.11055524435E+02  0.91960473601E+02  0.79249502206E+02 0.  0.
          5    1    3    3  501    0  0.53013226843E+02  0.24454703846E+02 -0.85851827263E+02  0.10392815309E+03  0.47000000000E+01 0. -1.
        -11    1    4    4    0    0  0.46157644091E+01  0.21335469775E+02 -0.24994776004E+02  0.33185032456E+02  0.00000000000E+00 0.  1.
         12    1    4    4    0    0 -0.82120199438E+02 -0.22201014259E+02 -0.35166105048E+02  0.92050351081E+02  0.00000000000E+00 0. -1.
         -5    1    5    5    0  502  0.44581060182E+02 -0.64214500361E+02 -0.32960348933E+02  0.84967332460E+02  0.47000000000E+01 0.  1.
         11    1    6    6    0    0  0.17631154883E+02  0.19588845129E+00 -0.21491376755E+02  0.27798835761E+02  0.00000000000E+00 0. -1.
        -12    1    6    6    0    0 -0.37721006879E+02  0.40429452548E+02  0.32546901190E+02  0.64161637841E+02  0.00000000000E+00 0.  1.
</event>
<event>
12    1  0.1615162E-001  0.2402258E+03  0.7818608E-02  0.1119786E+00
         21   -1    0    0  503  502  0.00000000000E+00  0.00000000000E+00  0.33479698096E+03  0.33479698096E+03  0.00000000000E+00 0. -1.
         21   -1    0    0  501  503 -0.00000000000E+00 -0.00000000000E+00 -0.19207949061E+03  0.19207949061E+03  0.00000000000E+00 0.  1.
          6    2    1    2  501    0  0.16273822519E+03 -0.41086248032E+02 -0.14457456733E+02  0.23980089768E+03  0.17065650518E+03 0.  0.
         24    2    3    3    0    0  0.61693682466E+02  0.61801668798E+01 -0.61933565703E+02  0.11847413017E+03  0.79724826995E+02 0.  0.
         -6    2    1    2    0  502 -0.16273822519E+03  0.41086248032E+02  0.15717494708E+03  0.28707557389E+03  0.17186218730E+03 0.  0.
        -24    2    5    5    0    0 -0.12173467616E+03  0.64221479448E+02  0.44323197085E+02  0.16470671576E+03  0.78867145329E+02 0.  0.
          5    1    3    3  501    0  0.10104454272E+03 -0.47266414912E+02  0.47476108970E+02  0.12132676751E+03  0.47000000000E+01 0. -1.
        -11    1    4    4    0    0  0.22354682182E+02 -0.34804305176E+02 -0.40106694599E+02  0.57616129911E+02  0.00000000000E+00 0.  1.
         12    1    4    4    0    0  0.39339000285E+02  0.40984472056E+02 -0.21826871104E+02  0.60858000257E+02  0.00000000000E+00 0. -1.
         -5    1    5    5    0  502 -0.41003549023E+02 -0.23135231416E+02  0.11285174999E+03  0.12236885814E+03  0.47000000000E+01 0.  1.
         13    1    6    6    0    0 -0.10467246908E+03  0.20609760285E+02  0.11036640158E+02  0.10725155210E+03  0.00000000000E+00 0. -1.
        -14    1    6    6    0    0 -0.17062207088E+02  0.43611719163E+02  0.33286556927E+02  0.57455163659E+02  0.00000000000E+00 0.  1.
</event>
<event>
12    1  0.1615162E-001  0.1862046E+03  0.7818608E-02  0.1162199E+00
         21   -1    0    0  501  502  0.00000000000E+00  0.00000000000E+00  0.10528535594E+04  0.10528535594E+04  0.00000000000E+00 0. -1.
         21   -1    0    0  502  503 -0.00000000000E+00 -0.00000000000E+00 -0.10161225190E+04  0.10161225190E+04  0.00000000000E+00 0. -1.
         -6    2    1    2    0  503  0.39606194451E+02 -0.60250736273E+02 -0.99932878945E+03  0.10163165303E+04  0.17041848062E+03 0.  0.
        -24    2    3    3    0    0  0.78567435602E+02 -0.72103479281E+02 -0.88437927517E+03  0.89427577213E+03  0.78934787048E+02 0.  0.
          6    2    1    2  501    0 -0.39606194451E+02  0.60250736273E+02  0.10360598299E+04  0.10526595480E+04  0.17167804497E+03 0.  0.
         24    2    5    5    0    0  0.21075434727E+02  0.28133384936E+02  0.27849951145E+03  0.29197991085E+03  0.80340706769E+02 0.  0.
          5    1    5    5  501    0 -0.60681629178E+02  0.32117351337E+02  0.75756031843E+03  0.76067963719E+03  0.47000000000E+01 0. -1.
        -13    1    6    6    0    0  0.32142314596E+02 -0.14860772690E+02  0.18645777888E+03  0.18979060635E+03  0.00000000000E+00 0.  1.
         14    1    6    6    0    0 -0.11066879869E+02  0.42994157627E+02  0.92041732570E+02  0.10218930450E+03  0.00000000000E+00 0. -1.
         -5    1    3    3    0  503 -0.38961241151E+02  0.11852743007E+02 -0.11494951429E+03  0.12204075821E+03  0.47000000000E+01 0.  1.
         13    1    4    4    0    0  0.21491369365E+02  0.14500388919E+02 -0.11188130365E+03  0.11484583729E+03  0.00000000000E+00 0. -1.
        -14    1    4    4    0    0  0.57076066237E+02 -0.86603868200E+02 -0.77249797152E+03  0.77942993484E+03  0.00000000000E+00 0.  1.
</event>
<event>
12    1  0.1615162E-001  0.1761459E+03  0.7818608E-02  0.1172318E+00
         21   -1    0    0  501  502  0.00000000000E+00  0.00000000000E+00  0.13880391359E+04  0.13880391359E+04  0.00000000000E+00 0.  1.
         21   -1    0    0  502  503 -0.00000000000E+00 -0.00000000000E+00 -0.29635440826E+02  0.29635440826E+02  0.00000000000E+00 0.  1.
         -6    2    1    2    0  503  0.34979513485E+02  0.67634852406E+01  0.31485650851E+03  0.35936550110E+03  0.16952767128E+03 0.  0.
        -24    2    3    3    0    0  0.38631857380E+01 -0.59093802324E+02  0.20457965637E+03  0.22712147554E+03  0.78894405210E+02 0.  0.
          6    2    1    2  501    0 -0.34979513485E+02 -0.67634852406E+01  0.10435471866E+04  0.10583090756E+04  0.17250524015E+03 0.  0.
         24    2    5    5    0    0 -0.54554150663E+00 -0.68428916033E+02  0.62867874155E+03  0.63744539170E+03  0.80105263001E+02 0.  0.
          5    1    5    5  501    0 -0.34433971978E+02  0.61665430793E+02  0.41486844501E+03  0.42086368393E+03  0.47000000000E+01 0. -1.
        -11    1    6    6    0    0  0.26976844874E+02 -0.32366199559E+02  0.12889406835E+03  0.13560605403E+03  0.00000000000E+00 0.  1.
         12    1    6    6    0    0 -0.27522386380E+02 -0.36062716474E+02  0.49978467320E+03  0.50183933767E+03  0.00000000000E+00 0. -1.
         -5    1    3    3    0  503  0.31116327747E+02  0.65857287564E+02  0.11027685214E+03  0.13224402556E+03  0.47000000000E+01 0.  1.
         11    1    4    4    0    0  0.34208226771E+02 -0.27316526954E+01  0.62902208466E+02  0.71654396481E+02  0.00000000000E+00 0. -1.
        -12    1    4    4    0    0 -0.30345041033E+02 -0.56362149628E+02  0.14167744791E+03  0.15546707906E+03  0.00000000000E+00 0.  1.
</event>
<event>
12    1  0.1615162E-001  0.2054357E+03  0.7818608E-02  0.1145250E+00
         21   -1    0    0  501  502  0.00000000000E+00  0.00000000000E+00  0.19311075088E+03  0.19311075088E+03  0.00000000000E+00 0. -1.
         21   -1    0    0  502  503 -0.00000000000E+00 -0.00000000000E+00 -0.22012655053E+03  0.22012655053E+03  0.00000000000E+00 0. -1.
         -6    2    1    2    0  503  0.35878674815E+01 -0.11301638048E+03 -0.31499721307E+02  0.20775269160E+03  0.17141579091E+03 0.  0.
        -24    2    3    3    0    0  0.19857126069E+02 -0.43677225925E+02  0.45242755909E+02  0.10294761091E+03  0.79052502232E+02 0.  0.
          6    2    1    2  501    0 -0.35878674815E+01  0.11301638048E+03  0.44839216629E+01  0.20548460981E+03  0.17151747510E+03 0.  0.
         24    2    5    5    0    0  0.31338102950E+02 -0.28089168208E+00 -0.51047902731E+01  0.86446260161E+02  0.80403615687E+02 0.  0.
          5    1    5    5  501    0 -0.34925970432E+02  0.11329727216E+03  0.95887119360E+01  0.11903834965E+03  0.47000000000E+01 0. -1.
        -11    1    6    6    0    0 -0.26251100406E+02 -0.84744528469E+01 -0.61728114053E+01  0.28267299557E+02  0.00000000000E+00 0.  1.
         12    1    6    6    0    0  0.57589203357E+02  0.81935611649E+01  0.10680211322E+01  0.58178960604E+02  0.00000000000E+00 0. -1.
         -5    1    3    3    0  503 -0.16269258587E+02 -0.69339154557E+02 -0.76742477216E+02  0.10480508069E+03  0.47000000000E+01 0.  1.
         11    1    4    4    0    0 -0.20528117129E+02 -0.28731883302E+02  0.48238123526E+02  0.59781613162E+02  0.00000000000E+00 0. -1.
        -12    1    4    4    0    0  0.40385243197E+02 -0.14945342624E+02 -0.29953676167E+01  0.43165997746E+02  0.00000000000E+00 0.  1.
</event>
<event>
12    1  0.1615162E-001  0.2382893E+03  0.7818608E-02  0.1120960E+00
         21   -1    0    0  501  502  0.00000000000E+00  0.00000000000E+00  0.20899227941E+03  0.20899227941E+03  0.00000000000E+00 0. -1.
         21   -1    0    0  502  503 -0.00000000000E+00 -0.00000000000E+00 -0.28378794189E+03  0.28378794189E+03  0.00000000000E+00 0. -1.
         -6    2    1    2    0  503 -0.99800942760E+02  0.13228838399E+03  0.13780502939E+02  0.23868740689E+03  0.17123472555E+03 0.  0.
        -24    2    3    3    0    0 -0.13604989210E+03  0.10465207913E+03 -0.35172207512E+01  0.18970727909E+03  0.80714621292E+02 0.  0.
          6    2    1    2  501    0  0.99800942760E+02 -0.13228838399E+03 -0.88576165419E+02  0.25409281442E+03  0.17104670866E+03 0.  0.
         24    2    5    5    0    0  0.30893858899E+01 -0.31559203765E+02 -0.81001289606E+02  0.11416797128E+03  0.73943147769E+02 0.  0.
          5    1    5    5  501    0  0.96711556870E+02 -0.10072918023E+03 -0.75748758132E+01  0.13992484313E+03  0.47000000000E+01 0. -1.
        -13    1    6    6    0    0  0.25567987568E+02 -0.46711804746E+02 -0.51016458052E+02  0.73745465509E+02  0.00000000000E+00 0.  1.
         14    1    6    6    0    0 -0.22478601678E+02  0.15152600981E+02 -0.29984831554E+02  0.40422505776E+02  0.00000000000E+00 0. -1.
         -5    1    3    3    0  503  0.36248949341E+02  0.27636304864E+02  0.17297723690E+02  0.48980127805E+02  0.47000000000E+01 0.  1.
         13    1    4    4    0    0 -0.12161078699E+03  0.47267367947E+02 -0.39177398386E+01  0.13053251040E+03  0.00000000000E+00 0. -1.
        -14    1    4    4    0    0 -0.14439105108E+02  0.57384711182E+02  0.40051908742E+00  0.59174768688E+02  0.00000000000E+00 0.  1.
</event>
<event>
12    1  0.1615162E-001  0.2279688E+03  0.7818608E-02  0.1128234E+00
         21   -1    0    0  503  502  0.00000000000E+00  0.00000000000E+00  0.64689754994E+02  0.64689754994E+02  0.00000000000E+00 0. -1.
         21   -1    0    0  501  503 -0.00000000000E+00 -0.00000000000E+00 -0.94658893002E+03  0.94658893002E+03  0.00000000000E+00 0.  1.
          6    2    1    2  501    0 -0.14504826807E+03  0.36414362184E+02 -0.64045934193E+03  0.67982198249E+03  0.17206031896E+03 0.  0.
         24    2    3    3    0    0 -0.10937898192E+03  0.85211242039E+02 -0.38367699297E+03  0.41597979823E+03  0.81280010709E+02 0.  0.
         -6    2    1    2    0  502  0.14504826807E+03 -0.36414362184E+02 -0.24143983310E+03  0.33145670253E+03  0.17089571908E+03 0.  0.
        -24    2    5    5    0    0  0.40374397285E+02 -0.45894526296E+02 -0.10268536503E+03  0.15732633428E+03  0.10232737545E+03 0.  0.
          5    1    3    3  501    0 -0.35669286155E+02 -0.48796879855E+02 -0.25678234896E+03  0.26384218426E+03  0.47000000000E+01 0. -1.
        -11    1    4    4    0    0 -0.57935193354E+02 -0.36412148959E+01 -0.13795486204E+03  0.14967060177E+03  0.00000000000E+00 0.  1.
         12    1    4    4    0    0 -0.51443788564E+02  0.88852456935E+02 -0.24572213094E+03  0.26630919646E+03  0.00000000000E+00 0. -1.
         -5    1    5    5    0  502  0.10467387079E+03  0.94801641122E+01 -0.13875446806E+03  0.17413036825E+03  0.47000000000E+01 0.  1.
         11    1    6    6    0    0  0.54278698849E+02 -0.67685278193E+02 -0.53968871403E+02  0.10217687171E+03  0.00000000000E+00 0. -1.
        -12    1    6    6    0    0 -0.13904301564E+02  0.21790751897E+02 -0.48716493629E+02  0.55149462570E+02  0.00000000000E+00 0.  1.
</event>
<event>
12    1  0.1615162E-001  0.3461003E+03  0.7818608E-02  0.1064343E+00
         21   -1    0    0  501  502  0.00000000000E+00  0.00000000000E+00  0.49225920198E+03  0.49225920198E+03  0.00000000000E+00 0.  1.
         21   -1    0    0  502  503 -0.00000000000E+00 -0.00000000000E+00 -0.59564119075E+03  0.59564119075E+03  0.00000000000E+00 0. -1.
         -6    2    1    2    0  503  0.28543709985E+03  0.92954290500E+02 -0.47052163524E+03  0.58410274142E+03  0.17225145925E+03 0.  0.
        -24    2    3    3    0    0  0.19602250666E+03  0.13045472971E+03 -0.34138828144E+03  0.42255161800E+03  0.80997849028E+02 0.  0.
          6    2    1    2  501    0 -0.28543709985E+03 -0.92954290500E+02  0.36713964647E+03  0.50379765131E+03  0.17001680907E+03 0.  0.
         24    2    5    5    0    0 -0.19254532292E+03 -0.18598909730E+02  0.29546714591E+03  0.36481332771E+03  0.91478461627E+02 0.  0.
          5    1    5    5  501    0 -0.92891776934E+02 -0.74355380770E+02  0.71672500557E+02  0.13898432360E+03  0.47000000000E+01 0. -1.
        -13    1    6    6    0    0 -0.12708294324E+03 -0.55665722131E+02  0.19351134065E+03  0.23810792940E+03  0.00000000000E+00 0.  1.
         14    1    6    6    0    0 -0.65462379673E+02  0.37066812400E+02  0.10195580527E+03  0.12670539831E+03  0.00000000000E+00 0. -1.
         -5    1    3    3    0  503  0.89414593193E+02 -0.37500439206E+02 -0.12913335380E+03  0.16155112342E+03  0.47000000000E+01 0.  1.
         11    1    4    4    0    0  0.85970490139E+02  0.83495552021E+02 -0.22865295490E+03  0.25815616624E+03  0.00000000000E+00 0. -1.
        -12    1    4    4    0    0  0.11005201652E+03  0.46959177685E+02 -0.11273532654E+03  0.16439545176E+03  0.00000000000E+00 0.  1.
</event>
<event>
12    1  0.1615162E-001  0.1773938E+03  0.7818608E-02  0.1170700E+00
         21   -1    0    0  503  502  0.00000000000E+00  0.00000000000E+00  0.81324558178E+03  0.81324558178E+03  0.00000000000E+00 0. -1.
         21   -1    0    0  501  503 -0.00000000000E+00 -0.00000000000E+00 -0.38457569614E+02  0.38457569614E+02  0.00000000000E+00 0.  1.
          6    2    1    2  501    0  0.35921250393E+02 -0.11188792968E+02  0.40725169812E+03  0.44420996304E+03  0.17335806966E+03 0.  0.
         24    2    3    3    0    0  0.31545604224E+02 -0.72723284597E+02  0.29869109414E+03  0.31925743335E+03  0.80156957010E+02 0.  0.
         -6    2    1    2    0  502 -0.35921250393E+02  0.11188792968E+02  0.36753631404E+03  0.40749318836E+03  0.17190762374E+03 0.  0.
        -24    2    5    5    0    0  0.44404817629E+02  0.74929618276E+01  0.14177345459E+03  0.16779150902E+03  0.77629541836E+02 0.  0.
          5    1    3    3  501    0  0.43756461694E+01  0.61534491629E+02  0.10856060398E+03  0.12495252969E+03  0.47000000000E+01 0. -1.
        -11    1    4    4    0    0  0.50536275111E+02 -0.21214581938E+02  0.11248519925E+03  0.12512750952E+03  0.00000000000E+00 0.  1.
         12    1    4    4    0    0 -0.18990670887E+02 -0.51508702659E+02  0.18620589490E+03  0.19412992383E+03  0.00000000000E+00 0. -1.
         -5    1    5    5    0  502 -0.80326068023E+02  0.36958311407E+01  0.22576285945E+03  0.23970167934E+03  0.47000000000E+01 0.  1.
         11    1    6    6    0    0  0.73935452119E+01 -0.40645252889E+01  0.12543088395E+03  0.12571432506E+03  0.00000000000E+00 0. -1.
        -12    1    6    6    0    0  0.37011272418E+02  0.11557487117E+02  0.16342570637E+02  0.42077183953E+02  0.00000000000E+00 0.  1.
</event>
<event>
12    1  0.1615162E-001  0.2331641E+03  0.7818608E-02  0.1125043E+00
         21   -1    0    0  501  502  0.00000000000E+00  0.00000000000E+00  0.11225139131E+03  0.11225139131E+03  0.00000000000E+00 0. -1.
         21   -1    0    0  502  503 -0.00000000000E+00 -0.00000000000E+00 -0.52646780276E+03  0.52646780276E+03  0.00000000000E+00 0. -1.
         -6    2    1    2    0  503  0.11601070818E+03  0.10614026952E+03 -0.30635457175E+03  0.38499168750E+03  0.17216629921E+03 0.  0.
        -24    2    3    3    0    0  0.10485141387E+03  0.89727084109E+02 -0.13311931211E+03  0.21055984497E+03  0.87005335726E+02 0.  0.
          6    2    1    2  501    0 -0.11601070818E+03 -0.10614026952E+03 -0.10786183970E+03  0.25372750657E+03  0.16738945576E+03 0.  0.
         24    2    5    5    0    0 -0.11996497524E+01 -0.17578349824E+02 -0.49269885873E+02  0.97266969020E+02  0.81993317205E+02 0.  0.
          5    1    5    5  501    0 -0.11481105843E+03 -0.88561919697E+02 -0.58591953826E+02  0.15646053755E+03  0.47000000000E+01 0. -1.
        -11    1    6    6    0    0 -0.27152000097E+02  0.22508323247E+02 -0.27803561420E+02  0.44909840261E+02  0.00000000000E+00 0.  1.
         12    1    6    6    0    0  0.25952350345E+02 -0.40086673071E+02 -0.21466324453E+02  0.52357128759E+02  0.00000000000E+00 0. -1.
         -5    1    3    3    0  503  0.11159294312E+02  0.16413185412E+02 -0.17323525964E+03  0.17443184253E+03  0.47000000000E+01 0.  1.
         13    1    4    4    0    0  0.84006389165E+02  0.49597830361E+02 -0.37002622821E+02  0.10433701305E+03  0.00000000000E+00 0. -1.
        -14    1    4    4    0    0  0.20845024703E+02  0.40129253748E+02 -0.96116689285E+02  0.10622283192E+03  0.00000000000E+00 0.  1.
</event>
<event>
12    1  0.1615162E-001  0.1752966E+03  0.7818608E-02  0.1172727E+00
         21   -1    0    0  503  502  0.00000000000E+00  0.00000000000E+00  0.51916699443E+02  0.51916699443E+02  0.00000000000E+00 0. -1.
         21   -1    0    0  501  503 -0.00000000000E+00 -0.00000000000E+00 -0.62726010118E+03  0.62726010118E+03  0.00000000000E+00 0. -1.
          6    2    1    2  501    0  0.35618890633E+02  0.14732084650E+02 -0.20176733704E+03  0.26651715880E+03  0.16981047657E+03 0.  0.
         24    2    3    3    0    0  0.59371278620E+02  0.62512493791E+02 -0.14979448897E+03  0.19188197696E+03  0.83351925898E+02 0.  0.
         -6    2    1    2    0  502 -0.35618890633E+02 -0.14732084650E+02 -0.37357606470E+03  0.41265964182E+03  0.17100632790E+03 0.  0.
        -24    2    5    5    0    0 -0.61307331793E+02  0.37739200900E+02 -0.18071029172E+03  0.21108477184E+03  0.81961790830E+02 0.  0.
          5    1    3    3  501    0 -0.23752387987E+02 -0.47780409141E+02 -0.51972848064E+02  0.74635181842E+02  0.47000000000E+01 0. -1.
        -13    1    4    4    0    0  0.45396093008E+02  0.31766864595E+02 -0.14803407758E+03  0.15806336410E+03  0.00000000000E+00 0.  1.
         14    1    4    4    0    0  0.13975185612E+02  0.30745629195E+02 -0.17604113950E+01  0.33818612860E+02  0.00000000000E+00 0. -1.
         -5    1    5    5    0  502  0.25688441160E+02 -0.52471285550E+02 -0.19286577299E+03  0.20157486998E+03  0.47000000000E+01 0.  1.
         11    1    6    6    0    0 -0.71845999774E+02  0.37023177115E+01 -0.13655299938E+03  0.15434466780E+03  0.00000000000E+00 0. -1.
        -12    1    6    6    0    0  0.10538667981E+02  0.34036883188E+02 -0.44157292340E+02  0.56740104043E+02  0.00000000000E+00 0.  1.
</event>
<event>
12    1  0.1615162E-001  0.1983055E+03  0.7818608E-02  0.1151401E+00
         21   -1    0    0  501  502  0.00000000000E+00  0.00000000000E+00  0.77612216065E+03  0.77612216065E+03  0.00000000000E+00 0.  1.
         21   -1    0    0  502  503 -0.00000000000E+00 -0.00000000000E+00 -0.10694138870E+03  0.10694138870E+03  0.00000000000E+00 0.  1.
         -6    2    1    2    0  503  0.96824758204E+02 -0.28640797467E+01  0.13125459128E+02  0.19769238913E+03  0.17183354238E+03 0.  0.
        -24    2    3    3    0    0  0.41119268650E+02  0.25363303506E+02  0.67366976442E+02  0.11484241066E+03  0.79475646284E+02 0.  0.
          6    2    1    2  501    0 -0.96824758204E+02  0.28640797467E+01  0.65605531282E+03  0.68537116023E+03  0.17303703950E+03 0.  0.
         24    2    5    5    0    0 -0.47543143996E+02 -0.62970072949E+02  0.43329607350E+03  0.44787046157E+03  0.81344221731E+02 0.  0.
          5    1    5    5  501    0 -0.49281614208E+02  0.65834152695E+02  0.22275923932E+03  0.23750069866E+03  0.47000000000E+01 0. -1.
        -13    1    6    6    0    0 -0.55560628215E+02 -0.63174184580E+01  0.22708991712E+03  0.23387330682E+03  0.00000000000E+00 0.  1.
         14    1    6    6    0    0  0.80174842191E+01 -0.56652654491E+02  0.20620615638E+03  0.21399715475E+03  0.00000000000E+00 0. -1.
         -5    1    3    3    0  503  0.55705489554E+02 -0.28227383253E+02 -0.54241517315E+02  0.82849978469E+02  0.47000000000E+01 0.  1.
         11    1    4    4    0    0  0.49842840225E+02  0.35960677999E+02  0.76667754241E+02  0.98262015164E+02  0.00000000000E+00 0. -1.
        -12    1    4    4    0    0 -0.87235715748E+01 -0.10597374492E+02 -0.93007777987E+01  0.16580395496E+02  0.00000000000E+00 0.  1.
</event>
<event>
12    1  0.1615162E-001  0.4234201E+03  0.7818608E-02  0.1036234E+00
         21   -1    0    0  503  502  0.00000000000E+00  0.00000000000E+00  0.11920465114E+04  0.11920465114E+04  0.00000000000E+00 0.  1.
         21   -1    0    0  501  503 -0.00000000000E+00 -0.00000000000E+00 -0.15114795576E+03  0.15114795576E+03  0.00000000000E+00 0. -1.
          6    2    1    2  501    0 -0.26071201172E+03  0.28195992534E+03  0.59472278333E+03  0.72808684892E+03  0.17012677038E+03 0.  0.
         24    2    3    3    0    0 -0.14129666867E+03  0.11575228722E+03  0.39335784610E+03  0.44093718224E+03  0.79573004351E+02 0.  0.
         -6    2    1    2    0  502  0.26071201172E+03 -0.28195992534E+03  0.44617577236E+03  0.61510761828E+03  0.17836033662E+03 0.  0.
        -24    2    5    5    0    0  0.41623358314E+02 -0.12401738629E+03  0.18491751166E+03  0.23931026269E+03  0.77214633637E+02 0.  0.
          5    1    3    3  501    0 -0.11941534306E+03  0.16620763812E+03  0.20136493723E+03  0.28714966668E+03  0.47000000000E+01 0. -1.
        -11    1    4    4    0    0 -0.12224610625E+03  0.12481516002E+03  0.37165416695E+03  0.41066988504E+03  0.00000000000E+00 0.  1.
         12    1    4    4    0    0 -0.19050562412E+02 -0.90628727931E+01  0.21703679147E+02  0.30267297203E+02  0.00000000000E+00 0. -1.
         -5    1    5    5    0  502  0.21908865341E+03 -0.15794253905E+03  0.26125826070E+03  0.37579735560E+03  0.47000000000E+01 0.  1.
         13    1    6    6    0    0  0.31079546196E+02 -0.12398657011E+03  0.12609766176E+03  0.17955285590E+03  0.00000000000E+00 0. -1.
        -14    1    6    6    0    0  0.10543812119E+02 -0.30816181015E-01  0.58819849901E+02  0.59757406788E+02  0.00000000000E+00 0.  1.
</event>
<event>
12    1  0.1615162E-001  0.2224999E+03  0.7818608E-02  0.1132282E+00
         21   -1    0    0  501  502  0.00000000000E+00  0.00000000000E+00  0.12025597711E+03  0.12025597711E+03  0.00000000000E+00 0. -1.
         21   -1    0    0  502  503 -0.00000000000E+00 -0.00000000000E+00 -0.41015764100E+03  0.41015764100E+03  0.00000000000E+00 0. -1.
         -6    2    1    2    0  503 -0.33968227013E+02 -0.13654610674E+03 -0.13241425227E+03  0.25892033408E+03  0.17235871165E+03 0.  0.
        -24    2    3    3    0    0  0.45225245134E+02 -0.45771706574E+02 -0.64036196301E+02  0.12032290880E+03  0.78972121819E+02 0.  0.
          6    2    1    2  501    0  0.33968227013E+02  0.13654610674E+03 -0.15748741162E+03  0.27149328403E+03  0.17060960918E+03 0.  0.
         24    2    5    5    0    0  0.17661712560E+02  0.15355282907E+03 -0.17112291157E+03  0.24386815278E+03  0.79361310886E+02 0.  0.
          5    1    5    5  501    0  0.16306514452E+02 -0.17006722332E+02  0.13635499956E+02  0.27625131259E+02  0.47000000000E+01 0. -1.
        -13    1    6    6    0    0 -0.20268155438E+02  0.56327364124E+01 -0.21425490330E+02  0.30026279826E+02  0.00000000000E+00 0.  1.
         14    1    6    6    0    0  0.37929867998E+02  0.14792009266E+03 -0.14969742124E+03  0.21384187295E+03  0.00000000000E+00 0. -1.
         -5    1    3    3    0  503 -0.79193472146E+02 -0.90774400168E+02 -0.68378055972E+02  0.13859742528E+03  0.47000000000E+01 0.  1.
         13    1    4    4    0    0  0.23443685228E+02  0.13556887446E+02 -0.48011162962E+02  0.55122294430E+02  0.00000000000E+00 0. -1.
        -14    1    4    4    0    0  0.21781559906E+02 -0.59328594020E+02 -0.16025033339E+02  0.65200614367E+02  0.00000000000E+00 0.  1.
</event>
<event>
12    1  0.1615162E-001  0.1978838E+03  0.7818608E-02  0.1151580E+00
         21   -1    0    0  501  502  0.00000000000E+00  0.00000000000E+00  0.98621433735E+02  0.98621433735E+02  0.00000000000E+00 0. -1.
         21   -1    0    0  502  503 -0.00000000000E+00 -0.00000000000E+00 -0.48405665163E+03  0.48405665163E+03  0.00000000000E+00 0.  1.
         -6    2    1    2    0  503  0.26449325502E+02  0.96506554599E+02 -0.31660117046E+03  0.37335543468E+03  0.17071876748E+03 0.  0.
        -24    2    3    3    0    0  0.41753168605E+02 -0.81036644349E+01 -0.15993016459E+03  0.18429089644E+03  0.81095502335E+02 0.  0.
          6    2    1    2  501    0 -0.26449325502E+02 -0.96506554599E+02 -0.68834047438E+02  0.20932265069E+03  0.17048391157E+03 0.  0.
         24    2    5    5    0    0  0.16284997150E+02 -0.94877554557E+02 -0.96869043652E+02  0.15797163330E+03  0.79400716743E+02 0.  0.
          5    1    5    5  501    0 -0.42734322652E+02 -0.16290000414E+01  0.28034996214E+02  0.51351017384E+02  0.47000000000E+01 0. -1.
        -11    1    6    6    0    0 -0.30122401142E+02 -0.37229004068E+02 -0.22006377560E+02  0.52703305852E+02  0.00000000000E+00 0.  1.
         12    1    6    6    0    0  0.46407398293E+02 -0.57648550490E+02 -0.74862666092E+02  0.10526832745E+03  0.00000000000E+00 0. -1.
         -5    1    3    3    0  503 -0.15303843103E+02  0.10461021903E+03 -0.15667100587E+03  0.18906453824E+03  0.47000000000E+01 0.  1.
         11    1    4    4    0    0  0.46737246951E+02  0.22935337289E+02 -0.13324799334E+03  0.14305742790E+03  0.00000000000E+00 0. -1.
        -12    1    4    4    0    0 -0.49840783456E+01 -0.31039001724E+02 -0.26682171249E+02  0.41233468536E+02  0.00000000000E+00 0.  1.
</event>
<event>
12    1  0.1615162E-001  0.1881872E+03  0.7818608E-02  0.1160359E+00
         21   -1    0    0  501  502  0.00000000000E+00  0.00000000000E+00  0.15840804496E+03  0.15840804496E+03  0.00000000000E+00 0. -1.
         21   -1    0    0  502  503 -0.00000000000E+00 -0.00000000000E+00 -0.22967283100E+03  0.22967283100E+03  0.00000000000E+00 0. -1.
         -6    2    1    2    0  503 -0.68859822319E+02 -0.25049974839E+02 -0.70398354012E+02  0.19989169600E+03  0.17213827440E+03 0.  0.
        -24    2    3    3    0    0  0.15306741968E+02 -0.53342699963E+02 -0.23982068456E+02  0.99586908460E+02  0.79137050364E+02 0.  0.
          6    2    1    2  501    0  0.68859822319E+02  0.25049974839E+02 -0.86643203069E+00  0.18818917996E+03  0.17333562928E+03 0.  0.
         24    2    5    5    0    0  0.10675549683E+03  0.46232638470E+02 -0.17586990547E+02  0.14142964123E+03  0.78478329618E+02 0.  0.
          5    1    5    5  501    0 -0.37895674507E+02 -0.21182663631E+02  0.16720558516E+02  0.46759538727E+02  0.47000000000E+01 0. -1.
        -11    1    6    6    0    0  0.53223933834E+02 -0.33725245320E+01 -0.38191433753E+02  0.65595325037E+02  0.00000000000E+00 0.  1.
         12    1    6    6    0    0  0.53531562992E+02  0.49605163002E+02  0.20604443207E+02  0.75834316194E+02  0.00000000000E+00 0. -1.
         -5    1    3    3    0  503 -0.84166564287E+02  0.28292725124E+02 -0.46416285556E+02  0.10030478754E+03  0.47000000000E+01 0.  1.
         13    1    4    4    0    0 -0.10796641178E+02 -0.48274885551E+02  0.15629562270E+02  0.51877887895E+02  0.00000000000E+00 0. -1.
        -14    1    4    4    0    0  0.26103383145E+02 -0.50678144119E+01 -0.39611630726E+02  0.47709020566E+02  0.00000000000E+00 0.  1.
</event>
<event>
12    1  0.1615162E-001  0.1930751E+03  0.7818608E-02  0.1155845E+00
         21   -1    0    0  501  502  0.00000000000E+00  0.00000000000E+00  0.19447378324E+04  0.19447378324E+04  0.00000000000E+00 0. -1.
         21   -1    0    0  502  503 -0.00000000000E+00 -0.00000000000E+00 -0.41860070536E+02  0.41860070536E+02  0.00000000000E+00 0. -1.
         -6    2    1    2    0  503 -0.20861980536E+02  0.85238467963E+02  0.21984031408E+03  0.29258800584E+03  0.17198011168E+03 0.  0.
        -24    2    3    3    0    0 -0.10539073046E+02  0.26837110795E+02  0.21699422259E+03  0.23302735461E+03  0.79899641930E+02 0.  0.
          6    2    1    2  501    0  0.20861980536E+02 -0.85238467963E+02  0.16830374478E+04  0.16940098971E+04  0.17132910487E+03 0.  0.
         24    2    5    5    0    0  0.11183306378E+02 -0.33740728549E+02  0.35629487818E+03  0.36622466225E+03  0.76882767347E+02 0.  0.
          5    1    5    5  501    0  0.96786741584E+01 -0.51497739414E+02  0.13267425696E+04  0.13277852348E+04  0.47000000000E+01 0. -1.
        -11    1    6    6    0    0  0.42063759181E+01 -0.53230041696E+02  0.32014588247E+03  0.32456820084E+03  0.00000000000E+00 0.  1.
         12    1    6    6    0    0  0.69769304594E+01  0.19489313147E+02  0.36148995712E+02  0.41656461402E+02  0.00000000000E+00 0. -1.
         -5    1    3    3    0  503 -0.10322907490E+02  0.58401357168E+02  0.28460914891E+01  0.59560651229E+02  0.47000000000E+01 0.  1.
         11    1    4    4    0    0 -0.12694570944E+02  0.18677852969E+02  0.81445535064E+01  0.24007250463E+02  0.00000000000E+00 0. -1.
        -12    1    4    4    0    0  0.21554978975E+01  0.81592578262E+01  0.20884966909E+03  0.20902010414E+03  0.00000000000E+00 0.  1.
</event>
<event>
12    1  0.1615162E-001  0.2246318E+03  0.7818608E-02  0.1130635E+00
         21   -1    0    0  501  502  0.00000000000E+00  0.00000000000E+00  0.40016393774E+03  0.40016393774E+03  0.00000000000E+00 0.  1.
         21   -1    0    0  502  503 -0.00000000000E+00 -0.00000000000E+00 -0.12915017713E+03  0.12915017713E+03  0.00000000000E+00 0. -1.
         -6    2    1    2    0  503  0.21221850935E+02  0.14274048267E+03  0.17959385799E+03  0.28759934926E+03  0.17214592506E+03 0.  0.
        -24    2    3    3    0    0  0.31097330972E+02  0.83247591620E+02  0.23801830577E+02  0.12047611629E+03  0.77786643800E+02 0.  0.
          6    2    1    2  501    0 -0.21221850935E+02 -0.14274048267E+03  0.91419902621E+02  0.24171476561E+03  0.17100648224E+03 0.  0.
         24    2    5    5    0    0 -0.74177589121E+02 -0.57872177766E+02  0.42301706665E+02  0.13017272619E+03  0.79397736549E+02 0.  0.
          5    1    5    5  501    0  0.52955738186E+02 -0.84868304901E+02  0.49118195957E+02  0.11154203942E+03  0.47000000000E+01 0. -1.
        -11    1    6    6    0    0 -0.21037561851E+02  0.19626658000E+02  0.14253028056E+02  0.32108153507E+02  0.00000000000E+00 0.  1.
         12    1    6    6    0    0 -0.53140027270E+02 -0.77498835766E+02  0.28048678609E+02  0.98064572680E+02  0.00000000000E+00 0. -1.
         -5    1    3    3    0  503 -0.98754800378E+01  0.59492891047E+02  0.15579202742E+03  0.16712323297E+03  0.47000000000E+01 0.  1.
         11    1    4    4    0    0  0.49136066267E+02  0.22836954378E+02  0.37309017642E+01  0.54312053187E+02  0.00000000000E+00 0. -1.
        -12    1    4    4    0    0 -0.18038735294E+02  0.60410637242E+02  0.20070928812E+02  0.66164063104E+02  0.00000000000E+00 0.  1.
</event>
<event>
12    1  0.1615162E-001  0.1829708E+03  0.7818608E-02  0.1165157E+00
         21   -1    0    0  503  502  0.00000000000E+00  0.00000000000E+00  0.22671387338E+02  0.22671387338E+02  0.00000000000E+00 0.  1.
         21   -1    0    0  501  503 -0.00000000000E+00 -0.00000000000E+00 -0.16487905045E+04  0.16487905045E+04  0.00000000000E+00 0.  1.
          6    2    1    2  501    0 -0.35624288323E+02  0.49882381489E+02 -0.10899817922E+04  0.11052323779E+04  0.17239767987E+03 0.  0.
         24    2    3    3    0    0 -0.67199183670E+02  0.75215831491E+02 -0.96129084227E+03  0.97024271797E+03  0.84366443273E+02 0.  0.
         -6    2    1    2    0  502  0.35624288323E+02 -0.49882381489E+02 -0.53613732498E+03  0.56622951391E+03  0.17150886067E+03 0.  0.
        -24    2    5    5    0    0 -0.42292223093E+02 -0.19272169303E+02 -0.35418383623E+03  0.36588698246E+03  0.79164672946E+02 0.  0.
          5    1    3    3  501    0  0.31574895347E+02 -0.25333450002E+02 -0.12869094992E+03  0.13498965996E+03  0.47000000000E+01 0. -1.
        -11    1    4    4    0    0 -0.35200123734E+02  0.84125034531E+02 -0.54013576711E+03  0.54777980709E+03  0.00000000000E+00 0.  1.
         12    1    4    4    0    0 -0.31999059936E+02 -0.89092030398E+01 -0.42115507517E+03  0.42246291089E+03  0.00000000000E+00 0. -1.
         -5    1    5    5    0  502  0.77916511416E+02 -0.30610212185E+02 -0.18195348875E+03  0.20034253146E+03  0.47000000000E+01 0.  1.
         11    1    6    6    0    0  0.11034847687E+01  0.23958583921E+02 -0.17240144719E+03  0.17406174312E+03  0.00000000000E+00 0. -1.
        -12    1    6    6    0    0 -0.43395707862E+02 -0.43230753225E+02 -0.18178238904E+03  0.19182523934E+03  0.00000000000E+00 0.  1.
</event>
<event>
12    1  0.1615162E-001  0.1860705E+03  0.7818608E-02  0.1163770E+00
         21   -1    0    0  503  502  0.00000000000E+00  0.00000000000E+00  0.13667930766E+03  0.13667930766E+03  0.00000000000E+00 0.  1.
         21   -1    0    0  501  503 -0.00000000000E+00 -0.00000000000E+00 -0.24971084188E+03  0.24971084188E+03  0.00000000000E+00 0.  1.
          6    2    1    2  501    0 -0.64402097631E+02  0.32408491037E+02 -0.85800076520E+02  0.19833754167E+03  0.16364041932E+03 0.  0.
         24    2    3    3    0    0 -0.35103587867E+02  0.41218147777E+02 -0.11909357799E+03  0.15287810958E+03  0.79102708436E+02 0.  0.
         -6    2    1    2    0  502  0.64402097631E+02 -0.32408491037E+02 -0.27231457703E+02  0.18805260787E+03  0.17153510010E+03 0.  0.
        -24    2    5    5    0    0  0.55084334748E+02 -0.13471652737E+02  0.47704815249E+02  0.11005927768E+03  0.81372758609E+02 0.  0.
          5    1    3    3  501    0 -0.29298509763E+02 -0.88096567402E+01  0.33293501472E+02  0.45459432096E+02  0.47000000000E+01 0. -1.
        -13    1    4    4    0    0 -0.32847592196E+02  0.20930845212E+02 -0.77933282597E+01  0.39721537731E+02  0.00000000000E+00 0.  1.
         14    1    4    4    0    0 -0.22559956716E+01  0.20287302566E+02 -0.11130024973E+03  0.11315657185E+03  0.00000000000E+00 0. -1.
         -5    1    5    5    0  502  0.93177628822E+01 -0.18936838300E+02 -0.74936272952E+02  0.77993330188E+02  0.47000000000E+01 0.  1.
         13    1    6    6    0    0 -0.16591340125E+02  0.14619522877E+01  0.30651758836E+02  0.34884669862E+02  0.00000000000E+00 0. -1.
        -14    1    6    6    0    0  0.71675674874E+02 -0.14933605025E+02  0.17053056412E+02  0.75174607818E+02  0.00000000000E+00 0.  1.
</event>
<event>
12    1  0.1615162E-001  0.2254740E+03  0.7818608E-02  0.1131697E+00
         21   -1    0    0  503  502  0.00000000000E+00  0.00000000000E+00  0.63415653081E+02  0.63415653081E+02  0.00000000000E+00 0.  1.
         21   -1    0    0  501  503 -0.00000000000E+00 -0.00000000000E+00 -0.94480408222E+03  0.94480408222E+03  0.00000000000E+00 0. -1.
          6    2    1    2  501    0  0.14513138013E+03 -0.62138536585E+01 -0.66745184854E+03  0.70450726746E+03  0.17244358587E+03 0.  0.
         24    2    3    3    0    0  0.16899832958E+03  0.22548459901E+02 -0.55261956134E+03  0.58365427354E+03  0.78708722457E+02 0.  0.
         -6    2    1    2    0  502 -0.14513138013E+03  0.62138536585E+01 -0.21393658060E+03  0.30371246784E+03  0.15928174136E+03 0.  0.
        -24    2    5    5    0    0 -0.14471558726E+03  0.28832151941E+01 -0.23217651793E+03  0.28457999936E+03  0.78287460248E+02 0.  0.
          5    1    3    3  501    0 -0.23866949457E+02 -0.28762313559E+02 -0.11483228720E+03  0.12085299393E+03  0.47000000000E+01 0. -1.
        -13    1    4    4    0    0  0.11126705701E+03 -0.10625711603E+01 -0.23557118561E+03  0.26052882859E+03  0.00000000000E+00 0.  1.
         14    1    4    4    0    0  0.57731272573E+02  0.23611031061E+02 -0.31704837573E+03  0.32312544495E+03  0.00000000000E+00 0. -1.
         -5    1    5    5    0  502 -0.41579286648E+00  0.33306384644E+01  0.18239937332E+02  0.19132468481E+02  0.47000000000E+01 0.  1.
         13    1    6    6    0    0 -0.25663104355E+02 -0.14662461245E+02 -0.10672730926E+03  0.11074430566E+03  0.00000000000E+00 0. -1.
        -14    1    6    6    0    0 -0.11905248290E+03  0.17545676439E+02 -0.12544920867E+03  0.17383569370E+03  0.00000000000E+00 0.  1.
</event>
<event>
12    1  0.1615162E-001  0.2270935E+03  0.7818608E-02  0.1129307E+00
         21   -1    0    0  503  502  0.00000000000E+00  0.00000000000E+00  0.74008834548E+03  0.74008834548E+03  0.00000000000E+00 0.  1.
         21   -1    0    0  501  503 -0.00000000000E+00 -0.00000000000E+00 -0.23497612286E+03  0.23497612286E+03  0.00000000000E+00 0.  1.
          6    2    1    2  501    0  0.14054383286E+03  0.46656278767E+02 -0.15815628230E+03  0.27399629621E+03  0.16772353265E+03 0.  0.
         24    2    3    3    0    0  0.68307385776E+02 -0.23329520605E+02 -0.38461922218E+02  0.11758355301E+03  0.84477257264E+02 0.  0.
         -6    2    1    2    0  502 -0.14054383286E+03 -0.46656278767E+02  0.66326850492E+03  0.70106817212E+03  0.17216879812E+03 0.  0.
        -24    2    5    5    0    0 -0.22047256151E+01  0.22457014712E+01  0.22194530306E+03  0.23596885933E+03  0.80072973173E+02 0.  0.
          5    1    3    3  501    0  0.72236447080E+02  0.69985799372E+02 -0.11969436008E+03  0.15641274320E+03  0.47000000000E+01 0. -1.
        -13    1    4    4    0    0  0.46732693720E+02  0.15368155340E+02 -0.51677489939E+02  0.71349056247E+02  0.00000000000E+00 0.  1.
         14    1    4    4    0    0  0.21574692056E+02 -0.38697675945E+02  0.13215567722E+02  0.46234496765E+02  0.00000000000E+00 0. -1.
         -5    1    5    5    0  502 -0.13833910724E+03 -0.48901980238E+02  0.44132320186E+03  0.46509931279E+03  0.47000000000E+01 0.  1.
         11    1    6    6    0    0  0.11450795531E+02 -0.24673604514E+02  0.25720384231E+02  0.37435887100E+02  0.00000000000E+00 0. -1.
        -12    1    6    6    0    0 -0.13655521146E+02  0.26919305985E+02  0.19622491883E+03  0.19853297223E+03  0.00000000000E+00 0.  1.
</event>
<event>
12    1  0.1615162E-001  0.1718235E+03  0.7818608E-02  0.1176015E+00
         21   -1    0    0  503  502  0.00000000000E+00  0.00000000000E+00  0.41511720130E+02  0.41511720130E+02  0.00000000000E+00 0.  1.
         21   -1    0    0  501  503 -0.00000000000E+00 -0.00000000000E+00 -0.81180957319E+03  0.81180957319E+03  0.00000000000E+00 0.  1.
          6    2    1    2  501    0  0.48377754612E+01  0.74797360430E+01 -0.53580214831E+03  0.56261261303E+03  0.17137578500E+03 0.  0.
         24    2    3    3    0    0 -0.25679951934E+02  0.57105070456E+01 -0.13564141309E+03  0.16125844790E+03  0.83148206546E+02 0.  0.
         -6    2    1    2    0  502 -0.48377754612E+01 -0.74797360430E+01 -0.23449570475E+03  0.29070868029E+03  0.17159239705E+03 0.  0.
        -24    2    5    5    0    0  0.51736003493E+02  0.29773978048E+02 -0.17553928229E+03  0.20078437085E+03  0.77053358947E+02 0.  0.
          5    1    3    3  501    0  0.30517727395E+02  0.17692289975E+01 -0.40016073522E+03  0.40135416513E+03  0.47000000000E+01 0. -1.
        -11    1    4    4    0    0 -0.39672383526E+02  0.35435018322E+02 -0.96194730512E+02  0.10992253962E+03  0.00000000000E+00 0.  1.
         12    1    4    4    0    0  0.13992431592E+02 -0.29724511277E+02 -0.39446682582E+02  0.51335908283E+02  0.00000000000E+00 0. -1.
         -5    1    5    5    0  502 -0.56573778955E+02 -0.37253714091E+02 -0.58956422462E+02  0.89924309440E+02  0.47000000000E+01 0.  1.
         13    1    6    6    0    0 -0.17903144901E+02  0.19900802969E+02 -0.40917430627E+02  0.48895814599E+02  0.00000000000E+00 0. -1.
        -14    1    6    6    0    0  0.69639148395E+02  0.98731750788E+01 -0.13462185166E+03  0.15188855625E+03  0.00000000000E+00 0.  1.
</event>
<event>
12    1  0.1615162E-001  0.1984439E+03  0.7818608E-02  0.1151185E+00
         21   -1    0    0  501  502  0.00000000000E+00  0.00000000000E+00  0.46352367835E+02  0.46352367835E+02  0.00000000000E+00 0.  1.
         21   -1    0    0  502  503 -0.00000000000E+00 -0.00000000000E+00 -0.14582114889E+04  0.14582114889E+04  0.00000000000E+00 0.  1.
         -6    2    1    2    0  503 -0.12404151141E+02 -0.98350580279E+02 -0.11923408800E+04  0.12086445673E+04  0.17122562977E+03 0.  0.
        -24    2    3    3    0    0  0.22817224769E+01 -0.66907936899E+02 -0.33976144112E+03  0.35534619959E+03  0.79694456596E+02 0.  0.
          6    2    1    2  501    0  0.12404151141E+02  0.98350580279E+02 -0.21951824107E+03  0.29591928946E+03  0.17191063989E+03 0.  0.
         24    2    5    5    0    0  0.48012680535E+02  0.12267797730E+03 -0.15423117218E+03  0.21753382540E+03  0.78604116395E+02 0.  0.
          5    1    5    5  501    0 -0.35608529394E+02 -0.24327397024E+02 -0.65287068895E+02  0.78385464064E+02  0.47000000000E+01 0. -1.
        -13    1    6    6    0    0  0.28487314430E+02  0.30372612062E+02 -0.63557465632E+01  0.42123843145E+02  0.00000000000E+00 0.  1.
         14    1    6    6    0    0  0.19525366105E+02  0.92305365240E+02 -0.14787542561E+03  0.17540998225E+03  0.00000000000E+00 0. -1.
         -5    1    3    3    0  503 -0.14685873617E+02 -0.31442643380E+02 -0.85257943888E+03  0.85329836769E+03  0.47000000000E+01 0.  1.
         13    1    4    4    0    0 -0.37086145455E+02 -0.42077801638E+02 -0.15581900260E+03  0.16560641638E+03  0.00000000000E+00 0. -1.
        -14    1    4    4    0    0  0.39367867932E+02 -0.24830135260E+02 -0.18394243852E+03  0.18973978321E+03  0.00000000000E+00 0.  1.
</event>
<event>
12    1  0.1615162E-001  0.2197084E+03  0.7818608E-02  0.1137168E+00
         21   -1    0    0  503  502  0.00000000000E+00  0.00000000000E+00  0.43960916003E+02  0.43960916003E+02  0.00000000000E+00 0.  1.
         21   -1    0    0  501  503 -0.00000000000E+00 -0.00000000000E+00 -0.14150826012E+04  0.14150826012E+04  0.00000000000E+00 0. -1.
          6    2    1    2  501    0  0.11399450618E+03  0.76210346507E+02 -0.10521311935E+04  0.10717106947E+04  0.15093376146E+03 0.  0.
         24    2    3    3    0    0  0.45088244777E+02  0.87405131502E+02 -0.78833168360E+03  0.79879006976E+03  0.83223346156E+02 0.  0.
         -6    2    1    2    0  502 -0.11399450618E+03 -0.76210346507E+02 -0.31899049168E+03  0.38733282254E+03  0.17166542248E+03 0.  0.
        -24    2    5    5    0    0 -0.64438200862E+02 -0.10200768696E+03 -0.29016566188E+03  0.32429084458E+03  0.80066163999E+02 0.  0.
          5    1    3    3  501    0  0.68906261399E+02 -0.11194784995E+02 -0.26379950995E+03  0.27292062495E+03  0.47000000000E+01 0. -1.
        -13    1    4    4    0    0  0.15192570908E+02  0.89557897155E+01 -0.23587075093E+02  0.29451154335E+02  0.00000000000E+00 0.  1.
         14    1    4    4    0    0  0.29895673869E+02  0.78449341786E+02 -0.76474460850E+03  0.76933891542E+03  0.00000000000E+00 0. -1.
         -5    1    5    5    0  502 -0.49556305314E+02  0.25797340456E+02 -0.28824829807E+02  0.63041977955E+02  0.47000000000E+01 0.  1.
         13    1    6    6    0    0  0.74255761283E+01  0.75852261229E+01 -0.45661445360E+02  0.46879019065E+02  0.00000000000E+00 0. -1.
        -14    1    6    6    0    0 -0.71863776990E+02 -0.10959291309E+03 -0.24450421652E+03  0.27741182552E+03  0.00000000000E+00 0.  1.
</event>
<event>
12    1  0.1615162E-001  0.2262774E+03  0.7818608E-02  0.1129299E+00
         21   -1    0    0  503  502  0.00000000000E+00  0.00000000000E+00  0.12535871245E+03  0.12535871245E+03  0.00000000000E+00 0.  1.
         21   -1    0    0  501  503 -0.00000000000E+00 -0.00000000000E+00 -0.65116999531E+03  0.65116999531E+03  0.00000000000E+00 0. -1.
          6    2    1    2  501    0 -0.12971975170E+03  0.67123170991E+02 -0.25778692605E+02  0.22768075894E+03  0.17274620961E+03 0.  0.
         24    2    3    3    0    0 -0.31700133594E+02  0.89430788606E+02 -0.13191168745E+01  0.12411514601E+03  0.80000406119E+02 0.  0.
         -6    2    1    2    0  502  0.12971975170E+03 -0.67123170991E+02 -0.50003259025E+03  0.54884794882E+03  0.17282576645E+03 0.  0.
        -24    2    5    5    0    0  0.64264443135E+02 -0.90786857398E+02 -0.42514142379E+03  0.44649979648E+03  0.79023198566E+02 0.  0.
          5    1    3    3  501    0 -0.98019618101E+02 -0.22307617615E+02 -0.24459575730E+02  0.10356561293E+03  0.47000000000E+01 0. -1.
        -13    1    4    4    0    0 -0.31011108614E+02  0.50826565901E+02  0.36688623845E+02  0.69936283704E+02  0.00000000000E+00 0.  1.
         14    1    4    4    0    0 -0.68902497988E+00  0.38604222706E+02 -0.38007740720E+02  0.54178862306E+02  0.00000000000E+00 0. -1.
         -5    1    5    5    0  502  0.65455308561E+02  0.23663686406E+02 -0.74891166464E+02  0.10234815234E+03  0.47000000000E+01 0.  1.
         13    1    6    6    0    0  0.63710968893E+02 -0.27249325263E+02 -0.27226581961E+03  0.28094535023E+03  0.00000000000E+00 0. -1.
        -14    1    6    6    0    0  0.55347424184E+00 -0.63537532134E+02 -0.15287560418E+03  0.16555444626E+03  0.00000000000E+00 0.  1.
</event>
<event>
12    1  0.1615162E-001  0.2426986E+03  0.7818608E-02  0.1118122E+00
         21   -1    0    0  503  502  0.00000000000E+00  0.00000000000E+00  0.32804758420E+03  0.32804758420E+03  0.00000000000E+00 0. -1.
         21   -1    0    0  501  503 -0.00000000000E+00 -0.00000000000E+00 -0.19182853250E+03  0.19182853250E+03  0.00000000000E+00 0. -1.
          6    2    1    2  501    0  0.13714420068E+03 -0.99880012019E+02  0.90500526291E+00  0.24200477544E+03  0.17257156116E+03 0.  0.
         24    2    3    3    0    0  0.15986348901E+03 -0.11304677853E+03 -0.12702886369E+02  0.21205824781E+03  0.80445185602E+02 0.  0.
         -6    2    1    2    0  502 -0.13714420068E+03  0.99880012019E+02  0.13531404644E+03  0.27787134126E+03  0.17354550570E+03 0.  0.
        -24    2    5    5    0    0 -0.70745149446E+02  0.97870083650E+02  0.21323847570E+02  0.14585342863E+03  0.78962565332E+02 0.  0.
          5    1    3    3  501    0 -0.22719288329E+02  0.13166766514E+02  0.13607891631E+02  0.29946527633E+02  0.47000000000E+01 0. -1.
        -11    1    4    4    0    0  0.57680832944E+02 -0.35856319678E+02  0.33739159197E+02  0.75835908469E+02  0.00000000000E+00 0.  1.
         12    1    4    4    0    0  0.10218265607E+03 -0.77190458855E+02 -0.46442045566E+02  0.13622233934E+03  0.00000000000E+00 0. -1.
         -5    1    5    5    0  502 -0.66399051237E+02  0.20099283692E+01  0.11399019887E+03  0.13201791263E+03  0.47000000000E+01 0.  1.
         13    1    6    6    0    0 -0.75997805801E+02  0.71063998474E+02 -0.97233563435E+01  0.10450024892E+03  0.00000000000E+00 0. -1.
        -14    1    6    6    0    0  0.52526563549E+01  0.26806085176E+02  0.31047203913E+02  0.41353179709E+02  0.00000000000E+00 0.  1.
</event>
<event>
12    1  0.1615162E-001  0.1928407E+03  0.7818608E-02  0.1156014E+00
         21   -1    0    0  503  502  0.00000000000E+00  0.00000000000E+00  0.49808190185E+03  0.49808190185E+03  0.00000000000E+00 0. -1.
         21   -1    0    0  501  503 -0.00000000000E+00 -0.00000000000E+00 -0.34473368024E+03  0.34473368024E+03  0.00000000000E+00 0. -1.
          6    2    1    2  501    0  0.83300730938E+02  0.14885780761E+02 -0.29641048376E+03  0.35361944786E+03  0.17328283463E+03 0.  0.
         24    2    3    3    0    0  0.10136648424E+03 -0.28130170946E+02 -0.26637421958E+03  0.29793272853E+03  0.82110993326E+02 0.  0.
         -6    2    1    2    0  502 -0.83300730938E+02 -0.14885780761E+02  0.44975870537E+03  0.48919613423E+03  0.17282756275E+03 0.  0.
        -24    2    5    5    0    0  0.16133862375E+02  0.26587521835E+02  0.15370702396E+03  0.17411525376E+03  0.75651004907E+02 0.  0.
          5    1    3    3  501    0 -0.18065753306E+02  0.43015951707E+02 -0.30036264177E+02  0.55686719328E+02  0.47000000000E+01 0. -1.
        -11    1    4    4    0    0  0.73110895960E+02  0.10855034868E+02 -0.97622694891E+02  0.12244682702E+03  0.00000000000E+00 0.  1.
         12    1    4    4    0    0  0.28255588283E+02 -0.38985205815E+02 -0.16875152469E+03  0.17548590151E+03  0.00000000000E+00 0. -1.
         -5    1    5    5    0  502 -0.99434593312E+02 -0.41473302596E+02  0.29605168141E+03  0.31508088047E+03  0.47000000000E+01 0.  1.
         13    1    6    6    0    0  0.15865821173E+02  0.45814621936E+02  0.14521414733E+03  0.15309426002E+03  0.00000000000E+00 0. -1.
        -14    1    6    6    0    0  0.26804120162E+00 -0.19227100101E+02  0.84928766289E+01  0.21020993740E+02  0.00000000000E+00 0.  1.
</event>
<event>
12    1  0.1615162E-001  0.1959617E+03  0.7818608E-02  0.1153324E+00
         21   -1    0    0  503  502  0.00000000000E+00  0.00000000000E+00  0.65421736533E+02  0.65421736533E+02  0.00000000000E+00 0. -1.
         21   -1    0    0  501  503 -0.00000000000E+00 -0.00000000000E+00 -0.63959000950E+03  0.63959000950E+03  0.00000000000E+00 0. -1.
          6    2    1    2  501    0 -0.92336492894E+02 -0.10361809653E+02 -0.38952101024E+03  0.43576168467E+03  0.17183781130E+03 0.  0.
         24    2    3    3    0    0 -0.89189452608E+02 -0.16419857193E+02 -0.13576638356E+03  0.18187173930E+03  0.80127701096E+02 0.  0.
         -6    2    1    2    0  502  0.92336492894E+02  0.10361809653E+02 -0.18464726272E+03  0.26925006135E+03  0.17253286322E+03 0.  0.
        -24    2    5    5    0    0  0.73034125138E+02  0.38770487226E+02 -0.42670594751E+02  0.12310253790E+03  0.80599758484E+02 0.  0.
          5    1    3    3  501    0 -0.31470402857E+01  0.60580475393E+01 -0.25375462668E+03  0.25388994538E+03  0.47000000000E+01 0. -1.
        -11    1    4    4    0    0 -0.58767625338E+02 -0.39760117874E+02 -0.12199726885E+03  0.14113055788E+03  0.00000000000E+00 0.  1.
         12    1    4    4    0    0 -0.30421827270E+02  0.23340260681E+02 -0.13769114710E+02  0.40741181414E+02  0.00000000000E+00 0. -1.
         -5    1    5    5    0  502  0.19302367755E+02 -0.28408677573E+02 -0.14197666797E+03  0.14614752345E+03  0.47000000000E+01 0.  1.
         11    1    6    6    0    0  0.21035069293E+02  0.17346644510E+02  0.23687935317E+02  0.36117841789E+02  0.00000000000E+00 0. -1.
        -12    1    6    6    0    0  0.51999055845E+02  0.21423842716E+02 -0.66358530068E+02  0.86984696116E+02  0.00000000000E+00 0.  1.
</event>
<event>
12    1  0.1615162E-001  0.2021305E+03  0.7818608E-02  0.1148300E+00
         21   -1    0    0  503  502  0.00000000000E+00  0.00000000000E+00  0.11421017715E+03  0.11421017715E+03  0.00000000000E+00 0.  1.
         21   -1    0    0  501  503 -0.00000000000E+00 -0.00000000000E+00 -0.38965692406E+03  0.38965692406E+03  0.00000000000E+00 0. -1.
          6    2    1    2  501    0  0.55831898899E+02  0.87241205404E+02 -0.61869430412E+02  0.20980584514E+03  0.17164625653E+03 0.  0.
         24    2    3    3    0    0  0.59682250583E+02  0.12104985525E+03 -0.23547897825E+02  0.15834246134E+03  0.79390132135E+02 0.  0.
         -6    2    1    2    0  502 -0.55831898899E+02 -0.87241205404E+02 -0.21357731649E+03  0.29406125606E+03  0.17357569917E+03 0.  0.
        -24    2    5    5    0    0 -0.36551536355E+02 -0.12507302206E+03 -0.18261036267E+03  0.24129743361E+03  0.88874244037E+02 0.  0.
          5    1    3    3  501    0 -0.38503516843E+01 -0.33808649846E+02 -0.38321532587E+02  0.51463383802E+02  0.47000000000E+01 0. -1.
        -11    1    4    4    0    0  0.52280046719E+02  0.11309222313E+03  0.81256046107E+01  0.12485623600E+03  0.00000000000E+00 0.  1.
         12    1    4    4    0    0  0.74022038642E+01  0.79576321186E+01 -0.31673502435E+02  0.33486225340E+02  0.00000000000E+00 0. -1.
         -5    1    5    5    0  502 -0.19280362544E+02  0.37831816657E+02 -0.30966953823E+02  0.52763822459E+02  0.47000000000E+01 0.  1.
         11    1    6    6    0    0 -0.16256041749E+02 -0.32936904234E+02 -0.12606076207E+03  0.13130275811E+03  0.00000000000E+00 0. -1.
        -12    1    6    6    0    0 -0.20295494605E+02 -0.92136117826E+02 -0.56549600601E+02  0.10999467550E+03  0.00000000000E+00 0.  1.
</event>
<event>
12    1  0.1615162E-001  0.1774853E+03  0.7818608E-02  0.1170264E+00
         21   -1    0    0  503  502  0.00000000000E+00  0.00000000000E+00  0.92699520040E+03  0.92699520040E+03  0.00000000000E+00 0. -1.
         21   -1    0    0  501  503 -0.00000000000E+00 -0.00000000000E+00 -0.46457297309E+02  0.46457297309E+02  0.00000000000E+00 0. -1.
          6    2    1    2  501    0 -0.41083812717E+02  0.30792740893E+01  0.18799088179E+03  0.25852423383E+03  0.17261763017E+03 0.  0.
         24    2    3    3    0    0 -0.31249441758E+02  0.46440211103E+02  0.18997880017E+03  0.21377015547E+03  0.80451936179E+02 0.  0.
         -6    2    1    2    0  502  0.41083812717E+02 -0.30792740893E+01  0.69254702130E+03  0.71492826388E+03  0.17263743565E+03 0.  0.
        -24    2    5    5    0    0 -0.44546402763E+01  0.52285621623E+02  0.49750262139E+03  0.50707391508E+03  0.82833972608E+02 0.  0.
          5    1    3    3  501    0 -0.98343709593E+01 -0.43360937014E+02 -0.19879183792E+01  0.44754078366E+02  0.47000000000E+01 0. -1.
        -13    1    4    4    0    0 -0.17301743290E+02 -0.19454902778E+02  0.86231402267E+02  0.90076069519E+02  0.00000000000E+00 0.  1.
         14    1    4    4    0    0 -0.13947698468E+02  0.65895113881E+02  0.10374739791E+03  0.12369408595E+03  0.00000000000E+00 0. -1.
         -5    1    5    5    0  502  0.45538452993E+02 -0.55364895712E+02  0.19504439991E+03  0.20785434880E+03  0.47000000000E+01 0.  1.
         13    1    6    6    0    0  0.56004173523E+01  0.50206108642E+02  0.49345969561E+03  0.49603879809E+03  0.00000000000E+00 0. -1.
        -14    1    6    6    0    0 -0.10055057629E+02  0.20795129811E+01  0.40429257801E+01  0.11035116992E+02  0.00000000000E+00 0.  1.
</event>
<event>
12    1  0.1615162E-001  0.1744660E+03  0.7818608E-02  0.1173419E+00
         21   -1    0    0  503  502  0.00000000000E+00  0.00000000000E+00  0.11501717328E+03  0.11501717328E+03  0.00000000000E+00 0. -1.
         21   -1    0    0  501  503 -0.00000000000E+00 -0.00000000000E+00 -0.26375001064E+03  0.26375001064E+03  0.00000000000E+00 0. -1.
          6    2    1    2  501    0 -0.20051635237E+02 -0.20684042031E+02 -0.73264918347E+02  0.18922507086E+03  0.17207115246E+03 0.  0.
         24    2    3    3    0    0 -0.13088828920E+02 -0.77704392179E+02 -0.68353989217E+02  0.13138038028E+03  0.79870185145E+02 0.  0.
         -6    2    1    2    0  502  0.20051635237E+02  0.20684042031E+02 -0.75467919014E+02  0.18954211306E+03  0.17146693020E+03 0.  0.
        -24    2    5    5    0    0  0.65169366460E+01  0.31547289640E+02 -0.11723914915E+03  0.14406548300E+03  0.77279643836E+02 0.  0.
          5    1    3    3  501    0 -0.69628063175E+01  0.57020350148E+02 -0.49109291299E+01  0.57844690575E+02  0.47000000000E+01 0. -1.
        -11    1    4    4    0    0 -0.12254629746E+02  0.57354537128E+01  0.10070749974E+02  0.16866872399E+02  0.00000000000E+00 0.  1.
         12    1    4    4    0    0 -0.83419917378E+00 -0.83439845892E+02 -0.78424739191E+02  0.11451350788E+03  0.00000000000E+00 0. -1.
         -5    1    5    5    0  502  0.13534698591E+02 -0.10863247608E+02  0.41771230136E+02  0.45476630060E+02  0.47000000000E+01 0.  1.
         13    1    6    6    0    0  0.28841127260E+02  0.10525771511E+01 -0.10297637357E+02  0.30642452177E+02  0.00000000000E+00 0. -1.
        -14    1    6    6    0    0 -0.22324190614E+02  0.30494712488E+02 -0.10694151179E+03  0.11342303082E+03  0.00000000000E+00 0.  1.
</event>
<event>
12    1  0.1615162E-001  0.1781608E+03  0.7818608E-02  0.1169883E+00
         21   -1    0    0  503  502  0.00000000000E+00  0.00000000000E+00  0.15827458324E+03  0.15827458324E+03  0.00000000000E+00 0. -1.
         21   -1    0    0  501  503 -0.00000000000E+00 -0.00000000000E+00 -0.21232739542E+03  0.21232739542E+03  0.00000000000E+00 0.  1.
          6    2    1    2  501    0  0.43644781180E+02  0.14513740446E+02 -0.73130916309E+02  0.19258612523E+03  0.17212137905E+03 0.  0.
         24    2    3    3    0    0 -0.18696050250E+02  0.55529970666E+02 -0.55591867159E+02  0.11578496216E+03  0.82961327317E+02 0.  0.
         -6    2    1    2    0  502 -0.43644781180E+02 -0.14513740446E+02  0.19078104128E+02  0.17801585343E+03  0.17090978448E+03 0.  0.
        -24    2    5    5    0    0  0.12986803487E+02 -0.20545067459E+01  0.65357833672E+02  0.10367695209E+03  0.79400163156E+02 0.  0.
          5    1    3    3  501    0  0.62340831430E+02 -0.41016230219E+02 -0.17539049150E+02  0.76801163076E+02  0.47000000000E+01 0. -1.
        -13    1    4    4    0    0 -0.26148646617E+02 -0.39301700689E+01 -0.48764029570E+02  0.55471871580E+02  0.00000000000E+00 0.  1.
         14    1    4    4    0    0  0.74525963673E+01  0.59460140734E+02 -0.68278375895E+01  0.60313090577E+02  0.00000000000E+00 0. -1.
         -5    1    5    5    0  502 -0.56631584667E+02 -0.12459233700E+02 -0.46279729544E+02  0.74338901343E+02  0.47000000000E+01 0.  1.
         11    1    6    6    0    0 -0.15937737444E+02  0.26508902370E+02  0.52689855344E+02  0.61097906968E+02  0.00000000000E+00 0. -1.
        -12    1    6    6    0    0  0.28924540931E+02 -0.28563409116E+02  0.12667978328E+02  0.42579045120E+02  0.00000000000E+00 0.  1.
</event>
<event>
12    1  0.1615162E-001  0.2239715E+03  0.7818608E-02  0.1130966E+00
         21   -1    0    0  501  502  0.00000000000E+00  0.00000000000E+00  0.11971141874E+04  0.11971141874E+04  0.00000000000E+00 0. -1.
         21   -1    0    0  502  503 -0.00000000000E+00 -0.00000000000E+00 -0.62770619926E+02  0.62770619926E+02  0.00000000000E+00 0. -1.
         -6    2    1    2    0  503  0.11076588946E+03 -0.91739075594E+02  0.20383020770E+03  0.30279633690E+03  0.17162088396E+03 0.  0.
        -24    2    3    3    0    0  0.26709462467E+02 -0.10598579153E+03  0.13065596595E+03  0.19034629693E+03  0.84937317622E+02 0.  0.
          6    2    1    2  501    0 -0.11076588946E+03  0.91739075594E+02  0.93051335976E+03  0.95708847041E+03  0.17169183801E+03 0.  0.
         24    2    5    5    0    0 -0.12425447268E+03  0.30873550448E+02  0.76931023224E+03  0.78418649717E+03  0.81962667180E+02 0.  0.
          5    1    5    5  501    0  0.13488583219E+02  0.60865525146E+02  0.16120312752E+03  0.17290197324E+03  0.47000000000E+01 0. -1.
        -13    1    6    6    0    0 -0.20957425048E+02  0.12084950046E+00  0.36981085610E+03  0.37040423534E+03  0.00000000000E+00 0.  1.
         14    1    6    6    0    0 -0.10329704763E+03  0.30752700947E+02  0.39949937614E+03  0.41378226183E+03  0.00000000000E+00 0. -1.
         -5    1    3    3    0  503  0.84056426996E+02  0.14246715939E+02  0.73174241752E+02  0.11245003998E+03  0.47000000000E+01 0.  1.
         11    1    4    4    0    0  0.32850296357E+02 -0.16663193929E+02  0.78541841580E+02  0.86750359547E+02  0.00000000000E+00 0. -1.
        -12    1    4    4    0    0 -0.61408338900E+01 -0.89322597604E+02  0.52114124368E+02  0.10359593738E+03  0.00000000000E+00 0.  1.
</event>
<event>
12    1  0.1615162E-001  0.1996482E+03  0.7818608E-02  0.1150538E+00
         21   -1    0    0  503  502  0.00000000000E+00  0.00000000000E+00  0.71082808825E+03  0.71082808825E+03  0.00000000000E+00 0. -1.
         21   -1    0    0  501  503 -0.00000000000E+00 -0.00000000000E+00 -0.80072611023E+02  0.80072611023E+02  0.00000000000E+00 0.  1.
          6    2    1    2  501    0  0.95769746442E+01  0.10379413229E+03  0.97226761966E+02  0.22206408730E+03  0.17027764176E+03 0.  0.
         24    2    3    3    0    0  0.37937263047E+02  0.89294665882E+02  0.62962534036E+01  0.12560172224E+03  0.79519661351E+02 0.  0.
         -6    2    1    2    0  502 -0.95769746442E+01 -0.10379413229E+03  0.53352871526E+03  0.56883661197E+03  0.16750301721E+03 0.  0.
        -24    2    5    5    0    0 -0.33856381704E+02 -0.81012173245E+02  0.51844603329E+03  0.53198441312E+03  0.80696341740E+02 0.  0.
          5    1    3    3  501    0 -0.28360288402E+02  0.14499466405E+02  0.90930508562E+02  0.96462365054E+02  0.47000000000E+01 0. -1.
        -11    1    4    4    0    0  0.19531036861E+02  0.10023807289E+03  0.13493794147E+02  0.10301075254E+03  0.00000000000E+00 0.  1.
         12    1    4    4    0    0  0.18406226185E+02 -0.10943407012E+02 -0.71975407432E+01  0.22590969704E+02  0.00000000000E+00 0. -1.
         -5    1    5    5    0  502  0.24279407059E+02 -0.22781959042E+02  0.15082681967E+02  0.36852198852E+02  0.47000000000E+01 0.  1.
         11    1    6    6    0    0 -0.38105061163E+00 -0.38323560416E+02  0.39852804094E+03  0.40036663185E+03  0.00000000000E+00 0. -1.
        -12    1    6    6    0    0 -0.33475331092E+02 -0.42688612829E+02  0.11991799235E+03  0.13161778127E+03  0.00000000000E+00 0.  1.
</event>
<event>
12    1  0.1615162E-001  0.2353130E+03  0.7818608E-02  0.1123105E+00
         21   -1    0    0  501  502  0.00000000000E+00  0.00000000000E+00  0.39225395548E+03  0.39225395548E+03  0.00000000000E+00 0. -1.
         21   -1    0    0  502  503 -0.00000000000E+00 -0.00000000000E+00 -0.18379047099E+03  0.18379047099E+03  0.00000000000E+00 0. -1.
         -6    2    1    2    0  503  0.11709053876E+01  0.16006159816E+03 -0.35177545485E+02  0.23792783202E+03  0.17248509304E+03 0.  0.
        -24    2    3    3    0    0 -0.44220114110E+01  0.18444425838E+02 -0.43400266922E+02  0.95884150846E+02  0.83369276027E+02 0.  0.
          6    2    1    2  501    0 -0.11709053876E+01 -0.16006159816E+03  0.24364102998E+03  0.33811659445E+03  0.17129154598E+03 0.  0.
         24    2    5    5    0    0 -0.40204461557E+02 -0.25294225147E+02  0.94635264190E+02  0.13339563417E+03  0.81131778193E+02 0.  0.
          5    1    5    5  501    0  0.39033556170E+02 -0.13476737301E+03  0.14900576579E+03  0.20472096027E+03  0.47000000000E+01 0. -1.
        -11    1    6    6    0    0 -0.62680647354E+02 -0.30014702422E+02  0.80833116013E+02  0.10660083751E+03  0.00000000000E+00 0.  1.
         12    1    6    6    0    0  0.22476185796E+02  0.47204772744E+01  0.13802148177E+02  0.26794796658E+02  0.00000000000E+00 0. -1.
         -5    1    3    3    0  503  0.55929167986E+01  0.14161717232E+03  0.82227214372E+01  0.14204368118E+03  0.47000000000E+01 0.  1.
         11    1    4    4    0    0 -0.25976914501E+02 -0.10755611503E+02  0.11247686081E+02  0.30281903969E+02  0.00000000000E+00 0. -1.
        -12    1    4    4    0    0  0.21554903090E+02  0.29200037342E+02 -0.54647953003E+02  0.65602246878E+02  0.00000000000E+00 0.  1.
</event>
<event>
12    1  0.1615162E-001  0.2153221E+03  0.7818608E-02  0.1138222E+00
         21   -1    0    0  501  502  0.00000000000E+00  0.00000000000E+00  0.52411549977E+03  0.52411549977E+03  0.00000000000E+00 0.  1.
         21   -1    0    0  502  503 -0.00000000000E+00 -0.00000000000E+00 -0.92121296362E+02  0.92121296362E+02  0.00000000000E+00 0. -1.
         -6    2    1    2    0  503 -0.11519883978E+03 -0.49426727384E+02  0.14369360795E+03  0.25886573897E+03  0.17507096784E+03 0.  0.
        -24    2    3    3    0    0 -0.78618115497E+02 -0.87504508139E+02  0.14625525733E+03  0.20579296984E+03  0.84393714863E+02 0.  0.
          6    2    1    2  501    0  0.11519883978E+03  0.49426727384E+02  0.28830059546E+03  0.35737105716E+03  0.16995018414E+03 0.  0.
         24    2    5    5    0    0  0.59009206845E+02  0.95274317412E+02  0.17464665237E+03  0.22246892546E+03  0.80197802692E+02 0.  0.
          5    1    5    5  501    0  0.56189632936E+02 -0.45847590028E+02  0.11365394308E+03  0.13490213171E+03  0.47000000000E+01 0. -1.
        -11    1    6    6    0    0 -0.85558872140E+01  0.60308499276E+02  0.89805114259E+02  0.10851394767E+03  0.00000000000E+00 0.  1.
         12    1    6    6    0    0  0.67565094059E+02  0.34965818136E+02  0.84841538116E+02  0.11395497779E+03  0.00000000000E+00 0. -1.
         -5    1    3    3    0  503 -0.36580724284E+02  0.38077780755E+02 -0.25616493773E+01  0.53072769137E+02  0.47000000000E+01 0.  1.
         11    1    4    4    0    0 -0.23224261996E+02 -0.17267773182E+02 -0.56688948185E+01  0.29490315434E+02  0.00000000000E+00 0. -1.
        -12    1    4    4    0    0 -0.55393853501E+02 -0.70236734957E+02  0.15192415215E+03  0.17630265440E+03  0.00000000000E+00 0.  1.
</event>
<event>
12    1  0.1615162E-001  0.1852527E+03  0.7818608E-02  0.1163621E+00
         21   -1    0    0  503  502  0.00000000000E+00  0.00000000000E+00  0.74886244540E+03  0.74886244540E+03  0.00000000000E+00 0.  1.
         21   -1    0    0  501  503 -0.00000000000E+00 -0.00000000000E+00 -0.16691464597E+03  0.16691464597E+03  0.00000000000E+00 0.  1.
          6    2    1    2  501    0 -0.62807318402E+02  0.31401937226E+02 -0.99643216705E+02  0.21035048975E+03  0.17142846029E+03 0.  0.
         24    2    3    3    0    0  0.33490677209E+02  0.17900408864E+02 -0.48082564382E+02  0.10018613029E+03  0.79267128168E+02 0.  0.
         -6    2    1    2    0  502  0.62807318402E+02 -0.31401937226E+02  0.68159101614E+03  0.70542660162E+03  0.16771862175E+03 0.  0.
        -24    2    5    5    0    0  0.37352572444E+01 -0.92636120453E+00  0.56877464038E+03  0.57440029212E+03  0.80101771190E+02 0.  0.
          5    1    3    3  501    0 -0.96297995611E+02  0.13501528362E+02 -0.51560652323E+02  0.11016435946E+03  0.47000000000E+01 0. -1.
        -13    1    4    4    0    0 -0.14547009427E+02  0.27109509616E+02  0.11491570653E+01  0.30787360342E+02  0.00000000000E+00 0.  1.
         14    1    4    4    0    0  0.48037686636E+02 -0.92091007515E+01 -0.49231721447E+02  0.69398769951E+02  0.00000000000E+00 0. -1.
         -5    1    5    5    0  502  0.59072061157E+02 -0.30475576021E+02  0.11281637575E+03  0.13102630950E+03  0.47000000000E+01 0.  1.
         11    1    6    6    0    0  0.31204027343E+02  0.56677132833E+00  0.98594735465E+02  0.10341631599E+03  0.00000000000E+00 0. -1.
        -12    1    6    6    0    0 -0.27468770098E+02 -0.14931325329E+01  0.47017990492E+03  0.47098397612E+03  0.00000000000E+00 0.  1.
</event>
<event>
12    1  0.1615162E-001  0.2636101E+03  0.7818608E-02  0.1105011E+00
         21   -1    0    0  503  502  0.00000000000E+00  0.00000000000E+00  0.22755195116E+04  0.22755195116E+04  0.00000000000E+00 0. -1.
         21   -1    0    0  501  503 -0.00000000000E+00 -0.00000000000E+00 -0.47519982536E+02  0.47519982536E+02  0.00000000000E+00 0. -1.
          6    2    1    2  501    0 -0.23453437312E+02 -0.19827595468E+03  0.41921534548E+03  0.49514712651E+03  0.17194694844E+03 0.  0.
         24    2    3    3    0    0  0.26511238306E+02 -0.15513598164E+03  0.37804179362E+03  0.41720562629E+03  0.79843085675E+02 0.  0.
         -6    2    1    2    0  502  0.23453437312E+02  0.19827595468E+03  0.18087841836E+04  0.18278923676E+04  0.17212456804E+03 0.  0.
        -24    2    5    5    0    0  0.41725385377E+02  0.92310053056E+02  0.13673598931E+04  0.13735355358E+04  0.81637229178E+02 0.  0.
          5    1    3    3  501    0 -0.49964675618E+02 -0.43139973039E+02  0.41173551864E+02  0.77941500220E+02  0.47000000000E+01 0. -1.
        -13    1    4    4    0    0 -0.45611920255E+01 -0.26474348706E+02  0.14956941227E+02  0.30747450349E+02  0.00000000000E+00 0.  1.
         14    1    4    4    0    0  0.31072430332E+02 -0.12866163293E+03  0.36308485239E+03  0.38645817594E+03  0.00000000000E+00 0. -1.
         -5    1    5    5    0  502 -0.18271948065E+02  0.10596590162E+03  0.44142429051E+03  0.45435683185E+03  0.47000000000E+01 0.  1.
         13    1    6    6    0    0  0.25088867827E+02  0.10575600153E+03  0.11515000163E+04  0.11566183773E+04  0.00000000000E+00 0. -1.
        -14    1    6    6    0    0  0.16636517550E+02 -0.13445948478E+02  0.21585987676E+03  0.21691715847E+03  0.00000000000E+00 0.  1.
</event>
<event>
12    1  0.1615162E-001  0.2040538E+03  0.7818608E-02  0.1146575E+00
         21   -1    0    0  501  502  0.00000000000E+00  0.00000000000E+00  0.15442266364E+03  0.15442266364E+03  0.00000000000E+00 0.  1.
         21   -1    0    0  502  503 -0.00000000000E+00 -0.00000000000E+00 -0.26915755536E+03  0.26915755536E+03  0.00000000000E+00 0.  1.
         -6    2    1    2    0  503 -0.32482393210E+02 -0.10287000693E+03 -0.45120889284E+02  0.20797859094E+03  0.17199376572E+03 0.  0.
        -24    2    3    3    0    0 -0.58060531116E+02 -0.12353568300E+03 -0.62141443597E+02  0.17065432839E+03  0.81420209647E+02 0.  0.
          6    2    1    2  501    0  0.32482393210E+02  0.10287000693E+03 -0.69614002429E+02  0.21560162806E+03  0.17320683731E+03 0.  0.
         24    2    5    5    0    0  0.55590207538E+02  0.67338031715E+02  0.26812190438E+01  0.13166604923E+03  0.98509278211E+02 0.  0.
          5    1    5    5  501    0 -0.23107814328E+02  0.35531975217E+02 -0.72295221473E+02  0.83935578831E+02  0.47000000000E+01 0. -1.
        -13    1    6    6    0    0  0.64606584105E+02  0.77199405038E+02 -0.22508050485E+02  0.10315217489E+03  0.00000000000E+00 0.  1.
         14    1    6    6    0    0 -0.90163765674E+01 -0.98613733220E+01  0.25189269529E+02  0.28513874335E+02  0.00000000000E+00 0. -1.
         -5    1    3    3    0  503  0.25578137906E+02  0.20665676063E+02  0.17020554314E+02  0.37324262552E+02  0.47000000000E+01 0.  1.
         11    1    4    4    0    0  0.70409122397E+01  0.40070188349E+01 -0.19699402638E+02  0.21300166887E+02  0.00000000000E+00 0. -1.
        -12    1    4    4    0    0 -0.65101443356E+02 -0.12754270183E+03 -0.42442040959E+02  0.14935416150E+03  0.00000000000E+00 0.  1.
</event>
<event>
12    1  0.1615162E-001  0.1807408E+03  0.7818608E-02  0.1167137E+00
         21   -1    0    0  503  502  0.00000000000E+00  0.00000000000E+00  0.13314073325E+04  0.13314073325E+04  0.00000000000E+00 0. -1.
         21   -1    0    0  501  503 -0.00000000000E+00 -0.00000000000E+00 -0.42689580624E+02  0.42689580624E+02  0.00000000000E+00 0. -1.
          6    2    1    2  501    0  0.95629451317E+01  0.63671638955E+02  0.19577602327E+03  0.26631133991E+03  0.16866520373E+03 0.  0.
         24    2    3    3    0    0  0.64210327228E+02  0.12918881358E+02  0.96251712037E+02  0.14185509338E+03  0.81046972985E+02 0.  0.
         -6    2    1    2    0  502 -0.95629451317E+01 -0.63671638955E+02  0.10929417286E+04  0.11077855732E+04  0.16888376642E+03 0.  0.
        -24    2    5    5    0    0 -0.15426746367E+02 -0.10550440901E+03  0.70518386685E+03  0.71770530690E+03  0.80296056295E+02 0.  0.
          5    1    3    3  501    0 -0.54647382096E+02  0.50752757597E+02  0.99524311229E+02  0.12445624653E+03  0.47000000000E+01 0. -1.
        -13    1    4    4    0    0 -0.25874762273E+01 -0.19134099030E+02  0.52204073385E+02  0.55660345462E+02  0.00000000000E+00 0.  1.
         14    1    4    4    0    0  0.66797803455E+02  0.32052980389E+02  0.44047638652E+02  0.86194747920E+02  0.00000000000E+00 0. -1.
         -5    1    5    5    0  502  0.58638012351E+01  0.41832770057E+02  0.38775786177E+03  0.39008026633E+03  0.47000000000E+01 0.  1.
         11    1    6    6    0    0 -0.10427212150E+02 -0.11450291870E+03  0.68898222024E+03  0.69850994621E+03  0.00000000000E+00 0. -1.
        -12    1    6    6    0    0 -0.49995342166E+01  0.89985096923E+01  0.16201646612E+02  0.19195360690E+02  0.00000000000E+00 0.  1.
</event>
<event>
12    1  0.1615162E-001  0.2013438E+03  0.7818608E-02  0.1148750E+00
         21   -1    0    0  503  502  0.00000000000E+00  0.00000000000E+00  0.40296829373E+02  0.40296829373E+02  0.00000000000E+00 0. -1.
         21   -1    0    0  501  503 -0.00000000000E+00 -0.00000000000E+00 -0.10669893239E+04  0.10669893239E+04  0.00000000000E+00 0. -1.
          6    2    1    2  501    0  0.12256976018E+02  0.10285208082E+03 -0.65005625828E+03  0.68052366954E+03  0.17265729610E+03 0.  0.
         24    2    3    3    0    0 -0.48564747616E+02  0.88969555423E+02 -0.33998693119E+03  0.36420565840E+03  0.82343984146E+02 0.  0.
         -6    2    1    2    0  502 -0.12256976018E+02 -0.10285208082E+03 -0.37663623630E+03  0.42676248378E+03  0.17187954816E+03 0.  0.
        -24    2    5    5    0    0  0.57615198429E+02 -0.85473383625E+02 -0.27177684353E+03  0.29947649818E+03  0.72099305701E+02 0.  0.
          5    1    3    3  501    0  0.60821723635E+02  0.13882525396E+02 -0.31006932709E+03  0.31631801115E+03  0.47000000000E+01 0. -1.
        -13    1    4    4    0    0 -0.11040076403E+02 -0.11610267805E+02 -0.15000474135E+02  0.21947570019E+02  0.00000000000E+00 0.  1.
         14    1    4    4    0    0 -0.37524671213E+02  0.10057982323E+03 -0.32498645705E+03  0.34225808838E+03  0.00000000000E+00 0. -1.
         -5    1    5    5    0  502 -0.69872174447E+02 -0.17378697193E+02 -0.10485939277E+03  0.12728598560E+03  0.47000000000E+01 0.  1.
         13    1    6    6    0    0  0.35034195579E+02 -0.85116395259E+02 -0.15285156868E+03  0.17842588840E+03  0.00000000000E+00 0. -1.
        -14    1    6    6    0    0  0.22581002850E+02 -0.35698836667E+00 -0.11892527485E+03  0.12105060978E+03  0.00000000000E+00 0.  1.
</event>
<event>
12    1  0.1615162E-001  0.2598557E+03  0.7818608E-02  0.1107261E+00
         21   -1    0    0  503  502  0.00000000000E+00  0.00000000000E+00  0.44985975836E+03  0.44985975836E+03  0.00000000000E+00 0. -1.
         21   -1    0    0  501  503 -0.00000000000E+00 -0.00000000000E+00 -0.23182321024E+03  0.23182321024E+03  0.00000000000E+00 0.  1.
          6    2    1    2  501    0  0.23649139704E+02  0.19374235768E+03 -0.93469119144E+02  0.27615479007E+03  0.17155060150E+03 0.  0.
         24    2    3    3    0    0  0.45889307834E+02  0.31580541634E+02 -0.21323365350E+02  0.97218545969E+02  0.76769789546E+02 0.  0.
         -6    2    1    2    0  502 -0.23649139704E+02 -0.19374235768E+03  0.31150566727E+03  0.40552817854E+03  0.17123650278E+03 0.  0.
        -24    2    5    5    0    0  0.39105825686E+02 -0.10926035239E+03  0.23654026831E+03  0.27623279603E+03  0.82982943195E+02 0.  0.
          5    1    3    3  501    0 -0.22240168130E+02  0.16216181604E+03 -0.72145753793E+02  0.17893624410E+03  0.47000000000E+01 0. -1.
        -11    1    4    4    0    0 -0.60462139396E+01  0.17037279107E+02 -0.36891757619E+02  0.41083176150E+02  0.00000000000E+00 0.  1.
         12    1    4    4    0    0  0.51935521774E+02  0.14543262527E+02  0.15568392268E+02  0.56135369819E+02  0.00000000000E+00 0. -1.
         -5    1    5    5    0  502 -0.62754965390E+02 -0.84482005290E+02  0.74965398953E+02  0.12929538251E+03  0.47000000000E+01 0.  1.
         13    1    6    6    0    0 -0.90052890815E+01 -0.90533313035E+02  0.14711411510E+03  0.17297380975E+03  0.00000000000E+00 0. -1.
        -14    1    6    6    0    0  0.48111114767E+02 -0.18727039354E+02  0.89426153217E+02  0.10325898627E+03  0.00000000000E+00 0.  1.
</event>
<event>
12    1  0.1615162E-001  0.2212812E+03  0.7818608E-02  0.1133754E+00
         21   -1    0    0  503  502  0.00000000000E+00  0.00000000000E+00  0.36466435026E+03  0.36466435026E+03  0.00000000000E+00 0. -1.
         21   -1    0    0  501  503 -0.00000000000E+00 -0.00000000000E+00 -0.17163426956E+03  0.17163426956E+03  0.00000000000E+00 0. -1.
          6    2    1    2  501    0  0.13167679043E+03 -0.34412339447E+02 -0.33695873338E+02  0.21948630497E+03  0.16886633751E+03 0.  0.
         24    2    3    3    0    0  0.43166890252E+02  0.38138160329E+02  0.48440233345E+01  0.98635193746E+02  0.79922069518E+02 0.  0.
         -6    2    1    2    0  502 -0.13167679043E+03  0.34412339447E+02  0.22672595404E+03  0.31681231485E+03  0.17447750101E+03 0.  0.
        -24    2    5    5    0    0 -0.12758896886E+03 -0.18606666594E+02  0.21297144481E+03  0.26168517262E+03  0.80604840078E+02 0.  0.
          5    1    3    3  501    0  0.88509900180E+02 -0.72550499776E+02 -0.38539896673E+02  0.12085111122E+03  0.47000000000E+01 0. -1.
        -11    1    4    4    0    0 -0.45036379435E+01 -0.62244109301E+01 -0.25616556751E+02  0.26743859593E+02  0.00000000000E+00 0.  1.
         12    1    4    4    0    0  0.47670528195E+02  0.44362571259E+02  0.30460580086E+02  0.71891334153E+02  0.00000000000E+00 0. -1.
         -5    1    5    5    0  502 -0.40878215676E+01  0.53019006042E+02  0.13754509229E+02  0.55127142235E+02  0.47000000000E+01 0.  1.
         13    1    6    6    0    0 -0.12324421041E+03 -0.11888500694E+02  0.13452481762E+03  0.18283161216E+03  0.00000000000E+00 0. -1.
        -14    1    6    6    0    0 -0.43447584531E+01 -0.67181659001E+01  0.78446627192E+02  0.78853560458E+02  0.00000000000E+00 0.  1.
</event>
<event>
12    1  0.1615162E-001  0.1994810E+03  0.7818608E-02  0.1150514E+00
         21   -1    0    0  501  502  0.00000000000E+00  0.00000000000E+00  0.10247476141E+03  0.10247476141E+03  0.00000000000E+00 0. -1.
         21   -1    0    0  502  503 -0.00000000000E+00 -0.00000000000E+00 -0.38652740681E+03  0.38652740681E+03  0.00000000000E+00 0. -1.
         -6    2    1    2    0  503  0.87881620376E+02  0.44583866425E+02 -0.12851417150E+03  0.23729424831E+03  0.17344096303E+03 0.  0.
        -24    2    3    3    0    0  0.10432798491E+03  0.81071036317E+02 -0.78422784817E+02  0.17300557518E+03  0.79523295322E+02 0.  0.
          6    2    1    2  501    0 -0.87881620376E+02 -0.44583866425E+02 -0.15553847390E+03  0.25170791991E+03  0.17162097697E+03 0.  0.
         24    2    5    5    0    0  0.13556574281E+02  0.45732754018E+01 -0.40072373563E+02  0.90274830809E+02  0.79618178832E+02 0.  0.
          5    1    5    5  501    0 -0.10143819466E+03 -0.49157141827E+02 -0.11546610034E+03  0.16143308910E+03  0.47000000000E+01 0. -1.
        -11    1    6    6    0    0 -0.21811881456E+02  0.20509128987E+02 -0.41831980873E+02  0.51442173051E+02  0.00000000000E+00 0.  1.
         12    1    6    6    0    0  0.35368455737E+02 -0.15935853585E+02  0.17596073100E+01  0.38832657759E+02  0.00000000000E+00 0. -1.
         -5    1    3    3    0  503 -0.16446364532E+02 -0.36487169892E+02 -0.50091386683E+02  0.64288673130E+02  0.47000000000E+01 0.  1.
         13    1    4    4    0    0  0.10567310767E+03  0.42853356300E+02 -0.46337111691E+02  0.12308673263E+03  0.00000000000E+00 0. -1.
        -14    1    4    4    0    0 -0.13451227569E+01  0.38217680017E+02 -0.32085673126E+02  0.49918842545E+02  0.00000000000E+00 0.  1.
</event>
<event>
12    1  0.1615162E-001  0.2029113E+03  0.7818608E-02  0.1147374E+00
         21   -1    0    0  501  502  0.00000000000E+00  0.00000000000E+00  0.14281967071E+03  0.14281967071E+03  0.00000000000E+00 0.  1.
         21   -1    0    0  502  503 -0.00000000000E+00 -0.00000000000E+00 -0.29201311031E+03  0.29201311031E+03  0.00000000000E+00 0. -1.
         -6    2    1    2    0  503  0.10512198816E+03 -0.18860826135E+02 -0.10072018637E+03  0.22653375660E+03  0.17253006630E+03 0.  0.
        -24    2    3    3    0    0  0.11815923703E+03  0.35739613676E+02 -0.79683819674E+02  0.16640226227E+03  0.78110668220E+02 0.  0.
          6    2    1    2  501    0 -0.10512198816E+03  0.18860826135E+02 -0.48473253226E+02  0.20829902442E+03  0.17214082648E+03 0.  0.
         24    2    5    5    0    0 -0.34801304849E+02  0.55776016289E+02 -0.72022934981E+02  0.12532669605E+03  0.78723457540E+02 0.  0.
          5    1    5    5  501    0 -0.70320683310E+02 -0.36915190154E+02  0.23549681754E+02  0.82972328375E+02  0.47000000000E+01 0. -1.
        -11    1    6    6    0    0 -0.50073007565E+02  0.47587260503E+02 -0.22171692448E+02  0.72549551306E+02  0.00000000000E+00 0.  1.
         12    1    6    6    0    0  0.15271702716E+02  0.81887557859E+01 -0.49851242532E+02  0.52777144743E+02  0.00000000000E+00 0. -1.
         -5    1    3    3    0  503 -0.13037248873E+02 -0.54600439811E+02 -0.21036366701E+02  0.60131494324E+02  0.47000000000E+01 0.  1.
         11    1    4    4    0    0  0.36963546321E+02  0.21765478047E+01 -0.68456297221E+02  0.77828694877E+02  0.00000000000E+00 0. -1.
        -12    1    4    4    0    0  0.81195690710E+02  0.33563065872E+02 -0.11227522452E+02  0.88573567395E+02  0.00000000000E+00 0.  1.
</event>
<event>
12    1  0.1615162E-001  0.2752569E+03  0.7818608E-02  0.1098313E+00
         21   -1    0    0  503  502  0.00000000000E+00  0.00000000000E+00  0.15798072638E+03  0.15798072638E+03  0.00000000000E+00 0.  1.
         21   -1    0    0  501  503 -0.00000000000E+00 -0.00000000000E+00 -0.99914617972E+03  0.99914617972E+03  0.00000000000E+00 0.  1.
          6    2    1    2  501    0  0.15616261534E+03 -0.14792998731E+03 -0.83782997256E+03  0.88188741603E+03  0.17174489234E+03 0.  0.
         24    2    3    3    0    0  0.35409270049E+02 -0.65543123118E+02 -0.20639489858E+03  0.23373518973E+03  0.80520602127E+02 0.  0.
         -6    2    1    2    0  502 -0.15616261534E+03  0.14792998731E+03 -0.33354807752E+01  0.27523949008E+03  0.17168461752E+03 0.  0.
        -24    2    5    5    0    0 -0.50475106685E+02  0.10807916395E+03 -0.52076830414E+02  0.15213081137E+03  0.78758780012E+02 0.  0.
          5    1    3    3  501    0  0.12075334529E+03 -0.82386864191E+02 -0.63143507398E+03  0.64815222629E+03  0.47000000000E+01 0. -1.
        -11    1    4    4    0    0 -0.18538010957E+02 -0.49691495119E+01 -0.88981087922E+02  0.91027382171E+02  0.00000000000E+00 0.  1.
         12    1    4    4    0    0  0.53947281006E+02 -0.60573973606E+02 -0.11741381066E+03  0.14270780756E+03  0.00000000000E+00 0. -1.
         -5    1    5    5    0  502 -0.10568750866E+03  0.39850823361E+02  0.48741349639E+02  0.12310867871E+03  0.47000000000E+01 0.  1.
         11    1    6    6    0    0 -0.33392377738E+02  0.68168160593E+02 -0.71765476786E+02  0.10446163252E+03  0.00000000000E+00 0. -1.
        -12    1    6    6    0    0 -0.17082728948E+02  0.39911003355E+02  0.19688646372E+02  0.47669178859E+02  0.00000000000E+00 0.  1.
</event>
<event>
12    1  0.1615162E-001  0.2020069E+03  0.7818608E-02  0.1148097E+00
         21   -1    0    0  503  502  0.00000000000E+00  0.00000000000E+00  0.60745223211E+03  0.60745223211E+03  0.00000000000E+00 0.  1.
         21   -1    0    0  501  503 -0.00000000000E+00 -0.00000000000E+00 -0.13452350627E+03  0.13452350627E+03  0.00000000000E+00 0.  1.
          6    2    1    2  501    0  0.42201636643E+01 -0.10597051838E+03 -0.26209728531E+02  0.20350941609E+03  0.17170198607E+03 0.  0.
         24    2    3    3    0    0  0.10915043554E+02 -0.49454789562E+02 -0.80934448208E+02  0.12441621813E+03  0.79775284643E+02 0.  0.
         -6    2    1    2    0  502 -0.42201636643E+01  0.10597051838E+03  0.49913845438E+03  0.53846632228E+03  0.17192795889E+03 0.  0.
        -24    2    5    5    0    0  0.13230846469E+02 -0.10722189191E+02  0.24879770466E+03  0.26167342727E+03  0.79263257947E+02 0.  0.
          5    1    3    3  501    0 -0.66948798900E+01 -0.56515728822E+02  0.54724719677E+02  0.79093197968E+02  0.47000000000E+01 0. -1.
        -11    1    4    4    0    0  0.39377324351E+02 -0.74046522565E+01 -0.53067641534E+02  0.66494940605E+02  0.00000000000E+00 0.  1.
         12    1    4    4    0    0 -0.28462280797E+02 -0.42050137306E+02 -0.27866806674E+02  0.57921277522E+02  0.00000000000E+00 0. -1.
         -5    1    5    5    0  502 -0.17451010133E+02  0.11669270758E+03  0.25034074972E+03  0.27679289501E+03  0.47000000000E+01 0.  1.
         11    1    6    6    0    0 -0.15676329153E+01 -0.33481764944E+02  0.21823771107E+03  0.22079670421E+03  0.00000000000E+00 0. -1.
        -12    1    6    6    0    0  0.14798479384E+02  0.22759575753E+02  0.30559993585E+02  0.40876723064E+02  0.00000000000E+00 0.  1.
</event>
<event>
12    1  0.1615162E-001  0.1887731E+03  0.7818608E-02  0.1159612E+00
         21   -1    0    0  503  502  0.00000000000E+00  0.00000000000E+00  0.34374212765E+02  0.34374212765E+02  0.00000000000E+00 0.  1.
         21   -1    0    0  501  503 -0.00000000000E+00 -0.00000000000E+00 -0.13243761162E+04  0.13243761162E+04  0.00000000000E+00 0.  1.
          6    2    1    2  501    0 -0.42483023146E+02  0.66683584944E+02 -0.96240534660E+03  0.98074428314E+03  0.17141700614E+03 0.  0.
         24    2    3    3    0    0 -0.78550426676E+02  0.90845728314E+02 -0.69758532292E+03  0.71234830383E+03  0.79948154003E+02 0.  0.
         -6    2    1    2    0  502  0.42483023146E+02 -0.66683584944E+02 -0.32759655683E+03  0.37800604582E+03  0.17122371002E+03 0.  0.
        -24    2    5    5    0    0  0.29858265355E+02  0.30774345380E+02 -0.92787205857E+02  0.12341823386E+03  0.69166599855E+02 0.  0.
          5    1    3    3  501    0  0.36067403530E+02 -0.24162143371E+02 -0.26482002368E+03  0.26839597931E+03  0.47000000000E+01 0. -1.
        -11    1    4    4    0    0 -0.19164962756E+02  0.54548475441E+02 -0.49014673393E+03  0.49354498554E+03  0.00000000000E+00 0.  1.
         12    1    4    4    0    0 -0.59385463920E+02  0.36297252874E+02 -0.20743858900E+03  0.21880331829E+03  0.00000000000E+00 0. -1.
         -5    1    5    5    0  502  0.12624757791E+02 -0.97457930324E+02 -0.23480935097E+03  0.25458781195E+03  0.47000000000E+01 0.  1.
         13    1    6    6    0    0  0.33530552091E+02  0.83992153244E+01 -0.94554763601E+02  0.10067496243E+03  0.00000000000E+00 0. -1.
        -14    1    6    6    0    0 -0.36722867357E+01  0.22375130056E+02  0.17675577437E+01  0.22743271428E+02  0.00000000000E+00 0.  1.
</event>
<event>
12    1  0.1615162E-001  0.1761732E+03  0.7818608E-02  0.1171624E+00
         21   -1    0    0  501  502  0.00000000000E+00  0.00000000000E+00  0.99933555851E+02  0.99933555851E+02  0.00000000000E+00 0.  1.
         21   -1    0    0  502  503 -0.00000000000E+00 -0.00000000000E+00 -0.37489918416E+03  0.37489918416E+03  0.00000000000E+00 0.  1.
         -6    2    1    2    0  503 -0.25391286024E+02  0.17716779564E+02 -0.23626334364E+03  0.29471574443E+03  0.17343125665E+03 0.  0.
        -24    2    3    3    0    0  0.43096099135E+01  0.70772874520E+02 -0.15744785480E+03  0.19506102195E+03  0.90728180832E+02 0.  0.
          6    2    1    2  501    0  0.25391286024E+02 -0.17716779564E+02 -0.38702284668E+02  0.18011699558E+03  0.17316369012E+03 0.  0.
         24    2    5    5    0    0 -0.36732280129E+02  0.28376027889E+02  0.26737865440E+01  0.92265110915E+02  0.79694681099E+02 0.  0.
          5    1    5    5  501    0  0.62123566152E+02 -0.46092807454E+02 -0.41376071212E+02  0.87851884666E+02  0.47000000000E+01 0. -1.
        -11    1    6    6    0    0 -0.49326367685E+02 -0.61935105455E+01  0.17349334460E+02  0.52654055191E+02  0.00000000000E+00 0.  1.
         12    1    6    6    0    0  0.12594087556E+02  0.34569538435E+02 -0.14675547916E+02  0.39611055724E+02  0.00000000000E+00 0. -1.
         -5    1    3    3    0  503 -0.29700895937E+02 -0.53056094955E+02 -0.78815488839E+02  0.99654722479E+02  0.47000000000E+01 0.  1.
         11    1    4    4    0    0 -0.39625171962E+02  0.17236441162E+02 -0.40955587281E+02  0.59536621390E+02  0.00000000000E+00 0. -1.
        -12    1    4    4    0    0  0.43934781876E+02  0.53536433358E+02 -0.11649226752E+03  0.13552440056E+03  0.00000000000E+00 0.  1.
</event>
<event>
12    1  0.1615162E-001  0.2411000E+03  0.7818608E-02  0.1120960E+00
         21   -1    0    0  501  502  0.00000000000E+00  0.00000000000E+00  0.10911633733E+03  0.10911633733E+03  0.00000000000E+00 0. -1.
         21   -1    0    0  502  503 -0.00000000000E+00 -0.00000000000E+00 -0.81171599875E+03  0.81171599875E+03  0.00000000000E+00 0.  1.
         -6    2    1    2    0  503 -0.96586520358E+02 -0.13955989998E+03 -0.63795447254E+03  0.68199348385E+03  0.17124041986E+03 0.  0.
        -24    2    3    3    0    0 -0.57512103887E+02 -0.92977031402E+01 -0.33760748192E+03  0.35225805245E+03  0.81931888141E+02 0.  0.
          6    2    1    2  501    0  0.96586520358E+02  0.13955989998E+03 -0.64645188885E+02  0.23883885222E+03  0.15510988134E+03 0.  0.
         24    2    5    5    0    0  0.30693452587E+02  0.45066844364E+02 -0.72831244453E+02  0.12325366526E+03  0.83150269627E+02 0.  0.
          5    1    5    5  501    0  0.65893067771E+02  0.94493055613E+02  0.81860555684E+01  0.11558518696E+03  0.47000000000E+01 0. -1.
        -11    1    6    6    0    0 -0.23840565974E+02  0.27964109724E+02 -0.95181012381E+01  0.37959956135E+02  0.00000000000E+00 0.  1.
         12    1    6    6    0    0  0.54534018561E+02  0.17102734640E+02 -0.63313143215E+02  0.85293709125E+02  0.00000000000E+00 0. -1.
         -5    1    3    3    0  503 -0.39074416471E+02 -0.13026219684E+03 -0.30034699062E+03  0.32973543140E+03  0.47000000000E+01 0.  1.
         13    1    4    4    0    0 -0.22540784965E+01  0.29122965067E+02 -0.61765486334E+02  0.68324250938E+02  0.00000000000E+00 0. -1.
        -14    1    4    4    0    0 -0.55258025390E+02 -0.38420668207E+02 -0.27584199558E+03  0.28393380151E+03  0.00000000000E+00 0.  1.
</event>
<event>
12    1  0.1615162E-001  0.2101814E+03  0.7818608E-02  0.1141470E+00
         21   -1    0    0  503  502  0.00000000000E+00  0.00000000000E+00  0.21447017878E+03  0.21447017878E+03  0.00000000000E+00 0. -1.
         21   -1    0    0  501  503 -0.00000000000E+00 -0.00000000000E+00 -0.29260676969E+03  0.29260676969E+03  0.00000000000E+00 0. -1.
          6    2    1    2  501    0 -0.12737134777E+02  0.12026643800E+03  0.99056165897E+02  0.23235388202E+03  0.17190099410E+03 0.  0.
         24    2    3    3    0    0  0.20271334244E+01  0.42842860003E+02 -0.15753780486E+02  0.93013263980E+02  0.81016453597E+02 0.  0.
         -6    2    1    2    0  502  0.12737134777E+02 -0.12026643800E+03 -0.17719275681E+03  0.27472306646E+03  0.17160780712E+03 0.  0.
        -24    2    5    5    0    0  0.21159935444E+02 -0.54372945498E+02 -0.18268699326E+03  0.20790111976E+03  0.80275637792E+02 0.  0.
          5    1    3    3  501    0 -0.14764268202E+02  0.77423578001E+02  0.11480994638E+03  0.13934061804E+03  0.47000000000E+01 0. -1.
        -11    1    4    4    0    0 -0.33965130737E+02  0.78378441138E+01 -0.23740723258E+02  0.42174445428E+02  0.00000000000E+00 0.  1.
         12    1    4    4    0    0  0.35992264162E+02  0.35005015889E+02  0.79869427724E+01  0.50838818552E+02  0.00000000000E+00 0. -1.
         -5    1    5    5    0  502 -0.84228006670E+01 -0.65893492506E+02  0.54942364493E+01  0.66821946693E+02  0.47000000000E+01 0.  1.
         13    1    6    6    0    0 -0.11672778354E+02 -0.23109047309E+02 -0.75165607474E+01  0.26958866955E+02  0.00000000000E+00 0. -1.
        -14    1    6    6    0    0  0.32832713798E+02 -0.31263898189E+02 -0.17517043251E+03  0.18094225281E+03  0.00000000000E+00 0.  1.
</event>
<event>
12    1  0.1615162E-001  0.2245853E+03  0.7818608E-02  0.1130736E+00
         21   -1    0    0  503  502  0.00000000000E+00  0.00000000000E+00  0.49421459585E+02  0.49421459585E+02  0.00000000000E+00 0. -1.
         21   -1    0    0  501  503 -0.00000000000E+00 -0.00000000000E+00 -0.11147565813E+04  0.11147565813E+04  0.00000000000E+00 0. -1.
          6    2    1    2  501    0 -0.17250387452E+02  0.14296381028E+03 -0.35984109350E+03  0.42417468817E+03  0.17234362938E+03 0.  0.
         24    2    3    3    0    0 -0.52724209583E+02  0.14031912849E+03 -0.20971391577E+03  0.26981910553E+03  0.79706481190E+02 0.  0.
         -6    2    1    2    0  502  0.17250387452E+02 -0.14296381028E+03 -0.70549402821E+03  0.74000335272E+03  0.17072466510E+03 0.  0.
        -24    2    5    5    0    0  0.56143265689E+02 -0.49507869987E+02 -0.48352180724E+03  0.49599428395E+03  0.81325864086E+02 0.  0.
          5    1    3    3  501    0  0.35473822131E+02  0.26446817978E+01 -0.15012717773E+03  0.15435558264E+03  0.47000000000E+01 0. -1.
        -11    1    4    4    0    0 -0.39022601623E+02  0.48850605587E+02 -0.33803156378E+02  0.71076004986E+02  0.00000000000E+00 0.  1.
         12    1    4    4    0    0 -0.13701607959E+02  0.91468522900E+02 -0.17591075940E+03  0.19874310054E+03  0.00000000000E+00 0. -1.
         -5    1    5    5    0  502 -0.38892878238E+02 -0.93455940298E+02 -0.22197222098E+03  0.24400906876E+03  0.47000000000E+01 0.  1.
         11    1    6    6    0    0  0.35355948024E+02 -0.46608334656E+02 -0.13867809075E+03  0.15051243395E+03  0.00000000000E+00 0. -1.
        -12    1    6    6    0    0  0.20787317666E+02 -0.28995353303E+01 -0.34484371649E+03  0.34548185000E+03  0.00000000000E+00 0.  1.
</event>
<event>
12    1  0.1615162E-001  0.2356492E+03  0.7818608E-02  0.1122835E+00
         21   -1    0    0  501  502  0.00000000000E+00  0.00000000000E+00  0.18129795051E+04  0.18129795051E+04  0.00000000000E+00 0.  1.
         21   -1    0    0  502  503 -0.00000000000E+00 -0.00000000000E+00 -0.31407820636E+02  0.31407820636E+02  0.00000000000E+00 0.  1.
         -6    2    1    2    0  503 -0.85834365133E+01  0.16114473607E+03  0.73921634700E+03  0.77586813251E+03  0.17172434315E+03 0.  0.
        -24    2    3    3    0    0 -0.52856602135E+02  0.35668447884E+02  0.31505059387E+03  0.33129745397E+03  0.80218874000E+02 0.  0.
          6    2    1    2  501    0  0.85834365133E+01 -0.16114473607E+03  0.10423553375E+04  0.10685191932E+04  0.17084295537E+03 0.  0.
         24    2    5    5    0    0 -0.23395752588E+02 -0.59560680110E+02  0.75922852740E+03  0.76598841870E+03  0.78838219773E+02 0.  0.
          5    1    5    5  501    0  0.31979189101E+02 -0.10158405596E+03  0.28312681005E+03  0.30253077452E+03  0.47000000000E+01 0. -1.
        -11    1    6    6    0    0 -0.44033568159E+02 -0.42051844697E+02  0.30868323592E+03  0.31463097893E+03  0.00000000000E+00 0.  1.
         12    1    6    6    0    0  0.20637815571E+02 -0.17508835414E+02  0.45054529149E+03  0.45135743976E+03  0.00000000000E+00 0. -1.
         -5    1    3    3    0  503  0.44273165622E+02  0.12547628819E+03  0.42416575313E+03  0.44457067854E+03  0.47000000000E+01 0.  1.
         11    1    4    4    0    0 -0.26157125831E+02 -0.24993525872E+02  0.11430954253E+03  0.11989805287E+03  0.00000000000E+00 0. -1.
        -12    1    4    4    0    0 -0.26699476304E+02  0.60661973756E+02  0.20074105133E+03  0.21139940110E+03  0.00000000000E+00 0.  1.
</event>
<event>
12    1  0.1615162E-001  0.1960865E+03  0.7818608E-02  0.1153787E+00
         21   -1    0    0  503  502  0.00000000000E+00  0.00000000000E+00  0.19026629186E+03  0.19026629186E+03  0.00000000000E+00 0.  1.
         21   -1    0    0  501  503 -0.00000000000E+00 -0.00000000000E+00 -0.24161928048E+03  0.24161928048E+03  0.00000000000E+00 0. -1.
          6    2    1    2  501    0  0.88347762220E+02 -0.38145866173E+02 -0.11642660905E+03  0.22528335839E+03  0.16714365701E+03 0.  0.
         24    2    3    3    0    0  0.10292445589E+03 -0.37980654644E+02 -0.31673613078E+02  0.13915747599E+03  0.79533713687E+02 0.  0.
         -6    2    1    2    0  502 -0.88347762220E+02  0.38145866173E+02  0.65073620435E+02  0.20660221394E+03  0.17084924505E+03 0.  0.
        -24    2    5    5    0    0 -0.60268660550E+02  0.86042396816E+02  0.72986107909E+02  0.15032423374E+03  0.78960735851E+02 0.  0.
          5    1    3    3  501    0 -0.14576693666E+02 -0.16521152910E+00 -0.84752995971E+02  0.86125882400E+02  0.47000000000E+01 0. -1.
        -13    1    4    4    0    0  0.11051286373E+03 -0.48675532688E+02 -0.21722736291E+02  0.12269587526E+03  0.00000000000E+00 0.  1.
         14    1    4    4    0    0 -0.75884078464E+01  0.10694878044E+02 -0.99508767868E+01  0.16461600738E+02  0.00000000000E+00 0. -1.
         -5    1    5    5    0  502 -0.28079101669E+02 -0.47896530643E+02 -0.79124874742E+01  0.56277980207E+02  0.47000000000E+01 0.  1.
         11    1    6    6    0    0 -0.43972175648E+02  0.82213456054E+00  0.17492090390E+02  0.47330765499E+02  0.00000000000E+00 0. -1.
        -12    1    6    6    0    0 -0.16296484902E+02  0.85220262256E+02  0.55494017519E+02  0.10299346824E+03  0.00000000000E+00 0.  1.
</event>
<event>
12    1  0.1615162E-001  0.2062561E+03  0.7818608E-02  0.1146104E+00
         21   -1    0    0  501  502  0.00000000000E+00  0.00000000000E+00  0.18795424859E+03  0.18795424859E+03  0.00000000000E+00 0. -1.
         21   -1    0    0  502  503 -0.00000000000E+00 -0.00000000000E+00 -0.33658942262E+03  0.33658942262E+03  0.00000000000E+00 0. -1.
         -6    2    1    2    0  503 -0.79810810001E+02 -0.60467070935E+02 -0.22893173466E+03  0.30320884902E+03  0.17175515984E+03 0.  0.
        -24    2    3    3    0    0 -0.24783096786E+02 -0.83299345191E+02 -0.21009375129E+03  0.24054848207E+03  0.78557018149E+02 0.  0.
          6    2    1    2  501    0  0.79810810001E+02  0.60467070935E+02  0.80296560636E+02  0.22133482219E+03  0.18032064164E+03 0.  0.
         24    2    5    5    0    0  0.11430387772E+03  0.82054301449E+02  0.52346146061E+02  0.17174554999E+03  0.83415406770E+02 0.  0.
          5    1    5    5  501    0 -0.34493067720E+02 -0.21587230514E+02  0.27950414574E+02  0.49589272195E+02  0.47000000000E+01 0. -1.
        -13    1    6    6    0    0  0.82436564716E+02  0.71332910643E+02  0.73995926916E+02  0.13175571541E+03  0.00000000000E+00 0.  1.
         14    1    6    6    0    0  0.31867313005E+02  0.10721390806E+02 -0.21649780854E+02  0.39989834584E+02  0.00000000000E+00 0. -1.
         -5    1    3    3    0  503 -0.55027713215E+02  0.22832274256E+02 -0.18837983378E+02  0.62660366956E+02  0.47000000000E+01 0.  1.
         11    1    4    4    0    0 -0.70038116394E+01 -0.78891396600E+02 -0.93552240869E+02  0.12257621142E+03  0.00000000000E+00 0. -1.
        -12    1    4    4    0    0 -0.17779285147E+02 -0.44079485904E+01 -0.11654151042E+03  0.11797227065E+03  0.00000000000E+00 0.  1.
</event>
<event>
12    1  0.1615162E-001  0.1899934E+03  0.7818608E-02  0.1158816E+00
         21   -1    0    0  503  502  0.00000000000E+00  0.00000000000E+00  0.24163615659E+03  0.24163615659E+03  0.00000000000E+00 0. -1.
         21   -1    0    0  501  503 -0.00000000000E+00 -0.00000000000E+00 -0.15020498903E+03  0.15020498903E+03  0.00000000000E+00 0. -1.
          6    2    1    2  501    0 -0.16973967257E+02  0.78762703129E+02  0.68656724087E+02  0.20201787319E+03  0.17206334983E+03 0.  0.
         24    2    3    3    0    0  0.24902485936E+02  0.98254022126E+02  0.78774102314E+02  0.15449945370E+03  0.85969385998E+02 0.  0.
         -6    2    1    2    0  502  0.16973967257E+02 -0.78762703129E+02  0.22774443473E+02  0.18982327242E+03  0.17035997332E+03 0.  0.
        -24    2    5    5    0    0  0.22731082504E+02  0.11608413518E+02  0.19500946703E+02  0.99088004302E+02  0.93737336735E+02 0.  0.
          5    1    3    3  501    0 -0.41876453193E+02 -0.19491318997E+02 -0.10117378227E+02  0.47518419486E+02  0.47000000000E+01 0. -1.
        -11    1    4    4    0    0  0.28964309654E+02 -0.45554121307E+01  0.24287837854E+02  0.38073377589E+02  0.00000000000E+00 0.  1.
         12    1    4    4    0    0 -0.40618237179E+01  0.10280943426E+03  0.54486264460E+02  0.11642607611E+03  0.00000000000E+00 0. -1.
         -5    1    5    5    0  502 -0.57571152469E+01 -0.90371116647E+02  0.32734967698E+01  0.90735268122E+02  0.47000000000E+01 0.  1.
         11    1    6    6    0    0  0.31919327373E+02 -0.36279192242E+02  0.78678159466E+01  0.48958408649E+02  0.00000000000E+00 0. -1.
        -12    1    6    6    0    0 -0.91882448689E+01  0.47887605760E+02  0.11633130757E+02  0.50129595654E+02  0.00000000000E+00 0.  1.
</event>
<event>
12    1  0.1615162E-001  0.2571687E+03  0.7818608E-02  0.1109091E+00
         21   -1    0    0  501  502  0.00000000000E+00  0.00000000000E+00  0.56147368584E+02  0.56147368584E+02  0.00000000000E+00 0. -1.
         21   -1    0    0  502  503 -0.00000000000E+00 -0.00000000000E+00 -0.12575395789E+04  0.12575395789E+04  0.00000000000E+00 0. -1.
         -6    2    1    2    0  503 -0.17489389248E+03 -0.72317403156E+02 -0.77479539390E+03  0.81636000726E+03  0.17412087359E+03 0.  0.
        -24    2    3    3    0    0 -0.14869590025E+03 -0.94649245436E+02 -0.74748689510E+03  0.77216849130E+03  0.80240701595E+02 0.  0.
          6    2    1    2  501    0  0.17489389248E+03  0.72317403156E+02 -0.42659681639E+03  0.49732694020E+03  0.17184749422E+03 0.  0.
         24    2    5    5    0    0  0.10547952260E+03 -0.13683100815E+02 -0.30647190758E+03  0.33402805733E+03  0.79602487487E+02 0.  0.
          5    1    5    5  501    0  0.69414369872E+02  0.86000503971E+02 -0.12012490881E+03  0.16329888286E+03  0.47000000000E+01 0. -1.
        -13    1    6    6    0    0  0.66132768687E+02 -0.25239148951E+02 -0.27007443880E+03  0.27919663363E+03  0.00000000000E+00 0.  1.
         14    1    6    6    0    0  0.39346753918E+02  0.11556048136E+02 -0.36397468776E+02  0.54831423706E+02  0.00000000000E+00 0. -1.
         -5    1    3    3    0  503 -0.26197992227E+02  0.22331842280E+02 -0.27308498798E+02  0.44191515961E+02  0.47000000000E+01 0.  1.
         13    1    4    4    0    0 -0.93052537335E+02 -0.33735214998E+02 -0.26923307403E+03  0.28685063638E+03  0.00000000000E+00 0. -1.
        -14    1    4    4    0    0 -0.55643362915E+02 -0.60914030438E+02 -0.47825382107E+03  0.48531785492E+03  0.00000000000E+00 0.  1.
</event>
<event>
12    1  0.1615162E-001  0.1952878E+03  0.7818608E-02  0.1154214E+00
         21   -1    0    0  501  502  0.00000000000E+00  0.00000000000E+00  0.55806454085E+02  0.55806454085E+02  0.00000000000E+00 0. -1.
         21   -1    0    0  502  503 -0.00000000000E+00 -0.00000000000E+00 -0.83771407311E+03  0.83771407311E+03  0.00000000000E+00 0.  1.
         -6    2    1    2    0  503 -0.87771467792E+02  0.10360610134E+02 -0.58537086993E+03  0.61645728934E+03  0.17189927695E+03 0.  0.
        -24    2    3    3    0    0 -0.69978553462E+02  0.38857972905E+02 -0.20106855565E+03  0.23066065088E+03  0.79804960935E+02 0.  0.
          6    2    1    2  501    0  0.87771467792E+02 -0.10360610134E+02 -0.19653674909E+03  0.27706323785E+03  0.17414411051E+03 0.  0.
         24    2    5    5    0    0  0.12852014611E+02  0.54596268636E+02 -0.10956694973E+03  0.14508537393E+03  0.76804442758E+02 0.  0.
          5    1    5    5  501    0  0.74919453180E+02 -0.64956878769E+02 -0.86969799362E+02  0.13197786392E+03  0.47000000000E+01 0. -1.
        -11    1    6    6    0    0  0.15088287856E+02 -0.81065271239E+00 -0.81586498673E+02  0.82973913695E+02  0.00000000000E+00 0.  1.
         12    1    6    6    0    0 -0.22362732448E+01  0.55406921348E+02 -0.27980451056E+02  0.62111460235E+02  0.00000000000E+00 0. -1.
         -5    1    3    3    0  503 -0.17792914329E+02 -0.28497362771E+02 -0.38430231429E+03  0.38579663846E+03  0.47000000000E+01 0.  1.
         11    1    4    4    0    0 -0.68434466118E+02  0.46195614828E+02 -0.20583354849E+03  0.22177637536E+03  0.00000000000E+00 0. -1.
        -12    1    4    4    0    0 -0.15440873442E+01 -0.73376419228E+01  0.47649928436E+01  0.88842755199E+01  0.00000000000E+00 0.  1.
</event>
<event>
12    1  0.1615162E-001  0.2794981E+03  0.7818608E-02  0.1096160E+00
         21   -1    0    0  503  502  0.00000000000E+00  0.00000000000E+00  0.12731550063E+03  0.12731550063E+03  0.00000000000E+00 0.  1.
         21   -1    0    0  501  503 -0.00000000000E+00 -0.00000000000E+00 -0.64801763801E+03  0.64801763801E+03  0.00000000000E+00 0.  1.
          6    2    1    2  501    0  0.20844713896E+03 -0.63761038500E+02 -0.35432055103E+03  0.45128950668E+03  0.17493852115E+03 0.  0.
         24    2    3    3    0    0  0.22872930152E+03 -0.71967868087E+02 -0.34065167095E+03  0.42506649288E+03  0.84507366785E+02 0.  0.
         -6    2    1    2    0  502 -0.20844713896E+03  0.63761038500E+02 -0.16638158634E+03  0.32404363196E+03  0.17264345736E+03 0.  0.
        -24    2    5    5    0    0 -0.62716652338E+02 -0.19953318266E+02 -0.82564939015E+02  0.13617988179E+03  0.86002777043E+02 0.  0.
          5    1    3    3  501    0 -0.20282162558E+02  0.82068295874E+01 -0.13668880087E+02  0.26223013800E+02  0.47000000000E+01 0. -1.
        -11    1    4    4    0    0  0.21337782584E+03 -0.87813386966E+02 -0.29644892129E+03  0.37566374649E+03  0.00000000000E+00 0.  1.
         12    1    4    4    0    0  0.15351475679E+02  0.15845518879E+02 -0.44202749656E+02  0.49402746393E+02  0.00000000000E+00 0. -1.
         -5    1    5    5    0  502 -0.14573048662E+03  0.83714356765E+02 -0.83816647328E+02  0.18786375017E+03  0.47000000000E+01 0.  1.
         11    1    6    6    0    0 -0.42353679206E+01 -0.13596015614E+01 -0.74099298934E+02  0.74232694686E+02  0.00000000000E+00 0. -1.
        -12    1    6    6    0    0 -0.58481284417E+02 -0.18593716704E+02 -0.84656400812E+01  0.61947187103E+02  0.00000000000E+00 0.  1.
</event>
<event>
12    1  0.1615162E-001  0.1913009E+03  0.7818608E-02  0.1157547E+00
         21   -1    0    0  501  502  0.00000000000E+00  0.00000000000E+00  0.22395725045E+02  0.22395725045E+02  0.00000000000E+00 0. -1.
         21   -1    0    0  502  503 -0.00000000000E+00 -0.00000000000E+00 -0.16246714045E+04  0.16246714045E+04  0.00000000000E+00 0.  1.
         -6    2    1    2    0  503 -0.77966030317E+02 -0.25020009092E+02 -0.81390471886E+03  0.83608428735E+03  0.17289112593E+03 0.  0.
        -24    2    3    3    0    0 -0.65112560226E+01  0.39390540255E+02 -0.49190246672E+03  0.49998602192E+03  0.80149698926E+02 0.  0.
          6    2    1    2  501    0  0.77966030317E+02  0.25020009092E+02 -0.78837096055E+03  0.81098284216E+03  0.17163827106E+03 0.  0.
         24    2    5    5    0    0 -0.16699296576E-01  0.60573583159E+02 -0.50694669294E+03  0.51676001648E+03  0.79854905269E+02 0.  0.
          5    1    5    5  501    0  0.77982729613E+02 -0.35553574067E+02 -0.28142426761E+03  0.29422282568E+03  0.47000000000E+01 0. -1.
        -11    1    6    6    0    0  0.62251962656E+01  0.54117098000E+02 -0.14809362732E+03  0.15779460009E+03  0.00000000000E+00 0.  1.
         12    1    6    6    0    0 -0.62418955622E+01  0.64564851587E+01 -0.35885306562E+03  0.35896541639E+03  0.00000000000E+00 0. -1.
         -5    1    3    3    0  503 -0.71454774294E+02 -0.64410549346E+02 -0.32200225214E+03  0.33609826543E+03  0.47000000000E+01 0.  1.
         11    1    4    4    0    0 -0.12503566508E+02  0.39131104084E+02 -0.10096241687E+03  0.10899996377E+03  0.00000000000E+00 0. -1.
        -12    1    4    4    0    0  0.59923104859E+01  0.25943617091E+00 -0.39094004985E+03  0.39098605815E+03  0.00000000000E+00 0.  1.
</event>
<event>
12    1  0.1615162E-001  0.1859111E+03  0.7818608E-02  0.1162753E+00
         21   -1    0    0  501  502  0.00000000000E+00  0.00000000000E+00  0.23667360887E+04  0.23667360887E+04  0.00000000000E+00 0. -1.
         21   -1    0    0  502  503 -0.00000000000E+00 -0.00000000000E+00 -0.15420920366E+02  0.15420920366E+02  0.00000000000E+00 0. -1.
         -6    2    1    2    0  503 -0.50412609502E+02  0.40682102901E+02  0.14863222158E+04  0.14979040903E+04  0.17425977692E+03 0.  0.
        -24    2    3    3    0    0 -0.16314129444E+02  0.82562716729E+02  0.12572257827E+04  0.12624811564E+04  0.78480879857E+02 0.  0.
          6    2    1    2  501    0  0.50412609502E+02 -0.40682102901E+02  0.86499295248E+03  0.88425291872E+03  0.17173803226E+03 0.  0.
         24    2    5    5    0    0  0.82005176025E+02 -0.56582399658E+02  0.69898521491E+03  0.71445430674E+03  0.10926211103E+03 0.  0.
          5    1    5    5  501    0 -0.31592566523E+02  0.15900296757E+02  0.16600773757E+03  0.16979861198E+03  0.47000000000E+01 0. -1.
        -13    1    6    6    0    0  0.19306451992E+02  0.26961242888E+02  0.78167443057E+02  0.84910522673E+02  0.00000000000E+00 0.  1.
         14    1    6    6    0    0  0.62698724033E+02 -0.83543642546E+02  0.62081777186E+03  0.62954378407E+03  0.00000000000E+00 0. -1.
         -5    1    3    3    0  503 -0.34098480058E+02 -0.41880613829E+02  0.22909643310E+03  0.23542293392E+03  0.47000000000E+01 0.  1.
         11    1    4    4    0    0  0.12887859868E+02  0.22251703446E+02  0.79578690757E+03  0.79620225917E+03  0.00000000000E+00 0. -1.
        -12    1    4    4    0    0 -0.29201989312E+02  0.60311013284E+02  0.46143887515E+03  0.46627889723E+03  0.00000000000E+00 0.  1.
</event>
<event>
12    1  0.1615162E-001  0.1969260E+03  0.7818608E-02  0.1152907E+00
         21   -1    0    0  501  502  0.00000000000E+00  0.00000000000E+00  0.18235180635E+03  0.18235180635E+03  0.00000000000E+00 0.  1.
         21   -1    0    0  502  503 -0.00000000000E+00 -0.00000000000E+00 -0.58164227747E+03  0.58164227747E+03  0.00000000000E+00 0.  1.
         -6    2    1    2    0  503 -0.28431931309E+02  0.85123778534E+02 -0.50454822019E+03  0.54070271671E+03  0.17244155236E+03 0.  0.
        -24    2    3    3    0    0  0.37731269281E+01  0.61069633413E+02 -0.13654457018E+03  0.17048042661E+03  0.81703241054E+02 0.  0.
          6    2    1    2  501    0  0.28431931309E+02 -0.85123778534E+02  0.10525774907E+03  0.22329136710E+03  0.17528664665E+03 0.  0.
         24    2    5    5    0    0 -0.47092695914E+01 -0.80518758518E+02  0.13603915153E+03  0.17758436388E+03  0.80771949659E+02 0.  0.
          5    1    5    5  501    0  0.33141200900E+02 -0.46050200159E+01 -0.30781402458E+02  0.45707003225E+02  0.47000000000E+01 0. -1.
        -11    1    6    6    0    0 -0.42187587707E+02 -0.34648606106E+02  0.71905355294E+02  0.90281219429E+02  0.00000000000E+00 0.  1.
         12    1    6    6    0    0  0.37478318116E+02 -0.45870152412E+02  0.64133796232E+02  0.87303144446E+02  0.00000000000E+00 0. -1.
         -5    1    3    3    0  503 -0.32205058237E+02  0.24054145121E+02 -0.36800365001E+03  0.37022229011E+03  0.47000000000E+01 0.  1.
         13    1    4    4    0    0  0.88810518650E+01  0.35415705671E+01  0.94709055258E+01  0.13457854799E+02  0.00000000000E+00 0. -1.
        -14    1    4    4    0    0 -0.51079249369E+01  0.57528062846E+02 -0.14601547570E+03  0.15702257181E+03  0.00000000000E+00 0.  1.
</event>
<event>
12    1  0.1615162E-001  0.1845650E+03  0.7818608E-02  0.1163653E+00
         21   -1    0    0  503  502  0.00000000000E+00  0.00000000000E+00  0.51173960577E+03  0.51173960577E+03  0.00000000000E+00 0.  1.
         21   -1    0    0  501  503 -0.00000000000E+00 -0.00000000000E+00 -0.69768748618E+02  0.69768748618E+02  0.00000000000E+00 0.  1.
          6    2    1    2  501    0  0.53518533071E+02 -0.38930945729E+02  0.28662451428E+03  0.34090741732E+03  0.17229162219E+03 0.  0.
         24    2    3    3    0    0  0.76310841753E+02  0.10303212720E+02  0.11005274114E+03  0.15612870436E+03  0.79593126146E+02 0.  0.
         -6    2    1    2    0  502 -0.53518533071E+02  0.38930945729E+02  0.15534634287E+03  0.24060093707E+03  0.17139566144E+03 0.  0.
        -24    2    5    5    0    0 -0.54462322207E+01 -0.38158277959E+02  0.10337171968E+03  0.13582906120E+03  0.79234498896E+02 0.  0.
          5    1    3    3  501    0 -0.22792308683E+02 -0.49234158448E+02  0.17657177314E+03  0.18477871296E+03  0.47000000000E+01 0. -1.
        -11    1    4    4    0    0  0.50805491749E+02  0.32560045883E+02  0.10608411891E+03  0.12204587197E+03  0.00000000000E+00 0.  1.
         12    1    4    4    0    0  0.25505350004E+02 -0.22256833163E+02  0.39686222353E+01  0.34082832390E+02  0.00000000000E+00 0. -1.
         -5    1    5    5    0  502 -0.48072300850E+02  0.77089223687E+02  0.51974623192E+02  0.10477187587E+03  0.47000000000E+01 0.  1.
         13    1    6    6    0    0 -0.34357922197E+01  0.17690070561E+02  0.66447812602E+02  0.68848057810E+02  0.00000000000E+00 0. -1.
        -14    1    6    6    0    0 -0.20104400010E+01 -0.55848348520E+02  0.36923907075E+02  0.66981003390E+02  0.00000000000E+00 0.  1.
</event>
<event>
12    1  0.1615162E-001  0.1975142E+03  0.7818608E-02  0.1151875E+00
         21   -1    0    0  503  502  0.00000000000E+00  0.00000000000E+00  0.42868214001E+02  0.42868214001E+02  0.00000000000E+00 0.  1.
         21   -1    0    0  501  503 -0.00000000000E+00 -0.00000000000E+00 -0.92051865829E+03  0.92051865829E+03  0.00000000000E+00 0.  1.
          6    2    1    2  501    0 -0.12402829999E+02  0.96499155775E+02 -0.38643916415E+03  0.43398973467E+03  0.17188933927E+03 0.  0.
         24    2    3    3    0    0  0.46007184964E+02  0.54562911259E+02 -0.13444414420E+03  0.17189441130E+03  0.79866691267E+02 0.  0.
         -6    2    1    2    0  502  0.12402829999E+02 -0.96499155775E+02 -0.49121128014E+03  0.52939713762E+03  0.17177569772E+03 0.  0.
        -24    2    5    5    0    0 -0.17267451056E+02 -0.12981908923E+03 -0.33721901223E+03  0.36900308499E+03  0.72769868256E+02 0.  0.
          5    1    3    3  501    0 -0.58410014964E+02  0.41936244517E+02 -0.25199501995E+03  0.26209532337E+03  0.47000000000E+01 0. -1.
        -11    1    4    4    0    0  0.33479660237E+02  0.75040146820E+02 -0.93896643047E+02  0.12477375870E+03  0.00000000000E+00 0.  1.
         12    1    4    4    0    0  0.12527524727E+02 -0.20477235561E+02 -0.40547501151E+02  0.47120652602E+02  0.00000000000E+00 0. -1.
         -5    1    5    5    0  502  0.29670281056E+02  0.33319933458E+02 -0.15399226791E+03  0.16039405263E+03  0.47000000000E+01 0.  1.
         11    1    6    6    0    0  0.15954318821E+02 -0.33074833499E+00 -0.41907588648E+02  0.44843011382E+02  0.00000000000E+00 0. -1.
        -12    1    6    6    0    0 -0.33221769877E+02 -0.12948834090E+03 -0.29531142358E+03  0.32416007360E+03  0.00000000000E+00 0.  1.
</event>
<event>
12    1  0.1615162E-001  0.1756290E+03  0.7818608E-02  0.1172144E+00
         21   -1    0    0  503  502  0.00000000000E+00  0.00000000000E+00  0.17566007553E+02  0.17566007553E+02  0.00000000000E+00 0. -1.
         21   -1    0    0  501  503 -0.00000000000E+00 -0.00000000000E+00 -0.19002802785E+04  0.19002802785E+04  0.00000000000E+00 0. -1.
          6    2    1    2  501    0 -0.34255647354E+02  0.12956000942E+02 -0.67599039796E+03  0.69843292802E+03  0.17176795242E+03 0.  0.
         24    2    3    3    0    0 -0.62932699248E+02 -0.39609081905E+02 -0.34633193070E+03  0.36334748179E+03  0.80908481004E+02 0.  0.
         -6    2    1    2    0  502  0.34255647354E+02 -0.12956000942E+02 -0.12067238730E+04  0.12194133581E+04  0.17159581804E+03 0.  0.
        -24    2    5    5    0    0  0.60573479105E+02  0.32193179047E+02 -0.51482879658E+03  0.52553155002E+03  0.80182124795E+02 0.  0.
          5    1    3    3  501    0  0.28677051894E+02  0.52565082847E+02 -0.32965846726E+03  0.33508544623E+03  0.47000000000E+01 0. -1.
        -11    1    4    4    0    0 -0.22485873511E+02  0.22009585675E+02 -0.60847697714E+02  0.68501669222E+02  0.00000000000E+00 0.  1.
         12    1    4    4    0    0 -0.40446825737E+02 -0.61618667580E+02 -0.28548423299E+03  0.29484581257E+03  0.00000000000E+00 0. -1.
         -5    1    5    5    0  502 -0.26317831752E+02 -0.45149179989E+02 -0.69189507644E+03  0.69388180803E+03  0.47000000000E+01 0.  1.
         13    1    6    6    0    0  0.43035388585E+02  0.32168761348E+01 -0.95046201733E+02  0.10438473752E+03  0.00000000000E+00 0. -1.
        -14    1    6    6    0    0  0.17538090520E+02  0.28976302912E+02 -0.41978259484E+03  0.42114681251E+03  0.00000000000E+00 0.  1.
</event>
<event>
12    1  0.1615162E-001  0.1790028E+03  0.7818608E-02  0.1169404E+00
         21   -1    0    0  503  502  0.00000000000E+00  0.00000000000E+00  0.32175109603E+03  0.32175109603E+03  0.00000000000E+00 0.  1.
         21   -1    0    0  501  503 -0.00000000000E+00 -0.00000000000E+00 -0.13119953376E+03  0.13119953376E+03  0.00000000000E+00 0.  1.
          6    2    1    2  501    0 -0.85722801632E+01  0.46903457037E+02 -0.18890835907E+02  0.17743636681E+03  0.16986283383E+03 0.  0.
         24    2    3    3    0    0 -0.60683355649E+02  0.67409547837E+02  0.33789454526E+01  0.11698723853E+03  0.73811109688E+02 0.  0.
         -6    2    1    2    0  502  0.85722801632E+01 -0.46903457037E+02  0.20944239817E+03  0.27551426298E+03  0.17253571422E+03 0.  0.
        -24    2    5    5    0    0  0.62996144725E+02 -0.65317807268E+02  0.14999413405E+03  0.19270586102E+03  0.80014863770E+02 0.  0.
          5    1    3    3  501    0  0.52111075486E+02 -0.20506090800E+02 -0.22269781360E+02  0.60449128282E+02  0.47000000000E+01 0. -1.
        -13    1    4    4    0    0  0.16798409415E+02  0.11322476819E+02 -0.53091440085E+01  0.20942111887E+02  0.00000000000E+00 0.  1.
         14    1    4    4    0    0 -0.77481765064E+02  0.56087071018E+02  0.86880894611E+01  0.96045126639E+02  0.00000000000E+00 0. -1.
         -5    1    5    5    0  502 -0.54423864561E+02  0.18414350232E+02  0.59448264124E+02  0.82808401962E+02  0.47000000000E+01 0.  1.
         11    1    6    6    0    0  0.73899106742E+02 -0.26353048100E+02  0.81315104931E+02  0.11299428044E+03  0.00000000000E+00 0. -1.
        -12    1    6    6    0    0 -0.10902962017E+02 -0.38964759169E+02  0.68679029119E+02  0.79711580580E+02  0.00000000000E+00 0.  1.
</event>
<event>
12    1  0.1615162E-001  0.1847554E+03  0.7818608E-02  0.1163564E+00
         21   -1    0    0  501  502  0.00000000000E+00  0.00000000000E+00  0.10642372842E+03  0.10642372842E+03  0.00000000000E+00 0.  1.
         21   -1    0    0  502  503 -0.00000000000E+00 -0.00000000000E+00 -0.13065078214E+04  0.13065078214E+04  0.00000000000E+00 0.  1.
         -6    2    1    2    0  503  0.61711725389E+02  0.24535775487E+02 -0.12138653659E+04  0.12276628330E+04  0.17110395584E+03 0.  0.
        -24    2    3    3    0    0  0.39220790388E+02  0.71952181174E+02 -0.10324583950E+04  0.10387587918E+04  0.79587080742E+02 0.  0.
          6    2    1    2  501    0 -0.61711725389E+02 -0.24535775487E+02  0.13781272938E+02  0.18526871679E+03  0.17240717098E+03 0.  0.
         24    2    5    5    0    0 -0.40424195411E+02 -0.79555622969E+02  0.28944818143E+02  0.12417562673E+03  0.81354600704E+02 0.  0.
          5    1    5    5  501    0 -0.21287529979E+02  0.55019847482E+02 -0.15163545205E+02  0.61093090057E+02  0.47000000000E+01 0. -1.
        -13    1    6    6    0    0 -0.51434500367E+02 -0.13286632065E+02  0.74477294700E+01  0.53642437435E+02  0.00000000000E+00 0.  1.
         14    1    6    6    0    0  0.11010304957E+02 -0.66268990904E+02  0.21497088673E+02  0.70533189295E+02  0.00000000000E+00 0. -1.
         -5    1    3    3    0  503  0.22490935002E+02 -0.47416405687E+02 -0.18140697093E+03  0.18890404122E+03  0.47000000000E+01 0.  1.
         13    1    4    4    0    0  0.25422992840E+02 -0.46631300416E+01 -0.10890367439E+03  0.11192892228E+03  0.00000000000E+00 0. -1.
        -14    1    4    4    0    0  0.13797797548E+02  0.76615311215E+02 -0.92355472058E+03  0.92682986952E+03  0.00000000000E+00 0.  1.
</event>
<event>
12    1  0.1615162E-001  0.1866393E+03  0.7818608E-02  0.1161698E+00
         21   -1    0    0  503  502  0.00000000000E+00  0.00000000000E+00  0.53121129097E+03  0.53121129097E+03  0.00000000000E+00 0.  1.
         21   -1    0    0  501  503 -0.00000000000E+00 -0.00000000000E+00 -0.65882296924E+02  0.65882296924E+02  0.00000000000E+00 0. -1.
          6    2    1    2  501    0  0.55436802881E+02 -0.43482599142E+02  0.25986577967E+03  0.31951592880E+03  0.17203554798E+03 0.  0.
         24    2    3    3    0    0  0.49364635122E+01  0.58910585692E+01  0.22540516814E+03  0.24079067174E+03  0.84342068556E+02 0.  0.
         -6    2    1    2    0  502 -0.55436802881E+02  0.43482599142E+02  0.20546321438E+03  0.27757765910E+03  0.17283011551E+03 0.  0.
        -24    2    5    5    0    0 -0.10578200145E+00  0.82257933515E+02  0.99293732594E+02  0.15164475121E+03  0.79815452270E+02 0.  0.
          5    1    3    3  501    0  0.50500339369E+02 -0.49373657711E+02  0.34460611530E+02  0.78725257060E+02  0.47000000000E+01 0. -1.
        -11    1    4    4    0    0  0.41095980264E+02 -0.38011700884E+01  0.16185293867E+03  0.16703203957E+03  0.00000000000E+00 0.  1.
         12    1    4    4    0    0 -0.36159516752E+02  0.96922286576E+01  0.63552229468E+02  0.73758632162E+02  0.00000000000E+00 0. -1.
         -5    1    5    5    0  502 -0.55331020880E+02 -0.38775334373E+02  0.10616948179E+03  0.12593290789E+03  0.47000000000E+01 0.  1.
         11    1    6    6    0    0 -0.20255308624E+02  0.52888824401E+02  0.12741029297E+02  0.58050315257E+02  0.00000000000E+00 0. -1.
        -12    1    6    6    0    0  0.20149526623E+02  0.29369109114E+02  0.86552703297E+02  0.93594435952E+02  0.00000000000E+00 0.  1.
</event>
<event>
12    1  0.1615162E-001  0.1832345E+03  0.7818608E-02  0.1164890E+00
         21   -1    0    0  501  502  0.00000000000E+00  0.00000000000E+00  0.26124704921E+03  0.26124704921E+03  0.00000000000E+00 0.  1.
         21   -1    0    0  502  503 -0.00000000000E+00 -0.00000000000E+00 -0.15431769770E+03  0.15431769770E+03  0.00000000000E+00 0.  1.
         -6    2    1    2    0  503  0.54394814758E+02 -0.26046426746E+02 -0.32279057595E+02  0.18605591562E+03  0.17302500964E+03 0.  0.
        -24    2    3    3    0    0  0.96162149115E+02 -0.43101484376E+02 -0.92922282523E+01  0.13520446989E+03  0.84196236819E+02 0.  0.
          6    2    1    2  501    0 -0.54394814758E+02  0.26046426746E+02  0.13920840911E+03  0.22950883128E+03  0.17221530203E+03 0.  0.
         24    2    5    5    0    0 -0.96878587079E+02 -0.62041681045E+01  0.70887642817E+02  0.14270566956E+03  0.76914874269E+02 0.  0.
          5    1    5    5  501    0  0.42483772321E+02  0.32250594850E+02  0.68320766291E+02  0.86803161725E+02  0.47000000000E+01 0. -1.
        -13    1    6    6    0    0 -0.25185459017E+02  0.83533192209E+01  0.63931683902E+02  0.69219545610E+02  0.00000000000E+00 0.  1.
         14    1    6    6    0    0 -0.71693128062E+02 -0.14557487325E+02  0.69559589151E+01  0.73486123949E+02  0.00000000000E+00 0. -1.
         -5    1    3    3    0  503 -0.41767334357E+02  0.17055057630E+02 -0.22986829342E+02  0.50851445734E+02  0.47000000000E+01 0.  1.
         11    1    4    4    0    0  0.89917359245E+02  0.13740739837E+01 -0.78437447191E+01  0.90269285497E+02  0.00000000000E+00 0. -1.
        -12    1    4    4    0    0  0.62447898705E+01 -0.44475558360E+02 -0.14484835332E+01  0.44935184394E+02  0.00000000000E+00 0.  1.
</event>
<event>
12    1  0.1615162E-001  0.1806913E+03  0.7818608E-02  0.1167285E+00
         21   -1    0    0  501  502  0.00000000000E+00  0.00000000000E+00  0.15789130509E+04  0.15789130509E+04  0.00000000000E+00 0. -1.
         21   -1    0    0  502  503 -0.00000000000E+00 -0.00000000000E+00 -0.75916917534E+02  0.75916917534E+02  0.00000000000E+00 0. -1.
         -6    2    1    2    0  503  0.20806432649E+02  0.44400379477E+02  0.44905858769E+02  0.18558641997E+03  0.17326708224E+03 0.  0.
        -24    2    3    3    0    0  0.32196163903E+01 -0.42496927673E+02  0.26092295122E+02  0.94831374532E+02  0.80596693105E+02 0.  0.
          6    2    1    2  501    0 -0.20806432649E+02 -0.44400379477E+02  0.14580902746E+04  0.14692435485E+04  0.17391105337E+03 0.  0.
         24    2    5    5    0    0 -0.61915246440E+02 -0.13796548989E+02  0.54624793529E+03  0.55595001911E+03  0.81668686952E+02 0.  0.
          5    1    5    5  501    0  0.41108813791E+02 -0.30603830489E+02  0.91184233930E+03  0.91329352935E+03  0.47000000000E+01 0. -1.
        -11    1    6    6    0    0  0.34795162869E+01 -0.28665308018E+02  0.83146701829E+02  0.88018071681E+02  0.00000000000E+00 0.  1.
         12    1    6    6    0    0 -0.65394762727E+02  0.14868759029E+02  0.46310123346E+03  0.46793194742E+03  0.00000000000E+00 0. -1.
         -5    1    3    3    0  503  0.17586816259E+02  0.86897307150E+02  0.18813563647E+02  0.90755045442E+02  0.47000000000E+01 0.  1.
         13    1    4    4    0    0 -0.29617941515E+02 -0.11091067453E+02 -0.13667725250E+02  0.34453460644E+02  0.00000000000E+00 0. -1.
        -14    1    4    4    0    0  0.32837557906E+02 -0.31405860220E+02  0.39760020373E+02  0.60377913887E+02  0.00000000000E+00 0.  1.
</event>
<event>
12    1  0.1615162E-001  0.1807630E+03  0.7818608E-02  0.1167457E+00
         21   -1    0    0  501  502  0.00000000000E+00  0.00000000000E+00  0.11090330462E+03  0.11090330462E+03  0.00000000000E+00 0. -1.
         21   -1    0    0  502  503 -0.00000000000E+00 -0.00000000000E+00 -0.29230418443E+03  0.29230418443E+03  0.00000000000E+00 0. -1.
         -6    2    1    2    0  503  0.27876743505E+02 -0.42262271609E+02 -0.97607536448E+02  0.20543245797E+03  0.17352824320E+03 0.  0.
        -24    2    3    3    0    0 -0.72678481349E+01 -0.61605993119E+02 -0.10440182809E+00  0.99894440444E+02  0.78299223030E+02 0.  0.
          6    2    1    2  501    0 -0.27876743505E+02  0.42262271609E+02 -0.83793343369E+02  0.19777503108E+03  0.17184419133E+03 0.  0.
         24    2    5    5    0    0  0.28234074376E+02  0.37632751043E+02 -0.10213462620E+03  0.13837512367E+03  0.80639978152E+02 0.  0.
          5    1    5    5  501    0 -0.56110817881E+02  0.46295205663E+01  0.18341282827E+02  0.59399907405E+02  0.47000000000E+01 0. -1.
        -11    1    6    6    0    0  0.14043996331E+02 -0.21125581577E+02 -0.58681602942E+02  0.63930075503E+02  0.00000000000E+00 0.  1.
         12    1    6    6    0    0  0.14190078045E+02  0.58758332619E+02 -0.43453023253E+02  0.74445048170E+02  0.00000000000E+00 0. -1.
         -5    1    3    3    0  503  0.35144591640E+02  0.19343721510E+02 -0.97503134620E+02  0.10553801753E+03  0.47000000000E+01 0.  1.
         11    1    4    4    0    0  0.19131474053E+02 -0.68381238546E+02 -0.81589711701E+01  0.71474302340E+02  0.00000000000E+00 0. -1.
        -12    1    4    4    0    0 -0.26399322187E+02  0.67752454265E+01  0.80545693420E+01  0.28420138104E+02  0.00000000000E+00 0.  1.
</event>
<event>
12    1  0.1615162E-001  0.1877423E+03  0.7818608E-02  0.1160599E+00
         21   -1    0    0  503  502  0.00000000000E+00  0.00000000000E+00  0.40175565031E+03  0.40175565031E+03  0.00000000000E+00 0.  1.
         21   -1    0    0  501  503 -0.00000000000E+00 -0.00000000000E+00 -0.12713147156E+03  0.12713147156E+03  0.00000000000E+00 0.  1.
          6    2    1    2  501    0 -0.65037798467E+02 -0.11397112212E+02 -0.10317720705E+02  0.18765543264E+03  0.17535192226E+03 0.  0.
         24    2    3    3    0    0 -0.69939582450E+02  0.13699598996E+02  0.52660962721E+02  0.11952117572E+03  0.80205425282E+02 0.  0.
         -6    2    1    2    0  502  0.65037798467E+02  0.11397112212E+02  0.28494189945E+03  0.34123168923E+03  0.17574803065E+03 0.  0.
        -24    2    5    5    0    0 -0.13698531721E+02 -0.31053670886E+02  0.19999137119E+03  0.21778064254E+03  0.79245690536E+02 0.  0.
          5    1    3    3  501    0  0.49017839827E+01 -0.25096711208E+02 -0.62978683426E+02  0.68134256917E+02  0.47000000000E+01 0. -1.
        -11    1    4    4    0    0 -0.46052615023E+02 -0.24842552444E+02  0.52575997338E+02  0.74177026487E+02  0.00000000000E+00 0.  1.
         12    1    4    4    0    0 -0.23886967427E+02  0.38542151439E+02  0.84965382535E-01  0.45344149232E+02  0.00000000000E+00 0. -1.
         -5    1    5    5    0  502  0.78736330188E+02  0.42450783097E+02  0.84950528266E+02  0.12345104669E+03  0.47000000000E+01 0.  1.
         11    1    6    6    0    0 -0.25067759585E+02 -0.43729951901E+02  0.67730757923E+02  0.84428412473E+02  0.00000000000E+00 0. -1.
        -12    1    6    6    0    0  0.11369227864E+02  0.12676281015E+02  0.13226061326E+03  0.13335223006E+03  0.00000000000E+00 0.  1.
</event>
<event>
12    1  0.1615162E-001  0.1891043E+03  0.7818608E-02  0.1159433E+00
         21   -1    0    0  503  502  0.00000000000E+00  0.00000000000E+00  0.20390928454E+03  0.20390928454E+03  0.00000000000E+00 0. -1.
         21   -1    0    0  501  503 -0.00000000000E+00 -0.00000000000E+00 -0.26946795300E+03  0.26946795300E+03  0.00000000000E+00 0. -1.
          6    2    1    2  501    0  0.65652671653E+02  0.41001881365E+02 -0.17316976129E+03  0.25641413573E+03  0.17253699664E+03 0.  0.
         24    2    3    3    0    0  0.66026978437E+02  0.91512924469E+02 -0.13888961061E+03  0.19518730900E+03  0.77933204952E+02 0.  0.
         -6    2    1    2    0  502 -0.65652671653E+02 -0.41001881365E+02  0.10761109283E+03  0.21696310180E+03  0.17175975278E+03 0.  0.
        -24    2    5    5    0    0 -0.59635643901E+02  0.16452396244E+02  0.12162756133E+03  0.15733299173E+03  0.78315485344E+02 0.  0.
          5    1    3    3  501    0 -0.37430678453E+00 -0.50511043104E+02 -0.34280150684E+02  0.61226826734E+02  0.47000000000E+01 0. -1.
        -11    1    4    4    0    0  0.35690182677E+02  0.36993482219E+01 -0.11823727202E+02  0.37779291176E+02  0.00000000000E+00 0.  1.
         12    1    4    4    0    0  0.30336795760E+02  0.87813576247E+02 -0.12706588340E+03  0.15740801782E+03  0.00000000000E+00 0. -1.
         -5    1    5    5    0  502 -0.60170277516E+01 -0.57454277608E+02 -0.14016468502E+02  0.59630110076E+02  0.47000000000E+01 0.  1.
         13    1    6    6    0    0 -0.55356201887E+02  0.12408175756E+02  0.13296304650E+03  0.14455948135E+03  0.00000000000E+00 0. -1.
        -14    1    6    6    0    0 -0.42794420140E+01  0.40442204875E+01 -0.11335485171E+02  0.12773510377E+02  0.00000000000E+00 0.  1.
</event>
<event>
12    1  0.1615162E-001  0.2050321E+03  0.7818608E-02  0.1145634E+00
         21   -1    0    0  501  502  0.00000000000E+00  0.00000000000E+00  0.45865472938E+02  0.45865472938E+02  0.00000000000E+00 0. -1.
         21   -1    0    0  502  503 -0.00000000000E+00 -0.00000000000E+00 -0.95109792025E+03  0.95109792025E+03  0.00000000000E+00 0. -1.
         -6    2    1    2    0  503  0.94657367495E+02  0.59648677472E+02 -0.54939939923E+03  0.58628672872E+03  0.17138975015E+03 0.  0.
        -24    2    3    3    0    0  0.37744699458E+02 -0.34278768412E+02 -0.28179791217E+03  0.29698746715E+03  0.78687966268E+02 0.  0.
          6    2    1    2  501    0 -0.94657367495E+02 -0.59648677472E+02 -0.35583304808E+03  0.41067666447E+03  0.17181438440E+03 0.  0.
         24    2    5    5    0    0 -0.24663622189E+01 -0.64166707921E+02 -0.12037447032E+03  0.15772918792E+03  0.79151969446E+02 0.  0.
          5    1    5    5  501    0 -0.92191005276E+02  0.45180304493E+01 -0.23545857776E+03  0.25294747655E+03  0.47000000000E+01 0. -1.
        -11    1    6    6    0    0  0.27997306916E+02 -0.13712863560E+01 -0.16322007960E+02  0.32436670061E+02  0.00000000000E+00 0.  1.
         12    1    6    6    0    0 -0.30463669135E+02 -0.62795421565E+02 -0.10405246236E+03  0.12529251786E+03  0.00000000000E+00 0. -1.
         -5    1    3    3    0  503  0.56912668037E+02  0.93927445884E+02 -0.26760148706E+03  0.28929926157E+03  0.47000000000E+01 0.  1.
         13    1    4    4    0    0  0.36442403179E+01  0.19694731992E+02 -0.23314907174E+02  0.30736750841E+02  0.00000000000E+00 0. -1.
        -14    1    4    4    0    0  0.34100459141E+02 -0.53973500404E+02 -0.25848300500E+03  0.26625071631E+03  0.00000000000E+00 0.  1.
</event>
<event>
12    1  0.1615162E-001  0.1852499E+03  0.7818608E-02  0.1162997E+00
         21   -1    0    0  503  502  0.00000000000E+00  0.00000000000E+00  0.61200074610E+03  0.61200074610E+03  0.00000000000E+00 0.  1.
         21   -1    0    0  501  503 -0.00000000000E+00 -0.00000000000E+00 -0.19617827761E+03  0.19617827761E+03  0.00000000000E+00 0.  1.
          6    2    1    2  501    0  0.40521609139E+02  0.57050581974E+02 -0.13398665971E+03  0.22800008109E+03  0.17068931509E+03 0.  0.
         24    2    3    3    0    0  0.60758344701E+02  0.96414174044E+02 -0.10553891609E+03  0.17517601494E+03  0.80999407377E+02 0.  0.
         -6    2    1    2    0  502 -0.40521609139E+02 -0.57050581974E+02  0.54980912820E+03  0.58017894261E+03  0.17152480372E+03 0.  0.
        -24    2    5    5    0    0  0.20966356637E+02 -0.42613337313E+01  0.41849347212E+03  0.42579835382E+03  0.75562588846E+02 0.  0.
          5    1    3    3  501    0 -0.20236735562E+02 -0.39363592070E+02 -0.28447743623E+02  0.52824066145E+02  0.47000000000E+01 0. -1.
        -11    1    4    4    0    0  0.77435187561E+02  0.67147364259E+02 -0.95340178546E+02  0.13998116461E+03  0.00000000000E+00 0.  1.
         12    1    4    4    0    0 -0.16676842861E+02  0.29266809785E+02 -0.10198737542E+02  0.35194850337E+02  0.00000000000E+00 0. -1.
         -5    1    5    5    0  502 -0.61487965776E+02 -0.52789248243E+02  0.13131565608E+03  0.15438058880E+03  0.47000000000E+01 0.  1.
         13    1    6    6    0    0  0.24579723733E+02 -0.18606433344E+02  0.64423994355E+02  0.71419977802E+02  0.00000000000E+00 0. -1.
        -14    1    6    6    0    0 -0.36133670960E+01  0.14345099612E+02  0.35406947776E+03  0.35437837602E+03  0.00000000000E+00 0.  1.
</event>
<event>
12    1  0.1615162E-001  0.1809788E+03  0.7818608E-02  0.1167095E+00
         21   -1    0    0  503  502  0.00000000000E+00  0.00000000000E+00  0.39774471109E+03  0.39774471109E+03  0.00000000000E+00 0. -1.
         21   -1    0    0  501  503 -0.00000000000E+00 -0.00000000000E+00 -0.97446536175E+02  0.97446536175E+02  0.00000000000E+00 0. -1.
          6    2    1    2  501    0  0.55537119221E+01 -0.57078688098E+02  0.50917743265E+02  0.18706152491E+03  0.17061822051E+03 0.  0.
         24    2    3    3    0    0 -0.37738514629E+02  0.19195138591E+02  0.51773623247E+02  0.99227954743E+02  0.73300955700E+02 0.  0.
         -6    2    1    2    0  502 -0.55537119221E+01  0.57078688098E+02  0.24938043165E+03  0.30812972236E+03  0.17165228154E+03 0.  0.
        -24    2    5    5    0    0 -0.38273011406E+02  0.95305233773E+02  0.18223157660E+03  0.22408877943E+03  0.80371155093E+02 0.  0.
          5    1    3    3  501    0  0.43292226551E+02 -0.76273826688E+02 -0.85587998156E+00  0.87833570165E+02  0.47000000000E+01 0. -1.
        -13    1    4    4    0    0 -0.23309844787E+02 -0.27143544270E+02  0.26383772072E+02  0.44454744272E+02  0.00000000000E+00 0.  1.
         14    1    4    4    0    0 -0.14428669842E+02  0.46338682861E+02  0.25389851175E+02  0.54773210471E+02  0.00000000000E+00 0. -1.
         -5    1    5    5    0  502  0.32719299484E+02 -0.38226545676E+02  0.67148855060E+02  0.84040942932E+02  0.47000000000E+01 0.  1.
         11    1    6    6    0    0 -0.67738735073E+01  0.60530130705E+02  0.16185335315E+03  0.17293435173E+03  0.00000000000E+00 0. -1.
        -12    1    6    6    0    0 -0.31499137899E+02  0.34775103068E+02  0.20378223450E+02  0.51154427695E+02  0.00000000000E+00 0.  1.
</event>
<event>
12    1  0.1615162E-001  0.1917778E+03  0.7818608E-02  0.1157166E+00
         21   -1    0    0  501  502  0.00000000000E+00  0.00000000000E+00  0.47957587478E+03  0.47957587478E+03  0.00000000000E+00 0. -1.
         21   -1    0    0  502  503 -0.00000000000E+00 -0.00000000000E+00 -0.81525866838E+02  0.81525866838E+02  0.00000000000E+00 0. -1.
         -6    2    1    2    0  503  0.81076184354E+02  0.80864913634E+01  0.12638996737E+03  0.22856920404E+03  0.17213575507E+03 0.  0.
        -24    2    3    3    0    0  0.94921599815E+02 -0.47395205542E+01  0.15203034287E+03  0.19638658503E+03  0.80136711063E+02 0.  0.
          6    2    1    2  501    0 -0.81076184354E+02 -0.80864913634E+01  0.27166004057E+03  0.33253253758E+03  0.17360867459E+03 0.  0.
         24    2    5    5    0    0 -0.44033085865E+02  0.60251370965E+02  0.11946371776E+03  0.16157036267E+03  0.79147090133E+02 0.  0.
          5    1    5    5  501    0 -0.37043098489E+02 -0.68337862328E+02  0.15219632281E+03  0.17096217491E+03  0.47000000000E+01 0. -1.
        -11    1    6    6    0    0  0.25269629088E+01  0.14073548796E+02  0.87424058400E+02  0.88585643896E+02  0.00000000000E+00 0.  1.
         12    1    6    6    0    0 -0.46560048773E+02  0.46177822169E+02  0.32039659365E+02  0.72984718772E+02  0.00000000000E+00 0. -1.
         -5    1    3    3    0  503 -0.13845415461E+02  0.12826011918E+02 -0.25640375497E+02  0.32182619014E+02  0.47000000000E+01 0.  1.
         13    1    4    4    0    0  0.85566436794E+02  0.25242963558E+02  0.89270571074E+02  0.12620640703E+03  0.00000000000E+00 0. -1.
        -14    1    4    4    0    0  0.93551630217E+01 -0.29982484112E+02  0.62759771792E+02  0.70180178000E+02  0.00000000000E+00 0.  1.
</event>
<event>
12    1  0.1615162E-001  0.2180994E+03  0.7818608E-02  0.1135341E+00
         21   -1    0    0  501  502  0.00000000000E+00  0.00000000000E+00  0.40238338196E+03  0.40238338196E+03  0.00000000000E+00 0.  1.
         21   -1    0    0  502  503 -0.00000000000E+00 -0.00000000000E+00 -0.12373166991E+03  0.12373166991E+03  0.00000000000E+00 0.  1.
         -6    2    1    2    0  503  0.12997484299E+03  0.38530246427E+02  0.83347284180E+02  0.23348256044E+03  0.17084875343E+03 0.  0.
        -24    2    3    3    0    0  0.13759759143E+02  0.16349495447E+02 -0.83441567746E+01  0.83724950376E+02  0.80520838235E+02 0.  0.
          6    2    1    2  501    0 -0.12997484299E+03 -0.38530246427E+02  0.19530442786E+03  0.29263249143E+03  0.17062214334E+03 0.  0.
         24    2    5    5    0    0 -0.21456407677E+02 -0.37720572325E+02  0.15184291533E+03  0.17563719475E+03  0.76869592403E+02 0.  0.
          5    1    5    5  501    0 -0.10851843531E+03 -0.80967410216E+00  0.43461512533E+02  0.11699529668E+03  0.47000000000E+01 0. -1.
        -11    1    6    6    0    0 -0.26248748433E+02 -0.45074992160E+02  0.46347147143E+02  0.69776856914E+02  0.00000000000E+00 0.  1.
         12    1    6    6    0    0  0.47923407561E+01  0.73544198348E+01  0.10549576819E+03  0.10586033783E+03  0.00000000000E+00 0. -1.
         -5    1    3    3    0  503  0.11621508385E+03  0.22180750980E+02  0.91691440955E+02  0.14975761006E+03  0.47000000000E+01 0.  1.
         13    1    4    4    0    0  0.12523473611E+02  0.15176224478E+02  0.35104553202E+02  0.40242823412E+02  0.00000000000E+00 0. -1.
        -14    1    4    4    0    0  0.12362855320E+01  0.11732709682E+01 -0.43448709976E+02  0.43482126964E+02  0.00000000000E+00 0.  1.
</event>
<event>
12    1  0.1615162E-001  0.1983171E+03  0.7818608E-02  0.1151533E+00
         21   -1    0    0  501  502  0.00000000000E+00  0.00000000000E+00  0.10162267576E+04  0.10162267576E+04  0.00000000000E+00 0. -1.
         21   -1    0    0  502  503 -0.00000000000E+00 -0.00000000000E+00 -0.55256419205E+02  0.55256419205E+02  0.00000000000E+00 0. -1.
         -6    2    1    2    0  503  0.45368993141E+02 -0.86314278903E+02  0.18286626381E+03  0.26850397018E+03  0.17072144353E+03 0.  0.
        -24    2    3    3    0    0 -0.41652434788E+02 -0.33373761220E+02  0.10157531056E+03  0.13809792579E+03  0.76842437051E+02 0.  0.
          6    2    1    2  501    0 -0.45368993141E+02  0.86314278903E+02  0.77810407458E+03  0.80297920662E+03  0.17268802827E+03 0.  0.
         24    2    5    5    0    0  0.16740771643E+02  0.46387172916E+02  0.63405102579E+03  0.64103734193E+03  0.80474512713E+02 0.  0.
          5    1    5    5  501    0 -0.62109764784E+02  0.39927105987E+02  0.14405304879E+03  0.16194186469E+03  0.47000000000E+01 0. -1.
        -11    1    6    6    0    0  0.22619421617E+02 -0.10316007312E+02  0.73408408054E+02  0.77503887736E+02  0.00000000000E+00 0.  1.
         12    1    6    6    0    0 -0.58786499740E+01  0.56703180228E+02  0.56064261774E+03  0.56353345420E+03  0.00000000000E+00 0. -1.
         -5    1    3    3    0  503  0.87021427929E+02 -0.52940517684E+02  0.81290953253E+02  0.13040604439E+03  0.47000000000E+01 0.  1.
         11    1    4    4    0    0 -0.45964944757E+02 -0.27271197625E+02  0.21393847443E+02  0.57569011411E+02  0.00000000000E+00 0. -1.
        -12    1    4    4    0    0  0.43125099684E+01 -0.61025635944E+01  0.80181463113E+02  0.80528914382E+02  0.00000000000E+00 0.  1.
</event>
<event>
12    1  0.1615162E-001  0.1743927E+03  0.7818608E-02  0.1174588E+00
         21   -1    0    0  501  502  0.00000000000E+00  0.00000000000E+00  0.89205631544E+02  0.89205631544E+02  0.00000000000E+00 0. -1.
         21   -1    0    0  502  503 -0.00000000000E+00 -0.00000000000E+00 -0.56033028890E+03  0.56033028890E+03  0.00000000000E+00 0. -1.
         -6    2    1    2    0  503  0.34329126088E+02  0.96387382947E+01 -0.44506704877E+03  0.47801409853E+03  0.17070854201E+03 0.  0.
        -24    2    3    3    0    0 -0.33411196263E+02  0.13472430498E+02 -0.14056779172E+03  0.16601195749E+03  0.80640260052E+02 0.  0.
          6    2    1    2  501    0 -0.34329126088E+02 -0.96387382947E+01 -0.26057608588E+02  0.17152182192E+03  0.16573877716E+03 0.  0.
         24    2    5    5    0    0  0.51727390672E+01  0.35135099318E+02 -0.56769135909E+02  0.10421371100E+03  0.79853179866E+02 0.  0.
          5    1    5    5  501    0 -0.39501865155E+02 -0.44773837613E+02  0.30711527320E+02  0.67308110921E+02  0.47000000000E+01 0. -1.
        -11    1    6    6    0    0 -0.20721372383E+02 -0.43833801444E+01 -0.52694840732E+02  0.56792037599E+02  0.00000000000E+00 0.  1.
         12    1    6    6    0    0  0.25894111450E+02  0.39518479463E+02 -0.40742951769E+01  0.47421673399E+02  0.00000000000E+00 0. -1.
         -5    1    3    3    0  503  0.67740322351E+02 -0.38336922030E+01 -0.30449925705E+03  0.31200214104E+03  0.47000000000E+01 0.  1.
         13    1    4    4    0    0 -0.35545627425E+02 -0.24679154823E+02 -0.10597006652E+03  0.11446487369E+03  0.00000000000E+00 0. -1.
        -14    1    4    4    0    0  0.21344311619E+01  0.38151585320E+02 -0.34597725206E+02  0.51547083800E+02  0.00000000000E+00 0.  1.
</event>
<event>
12    1  0.1615162E-001  0.2113339E+03  0.7818608E-02  0.1140743E+00
         21   -1    0    0  503  502  0.00000000000E+00  0.00000000000E+00  0.33821699008E+03  0.33821699008E+03  0.00000000000E+00 0. -1.
         21   -1    0    0  501  503 -0.00000000000E+00 -0.00000000000E+00 -0.13293097486E+03  0.13293097486E+03  0.00000000000E+00 0. -1.
          6    2    1    2  501    0 -0.47113598484E+02 -0.11204343215E+03  0.76484445698E+02  0.22365681004E+03  0.17146158868E+03 0.  0.
         24    2    3    3    0    0 -0.51217808348E+02 -0.92003377055E+00  0.13651290536E+02  0.95846991975E+02  0.79850972338E+02 0.  0.
         -6    2    1    2    0  502  0.47113598484E+02  0.11204343215E+03  0.12880156952E+03  0.24749115490E+03  0.17288321373E+03 0.  0.
        -24    2    5    5    0    0  0.20486210533E+02  0.13558725036E+03  0.14427899350E+03  0.20844029296E+03  0.61865503175E+02 0.  0.
          5    1    3    3  501    0  0.41042098636E+01 -0.11112339838E+03  0.62833155163E+02  0.12780981807E+03  0.47000000000E+01 0. -1.
        -11    1    4    4    0    0  0.20713290750E+02  0.37761955673E+01 -0.44609642679E+01  0.21522087929E+02  0.00000000000E+00 0.  1.
         12    1    4    4    0    0 -0.71931099098E+02 -0.46962293379E+01  0.18112254803E+02  0.74324904046E+02  0.00000000000E+00 0. -1.
         -5    1    5    5    0  502  0.26627387951E+02 -0.23543818202E+02 -0.15477423983E+02  0.39050861934E+02  0.47000000000E+01 0.  1.
         13    1    6    6    0    0  0.36392149822E+01  0.16476154375E+02  0.57993262137E+02  0.60398062900E+02  0.00000000000E+00 0. -1.
        -14    1    6    6    0    0  0.16846995551E+02  0.11911109598E+03  0.86285731367E+02  0.14804223006E+03  0.00000000000E+00 0.  1.
</event>
<event>
12    1  0.1615162E-001  0.1991981E+03  0.7818608E-02  0.1151065E+00
         21   -1    0    0  501  502  0.00000000000E+00  0.00000000000E+00  0.39549489228E+02  0.39549489228E+02  0.00000000000E+00 0.  1.
         21   -1    0    0  502  503 -0.00000000000E+00 -0.00000000000E+00 -0.98818741142E+03  0.98818741142E+03  0.00000000000E+00 0. -1.
         -6    2    1    2    0  503  0.87654190074E+02 -0.40864674310E+02 -0.47333044340E+03  0.51353829679E+03  0.17414561428E+03 0.  0.
        -24    2    3    3    0    0  0.61058738697E+02  0.37244924477E+02 -0.33959817722E+03  0.35632876631E+03  0.80795505783E+02 0.  0.
          6    2    1    2  501    0 -0.87654190074E+02  0.40864674310E+02 -0.47530747879E+03  0.51419860386E+03  0.17067462076E+03 0.  0.
         24    2    5    5    0    0 -0.87663642594E+02  0.79071875539E+02 -0.27068020230E+03  0.30598188359E+03  0.80124062772E+02 0.  0.
          5    1    5    5  501    0  0.94525192906E-02 -0.38207201230E+02 -0.20462727650E+03  0.20821672027E+03  0.47000000000E+01 0. -1.
        -11    1    6    6    0    0 -0.26752115939E+02 -0.11777439880E+02 -0.31468060959E+02  0.42949070512E+02  0.00000000000E+00 0.  1.
         12    1    6    6    0    0 -0.60911526655E+02  0.90849315420E+02 -0.23921214134E+03  0.26303281308E+03  0.00000000000E+00 0. -1.
         -5    1    3    3    0  503  0.26595451378E+02 -0.78109598787E+02 -0.13373226617E+03  0.15720953048E+03  0.47000000000E+01 0.  1.
         11    1    4    4    0    0  0.58533726765E+02  0.77677120813E+01 -0.30563627790E+03  0.31128775897E+03  0.00000000000E+00 0. -1.
        -12    1    4    4    0    0  0.25250119314E+01  0.29477212395E+02 -0.33961899326E+02  0.45041007334E+02  0.00000000000E+00 0.  1.
</event>
<event>
12    1  0.1615162E-001  0.1907051E+03  0.7818608E-02  0.1158286E+00
         21   -1    0    0  503  502  0.00000000000E+00  0.00000000000E+00  0.24547508469E+03  0.24547508469E+03  0.00000000000E+00 0. -1.
         21   -1    0    0  501  503 -0.00000000000E+00 -0.00000000000E+00 -0.15282787919E+03  0.15282787919E+03  0.00000000000E+00 0.  1.
          6    2    1    2  501    0  0.10707563973E+02 -0.79970376275E+02  0.86352728431E+02  0.20749405516E+03  0.17054933659E+03 0.  0.
         24    2    3    3    0    0  0.30943312120E+01 -0.10538602762E+03  0.10986756035E+03  0.17173158927E+03  0.79404459782E+02 0.  0.
         -6    2    1    2    0  502 -0.10707563973E+02  0.79970376275E+02  0.62944770614E+01  0.19080890872E+03  0.17279614057E+03 0.  0.
        -24    2    5    5    0    0  0.24787100611E+02  0.47629653094E+01  0.48152592569E+02  0.97587571503E+02  0.81040580856E+02 0.  0.
          5    1    3    3  501    0  0.76132327614E+01  0.25415651345E+02 -0.23514831919E+02  0.35762465890E+02  0.47000000000E+01 0. -1.
        -11    1    4    4    0    0  0.17008166042E+02 -0.34252520512E+02 -0.21568177929E+01  0.38303586471E+02  0.00000000000E+00 0.  1.
         12    1    4    4    0    0 -0.13913834830E+02 -0.71133507108E+02  0.11202437814E+03  0.13342800280E+03  0.00000000000E+00 0. -1.
         -5    1    5    5    0  502 -0.35494664584E+02  0.75207410966E+02 -0.41858115508E+02  0.93221337214E+02  0.47000000000E+01 0.  1.
         13    1    6    6    0    0 -0.19678683794E+01  0.37671293371E+02  0.67585768850E+01  0.38323324643E+02  0.00000000000E+00 0. -1.
        -14    1    6    6    0    0  0.26754968990E+02 -0.32908328061E+02  0.41394015684E+02  0.59264246860E+02  0.00000000000E+00 0.  1.
</event>
<event>
12    1  0.1615162E-001  0.2165006E+03  0.7818608E-02  0.1140563E+00
         21   -1    0    0  503  502  0.00000000000E+00  0.00000000000E+00  0.35418359054E+03  0.35418359054E+03  0.00000000000E+00 0. -1.
         21   -1    0    0  501  503 -0.00000000000E+00 -0.00000000000E+00 -0.12111153460E+03  0.12111153460E+03  0.00000000000E+00 0. -1.
          6    2    1    2  501    0  0.82019003076E+02  0.49669739301E+02  0.91411549554E+02  0.21656704789E+03  0.17132137920E+03 0.  0.
         24    2    3    3    0    0  0.70028860533E+02  0.27464155088E+02  0.12986038354E+03  0.17033659987E+03  0.80576156031E+02 0.  0.
         -6    2    1    2    0  502 -0.82019003076E+02 -0.49669739301E+02  0.14166050638E+03  0.25872807725E+03  0.19410903900E+03 0.  0.
        -24    2    5    5    0    0 -0.70912236927E+02  0.38014668779E+02  0.28007518654E+02  0.11467597802E+03  0.76762610984E+02 0.  0.
          5    1    3    3  501    0  0.11990142543E+02  0.22205584213E+02 -0.38448833989E+02  0.46230448014E+02  0.47000000000E+01 0. -1.
        -13    1    4    4    0    0 -0.14222262489E+02 -0.30119689628E+01  0.27046269003E+01  0.14787146919E+02  0.00000000000E+00 0.  1.
         14    1    4    4    0    0  0.84251123021E+02  0.30476124051E+02  0.12715575664E+03  0.15554945296E+03  0.00000000000E+00 0. -1.
         -5    1    5    5    0  502 -0.11106766150E+02 -0.87684408080E+02  0.11365298772E+03  0.14405209923E+03  0.47000000000E+01 0.  1.
         13    1    6    6    0    0 -0.55747962234E+02 -0.98783051274E+01  0.30630584055E+02  0.64371180547E+02  0.00000000000E+00 0. -1.
        -14    1    6    6    0    0 -0.15164274692E+02  0.47892973907E+02 -0.26230654008E+01  0.50304797472E+02  0.00000000000E+00 0.  1.
</event>
<event>
12    1  0.1615162E-001  0.1925397E+03  0.7818608E-02  0.1157069E+00
         21   -1    0    0  503  502  0.00000000000E+00  0.00000000000E+00  0.72271667558E+03  0.72271667558E+03  0.00000000000E+00 0.  1.
         21   -1    0    0  501  503 -0.00000000000E+00 -0.00000000000E+00 -0.76908471070E+02  0.76908471070E+02  0.00000000000E+00 0.  1.
          6    2    1    2  501    0 -0.24030385000E+02 -0.82187160888E+02  0.85374398254E+02  0.20703962751E+03  0.16806079455E+03 0.  0.
         24    2    3    3    0    0 -0.58806979505E+02 -0.71229302828E+02  0.10846201838E+03  0.16362748195E+03  0.80486452264E+02 0.  0.
         -6    2    1    2    0  502  0.24030385000E+02  0.82187160888E+02  0.56043380625E+03  0.59258551913E+03  0.17245102922E+03 0.  0.
        -24    2    5    5    0    0 -0.36362323809E+02  0.41168721436E+02  0.17290227720E+03  0.19820934381E+03  0.79841494827E+02 0.  0.
          5    1    3    3  501    0  0.34776594505E+02 -0.10957858060E+02 -0.23087620131E+02  0.43412145558E+02  0.47000000000E+01 0. -1.
        -11    1    4    4    0    0  0.72153692756E+01 -0.51214757590E+02  0.32846636514E+02  0.61269196821E+02  0.00000000000E+00 0.  1.
         12    1    4    4    0    0 -0.66022348780E+02 -0.20014545238E+02  0.75615381870E+02  0.10235828513E+03  0.00000000000E+00 0. -1.
         -5    1    5    5    0  502  0.60392708809E+02  0.41018439452E+02  0.38753152905E+03  0.39437617532E+03  0.47000000000E+01 0.  1.
         11    1    6    6    0    0  0.43415809350E+01  0.22687028800E+01  0.12263282484E+03  0.12273062399E+03  0.00000000000E+00 0. -1.
        -12    1    6    6    0    0 -0.40703904744E+02  0.38900018556E+02  0.50269452365E+02  0.75478719824E+02  0.00000000000E+00 0.  1.
</event>
<event>
12    1  0.1615162E-001  0.1836096E+03  0.7818608E-02  0.1164568E+00
         21   -1    0    0  503  502  0.00000000000E+00  0.00000000000E+00  0.57526137730E+03  0.57526137730E+03  0.00000000000E+00 0. -1.
         21   -1    0    0  501  503 -0.00000000000E+00 -0.00000000000E+00 -0.75516004224E+02  0.75516004224E+02  0.00000000000E+00 0.  1.
          6    2    1    2  501    0 -0.14492076324E+02  0.58618820195E+02  0.94103674303E+02  0.20551602527E+03  0.17243882617E+03 0.  0.
         24    2    3    3    0    0  0.12113890430E+02 -0.32432362952E+02  0.36504122483E+02  0.94439503051E+02  0.79922864502E+02 0.  0.
         -6    2    1    2    0  502  0.14492076324E+02 -0.58618820195E+02  0.40564169878E+03  0.44526135626E+03  0.17339637029E+03 0.  0.
        -24    2    5    5    0    0  0.69728679139E+02 -0.14294676817E+02  0.29845524028E+03  0.31670499172E+03  0.78486271737E+02 0.  0.
          5    1    3    3  501    0 -0.26605966754E+02  0.91051183147E+02  0.57599551819E+02  0.11107652222E+03  0.47000000000E+01 0. -1.
        -11    1    4    4    0    0 -0.30380939143E+02 -0.26944899220E+02  0.42927396325E+01  0.40834503435E+02  0.00000000000E+00 0.  1.
         12    1    4    4    0    0  0.42494829573E+02 -0.54874637316E+01  0.32211382851E+02  0.53604999616E+02  0.00000000000E+00 0. -1.
         -5    1    5    5    0  502 -0.55236602815E+02 -0.44324143378E+02  0.10718645849E+03  0.12855636453E+03  0.47000000000E+01 0.  1.
         11    1    6    6    0    0  0.82628252579E+02 -0.14081192938E+02  0.19236615973E+03  0.20983433353E+03  0.00000000000E+00 0. -1.
        -12    1    6    6    0    0 -0.12899573439E+02 -0.21348387852E+00  0.10608908056E+03  0.10687065820E+03  0.00000000000E+00 0.  1.
</event>
<event>
12    1  0.1615162E-001  0.1804112E+03  0.7818608E-02  0.1167674E+00
         21   -1    0    0  501  502  0.00000000000E+00  0.00000000000E+00  0.52711678829E+03  0.52711678829E+03  0.00000000000E+00 0. -1.
         21   -1    0    0  502  503 -0.00000000000E+00 -0.00000000000E+00 -0.84310276205E+02  0.84310276205E+02  0.00000000000E+00 0. -1.
         -6    2    1    2    0  503  0.52168073355E+02  0.16222368249E+02  0.38136960293E+03  0.42188976730E+03  0.17194047983E+03 0.  0.
        -24    2    3    3    0    0  0.25710954950E+02  0.60388774397E+02  0.13198449410E+03  0.16720236468E+03  0.78923170200E+02 0.  0.
          6    2    1    2  501    0 -0.52168073355E+02 -0.16222368249E+02  0.61436909148E+02  0.18953729719E+03  0.17077827763E+03 0.  0.
         24    2    5    5    0    0 -0.28781466932E+02  0.74617162116E+01 -0.31822687858E+02  0.90404499132E+02  0.79222723717E+02 0.  0.
          5    1    5    5  501    0 -0.23386606423E+02 -0.23684084461E+02  0.93259597006E+02  0.99132798056E+02  0.47000000000E+01 0. -1.
        -13    1    6    6    0    0  0.67637253174E+01  0.60355464060E+01 -0.49749758083E+02  0.50568905761E+02  0.00000000000E+00 0.  1.
         14    1    6    6    0    0 -0.35545192249E+02  0.14261698056E+01  0.17927070224E+02  0.39835593371E+02  0.00000000000E+00 0. -1.
         -5    1    3    3    0  503  0.26457118404E+02 -0.44166406148E+02  0.24938510883E+03  0.25468740262E+03  0.47000000000E+01 0.  1.
         11    1    4    4    0    0  0.45729012924E+02  0.66196815325E+02  0.11481057317E+03  0.14019496672E+03  0.00000000000E+00 0. -1.
        -12    1    4    4    0    0 -0.20018057974E+02 -0.58080409273E+01  0.17173920928E+02  0.27007397959E+02  0.00000000000E+00 0.  1.
</event>
<event>
12    1  0.1615162E-001  0.1781424E+03  0.7818608E-02  0.1169653E+00
         21   -1    0    0  503  502  0.00000000000E+00  0.00000000000E+00  0.42698626224E+02  0.42698626224E+02  0.00000000000E+00 0.  1.
         21   -1    0    0  501  503 -0.00000000000E+00 -0.00000000000E+00 -0.11020154751E+04  0.11020154751E+04  0.00000000000E+00 0.  1.
          6    2    1    2  501    0 -0.33093950912E+02 -0.33616203297E+02 -0.85638593934E+03  0.87468505976E+03  0.17161531967E+03 0.  0.
         24    2    3    3    0    0 -0.73186391989E+02 -0.47404027706E+00 -0.73229890320E+03  0.74005412223E+03  0.77858509554E+02 0.  0.
         -6    2    1    2    0  502  0.33093950912E+02  0.33616203297E+02 -0.20293090954E+03  0.27002904157E+03  0.17178320796E+03 0.  0.
        -24    2    5    5    0    0  0.61094757108E+01 -0.42976174102E+02 -0.99222083646E+02  0.13822553348E+03  0.85889457961E+02 0.  0.
          5    1    3    3  501    0  0.40092441077E+02 -0.33142163020E+02 -0.12408703614E+03  0.13463093752E+03  0.47000000000E+01 0. -1.
        -11    1    4    4    0    0 -0.32238958648E+02 -0.17732272161E+02 -0.58604354595E+03  0.58719742990E+03  0.00000000000E+00 0.  1.
         12    1    4    4    0    0 -0.40947433342E+02  0.17258231884E+02 -0.14625535726E+03  0.15285669234E+03  0.00000000000E+00 0. -1.
         -5    1    5    5    0  502  0.26984475201E+02  0.76592377400E+02 -0.10370882589E+03  0.13180350809E+03  0.47000000000E+01 0.  1.
         13    1    6    6    0    0  0.18296848763E+02 -0.40621680407E+02 -0.11192422520E+03  0.12046546302E+03  0.00000000000E+00 0. -1.
        -14    1    6    6    0    0 -0.12187373052E+02 -0.23544936951E+01  0.12702141558E+02  0.17760070457E+02  0.00000000000E+00 0.  1.
</event>
<event>
12    1  0.1615162E-001  0.1857806E+03  0.7818608E-02  0.1162976E+00
         21   -1    0    0  501  502  0.00000000000E+00  0.00000000000E+00  0.43425861319E+03  0.43425861319E+03  0.00000000000E+00 0. -1.
         21   -1    0    0  502  503 -0.00000000000E+00 -0.00000000000E+00 -0.79451347599E+02  0.79451347599E+02  0.00000000000E+00 0. -1.
         -6    2    1    2    0  503  0.24081683780E+02  0.55625101231E+02  0.14503129633E+03  0.23349504826E+03  0.17266088517E+03 0.  0.
        -24    2    3    3    0    0 -0.47234065752E+01  0.98746193873E+02  0.12181659602E+03  0.17648474944E+03  0.80836021348E+02 0.  0.
          6    2    1    2  501    0 -0.24081683780E+02 -0.55625101231E+02  0.20977596926E+03  0.28021491252E+03  0.17561423786E+03 0.  0.
         24    2    5    5    0    0  0.53119121574E+02 -0.73116341391E+01  0.10393444204E+03  0.14050566324E+03  0.77874078423E+02 0.  0.
          5    1    5    5  501    0 -0.77200805355E+02 -0.48313467092E+02  0.10584152722E+03  0.13970924928E+03  0.47000000000E+01 0. -1.
        -13    1    6    6    0    0  0.59743992121E+02 -0.30244035012E+02  0.57363966538E+02  0.88174094299E+02  0.00000000000E+00 0.  1.
         14    1    6    6    0    0 -0.66248705463E+01  0.22932400873E+02  0.46570475505E+02  0.52331568945E+02  0.00000000000E+00 0. -1.
         -5    1    3    3    0  503  0.28805090356E+02 -0.43121092642E+02  0.23214700310E+02  0.57010298820E+02  0.47000000000E+01 0.  1.
         13    1    4    4    0    0  0.38031349855E+02  0.42161093477E+02  0.54183807957E+02  0.78484561664E+02  0.00000000000E+00 0. -1.
        -14    1    4    4    0    0 -0.42754756430E+02  0.56585100396E+02  0.67632788059E+02  0.98000187780E+02  0.00000000000E+00 0.  1.
</event>
<event>
12    1  0.1615162E-001  0.1826611E+03  0.7818608E-02  0.1166020E+00
         21   -1    0    0  501  502  0.00000000000E+00  0.00000000000E+00  0.31966301182E+03  0.31966301182E+03  0.00000000000E+00 0.  1.
         21   -1    0    0  502  503 -0.00000000000E+00 -0.00000000000E+00 -0.14043803148E+03  0.14043803148E+03  0.00000000000E+00 0.  1.
         -6    2    1    2    0  503  0.32162768045E+02 -0.52595324440E+02  0.20967441897E+03  0.27807992628E+03  0.17194293131E+03 0.  0.
        -24    2    3    3    0    0  0.41997864416E+02 -0.95755444680E+02  0.12043841086E+03  0.17835690866E+03  0.79830133746E+02 0.  0.
          6    2    1    2  501    0 -0.32162768045E+02  0.52595324440E+02 -0.30449438636E+02  0.18202111702E+03  0.16853429006E+03 0.  0.
         24    2    5    5    0    0 -0.46877307371E+02  0.21639412076E+02  0.38431625023E+02  0.10494013941E+03  0.82883635031E+02 0.  0.
          5    1    5    5  501    0  0.14714539326E+02  0.30955912364E+02 -0.68881063659E+02  0.77080977606E+02  0.47000000000E+01 0. -1.
        -11    1    6    6    0    0 -0.19842092195E+02  0.26757974390E+02  0.60900666990E+02  0.69416057624E+02  0.00000000000E+00 0.  1.
         12    1    6    6    0    0 -0.27035215175E+02 -0.51185623140E+01 -0.22469041968E+02  0.35524081785E+02  0.00000000000E+00 0. -1.
         -5    1    3    3    0  503 -0.98350963710E+01  0.43160120239E+02  0.89236008116E+02  0.99723017625E+02  0.47000000000E+01 0.  1.
         11    1    4    4    0    0 -0.19419893091E+02 -0.38547412872E+01  0.27835262316E+02  0.34158353389E+02  0.00000000000E+00 0. -1.
        -12    1    4    4    0    0  0.61417757506E+02 -0.91900703393E+02  0.92603148542E+02  0.14419855527E+03  0.00000000000E+00 0.  1.
</event>
<event>
12    1  0.1615162E-001  0.2022505E+03  0.7818608E-02  0.1147988E+00
         21   -1    0    0  501  502  0.00000000000E+00  0.00000000000E+00  0.12613807750E+04  0.12613807750E+04  0.00000000000E+00 0. -1.
         21   -1    0    0  502  503 -0.00000000000E+00 -0.00000000000E+00 -0.39653919389E+02  0.39653919389E+02  0.00000000000E+00 0. -1.
         -6    2    1    2    0  503  0.20429472413E+01 -0.10521704187E+03  0.33042288565E+03  0.38707187826E+03  0.17196091429E+03 0.  0.
        -24    2    3    3    0    0  0.63345513554E+02 -0.94354399667E+02  0.25011354502E+03  0.28534832236E+03  0.77145789563E+02 0.  0.
          6    2    1    2  501    0 -0.20429472413E+01  0.10521704187E+03  0.89130396997E+03  0.91396281614E+03  0.17271497581E+03 0.  0.
         24    2    5    5    0    0  0.61397467835E+02  0.92913908765E+02  0.58793508161E+03  0.60375187859E+03  0.80287154747E+02 0.  0.
          5    1    5    5  501    0 -0.63440415076E+02  0.12303133106E+02  0.30336888836E+03  0.31021093755E+03  0.47000000000E+01 0. -1.
        -11    1    6    6    0    0  0.29628154522E+02 -0.16348997161E+01  0.65887107295E+02  0.72260717857E+02  0.00000000000E+00 0.  1.
         12    1    6    6    0    0  0.31769313313E+02  0.94548808481E+02  0.52204797431E+03  0.53149116073E+03  0.00000000000E+00 0. -1.
         -5    1    3    3    0  503 -0.61302566313E+02 -0.10862642204E+02  0.80309340626E+02  0.10172355590E+03  0.47000000000E+01 0.  1.
         13    1    4    4    0    0  0.12954843078E+02 -0.44035008187E+02  0.32134202434E+02  0.56031391838E+02  0.00000000000E+00 0. -1.
        -14    1    4    4    0    0  0.50390670477E+02 -0.50319391480E+02  0.21797934259E+03  0.22931693052E+03  0.00000000000E+00 0.  1.
</event>
<event>
12    1  0.1615162E-001  0.1757549E+03  0.7818608E-02  0.1172363E+00
         21   -1    0    0  503  502  0.00000000000E+00  0.00000000000E+00  0.13976100375E+03  0.13976100375E+03  0.00000000000E+00 0. -1.
         21   -1    0    0  501  503 -0.00000000000E+00 -0.00000000000E+00 -0.24028890787E+03  0.24028890787E+03  0.00000000000E+00 0. -1.
          6    2    1    2  501    0 -0.21361900269E+02 -0.18494984872E+02 -0.10651674213E+03  0.20419295918E+03  0.17190274278E+03 0.  0.
         24    2    3    3    0    0  0.26938533594E+01 -0.77282959990E+02 -0.71393001137E+02  0.13145732498E+03  0.78766458150E+02 0.  0.
         -6    2    1    2    0  502  0.21361900269E+02  0.18494984872E+02  0.59888380192E+01  0.17585695243E+03  0.17346874730E+03 0.  0.
        -24    2    5    5    0    0  0.64070498665E+02  0.56253926841E+02 -0.95586767676E+01  0.11658151661E+03  0.78932557476E+02 0.  0.
          5    1    3    3  501    0 -0.24055753628E+02  0.58787975118E+02 -0.35123740998E+02  0.72735634202E+02  0.47000000000E+01 0. -1.
        -13    1    4    4    0    0  0.19420025856E+02  0.56911984246E+01  0.73577483081E+00  0.20250148354E+02  0.00000000000E+00 0.  1.
         14    1    4    4    0    0 -0.16726172497E+02 -0.82974158415E+02 -0.72128775967E+02  0.11120717663E+03  0.00000000000E+00 0. -1.
         -5    1    5    5    0  502 -0.42708598395E+02 -0.37758941968E+02  0.15547514787E+02  0.59275435819E+02  0.47000000000E+01 0.  1.
         13    1    6    6    0    0  0.17238383071E+02 -0.12642036881E+02  0.18914726220E+02  0.28543822719E+02  0.00000000000E+00 0. -1.
        -14    1    6    6    0    0  0.46832115593E+02  0.68895963722E+02 -0.28473402988E+02  0.88037693892E+02  0.00000000000E+00 0.  1.
</event>
<event>
12    1  0.1615162E-001  0.1939235E+03  0.7818608E-02  0.1155888E+00
         21   -1    0    0  501  502  0.00000000000E+00  0.00000000000E+00  0.86157431571E+03  0.86157431571E+03  0.00000000000E+00 0.  1.
         21   -1    0    0  502  503 -0.00000000000E+00 -0.00000000000E+00 -0.21403073534E+03  0.21403073534E+03  0.00000000000E+00 0.  1.
         -6    2    1    2    0  503 -0.80550556090E+02  0.12132651557E+02 -0.15666867505E+03  0.24930180168E+03  0.17598500293E+03 0.  0.
        -24    2    3    3    0    0 -0.70827896804E+02  0.70127846457E+02 -0.72668224388E+02  0.14665610792E+03  0.79327405987E+02 0.  0.
          6    2    1    2  501    0  0.80550556090E+02 -0.12132651557E+02  0.80421225542E+03  0.82630324938E+03  0.17141795370E+03 0.  0.
         24    2    5    5    0    0  0.19246982538E+02 -0.26376491856E+02  0.69313863131E+03  0.69855171284E+03  0.80418702007E+02 0.  0.
          5    1    5    5  501    0  0.61303573552E+02  0.14243840299E+02  0.11107362411E+03  0.12775153654E+03  0.47000000000E+01 0. -1.
        -13    1    6    6    0    0  0.24752674812E+02  0.24938022328E+02  0.29234001190E+03  0.29444402256E+03  0.00000000000E+00 0.  1.
         14    1    6    6    0    0 -0.55056922742E+01 -0.51314514184E+02  0.40079861942E+03  0.40410769028E+03  0.00000000000E+00 0. -1.
         -5    1    3    3    0  503 -0.97226592863E+01 -0.57995194901E+02 -0.84000450661E+02  0.10264569375E+03  0.47000000000E+01 0.  1.
         11    1    4    4    0    0 -0.82204367141E+02  0.72937637563E+02 -0.49165349341E+02  0.12039388907E+03  0.00000000000E+00 0. -1.
        -12    1    4    4    0    0  0.11376470337E+02 -0.28097911057E+01 -0.23502875047E+02  0.26262218849E+02  0.00000000000E+00 0.  1.
</event>
<event>
12    1  0.1615162E-001  0.2017090E+03  0.7818608E-02  0.1148537E+00
         21   -1    0    0  503  502  0.00000000000E+00  0.00000000000E+00  0.99553437987E+02  0.99553437987E+02  0.00000000000E+00 0. -1.
         21   -1    0    0  501  503 -0.00000000000E+00 -0.00000000000E+00 -0.51484247405E+03  0.51484247405E+03  0.00000000000E+00 0. -1.
          6    2    1    2  501    0  0.48676946443E+02  0.91536684688E+02 -0.34814891574E+03  0.40180634260E+03  0.17173310590E+03 0.  0.
         24    2    3    3    0    0  0.80943815869E+02  0.92059562503E+02 -0.18520773559E+03  0.23563371413E+03  0.78705003250E+02 0.  0.
         -6    2    1    2    0  502 -0.48676946443E+02 -0.91536684688E+02 -0.67140120322E+02  0.21258956944E+03  0.17302635498E+03 0.  0.
        -24    2    5    5    0    0 -0.91696559515E+02 -0.80919401936E+02 -0.79889233896E+02  0.16624257710E+03  0.79360545053E+02 0.  0.
          5    1    3    3  501    0 -0.32266869426E+02 -0.52287781502E+00 -0.16294118015E+03  0.16617262847E+03  0.47000000000E+01 0. -1.
        -13    1    4    4    0    0  0.31556264488E+02 -0.93123938200E+01 -0.43064189907E+02  0.54194491966E+02  0.00000000000E+00 0.  1.
         14    1    4    4    0    0  0.49387551381E+02  0.10137195632E+03 -0.14214354568E+03  0.18143922216E+03  0.00000000000E+00 0. -1.
         -5    1    5    5    0  502  0.43019613071E+02 -0.10617282751E+02  0.12749113574E+02  0.46346992338E+02  0.47000000000E+01 0.  1.
         13    1    6    6    0    0 -0.24394489412E+02 -0.70799308523E+02 -0.25453068919E+02  0.79091667819E+02  0.00000000000E+00 0. -1.
        -14    1    6    6    0    0 -0.67302070103E+02 -0.10120093414E+02 -0.54436164977E+02  0.87150909279E+02  0.00000000000E+00 0.  1.
</event>
<event>
12    1  0.1615162E-001  0.2088413E+03  0.7818608E-02  0.1142823E+00
         21   -1    0    0  501  502  0.00000000000E+00  0.00000000000E+00  0.81599532920E+02  0.81599532920E+02  0.00000000000E+00 0.  1.
         21   -1    0    0  502  503 -0.00000000000E+00 -0.00000000000E+00 -0.69234000877E+03  0.69234000877E+03  0.00000000000E+00 0. -1.
         -6    2    1    2    0  503  0.17394979630E+02 -0.11765456178E+03 -0.49357043165E+03  0.53593513526E+03  0.17166687795E+03 0.  0.
        -24    2    3    3    0    0  0.70834613676E+02 -0.80942966670E+02 -0.27889453628E+03  0.31163318308E+03  0.88112269734E+02 0.  0.
          6    2    1    2  501    0 -0.17394979630E+02  0.11765456178E+03 -0.11717004421E+03  0.23800440644E+03  0.16962339756E+03 0.  0.
         24    2    5    5    0    0  0.32476420247E+02  0.11828128982E+03 -0.11717156369E+03  0.18790810601E+03  0.80839962739E+02 0.  0.
          5    1    5    5  501    0 -0.49871399877E+02 -0.62672803456E+00  0.15194786230E-02  0.50096300423E+02  0.47000000000E+01 0. -1.
        -11    1    6    6    0    0  0.22740035594E+02  0.12887722569E+03 -0.95976294660E+02  0.16228954883E+03  0.00000000000E+00 0.  1.
         12    1    6    6    0    0  0.97363846532E+01 -0.10595935877E+02 -0.21195269029E+02  0.25618557189E+02  0.00000000000E+00 0. -1.
         -5    1    3    3    0  503 -0.53439634046E+02 -0.36711595113E+02 -0.21467589536E+03  0.22430195218E+03  0.47000000000E+01 0.  1.
         11    1    4    4    0    0  0.10147441641E+02 -0.75678715881E+02 -0.17938176308E+03  0.19495654781E+03  0.00000000000E+00 0. -1.
        -12    1    4    4    0    0  0.60687172035E+02 -0.52642507891E+01 -0.99512773204E+02  0.11667663526E+03  0.00000000000E+00 0.  1.
</event>
<event>
12    1  0.1615162E-001  0.1927349E+03  0.7818608E-02  0.1156260E+00
         21   -1    0    0  503  502  0.00000000000E+00  0.00000000000E+00  0.18872408257E+03  0.18872408257E+03  0.00000000000E+00 0. -1.
         21   -1    0    0  501  503 -0.00000000000E+00 -0.00000000000E+00 -0.42636062339E+03  0.42636062339E+03  0.00000000000E+00 0. -1.
          6    2    1    2  501    0  0.12279280403E+02  0.87333275973E+02 -0.34516961098E+03  0.39533376543E+03  0.17137340494E+03 0.  0.
         24    2    3    3    0    0  0.39044721504E+02  0.61426256717E+02 -0.93113191512E+02  0.14049638379E+03  0.75970337185E+02 0.  0.
         -6    2    1    2    0  502 -0.12279280403E+02 -0.87333275973E+02  0.10753307017E+03  0.21975094054E+03  0.17014474094E+03 0.  0.
        -24    2    5    5    0    0 -0.30420958085E+02 -0.12038586395E+03  0.10616761866E+03  0.18173057101E+03  0.79600541811E+02 0.  0.
          5    1    3    3  501    0 -0.26765441101E+02  0.25907019255E+02 -0.25205641947E+03  0.25483738164E+03  0.47000000000E+01 0. -1.
        -13    1    4    4    0    0  0.15772239111E+02 -0.16337024734E+02 -0.11753151916E+02  0.25569483446E+02  0.00000000000E+00 0.  1.
         14    1    4    4    0    0  0.23272482392E+02  0.77763281451E+02 -0.81360039596E+02  0.11492690034E+03  0.00000000000E+00 0. -1.
         -5    1    5    5    0  502  0.18141677682E+02  0.33052587981E+02  0.13654515032E+01  0.38020369530E+02  0.47000000000E+01 0.  1.
         11    1    6    6    0    0 -0.61338886419E+01 -0.11234759120E+03  0.10815905876E+03  0.15607045790E+03  0.00000000000E+00 0. -1.
        -12    1    6    6    0    0 -0.24287069443E+02 -0.80382727517E+01 -0.19914400966E+01  0.25660113106E+02  0.00000000000E+00 0.  1.
</event>
<event>
12    1  0.1615162E-001  0.2069012E+03  0.7818608E-02  0.1144096E+00
         21   -1    0    0  501  502  0.00000000000E+00  0.00000000000E+00  0.11495742304E+03  0.11495742304E+03  0.00000000000E+00 0.  1.
         21   -1    0    0  502  503 -0.00000000000E+00 -0.00000000000E+00 -0.37277132960E+03  0.37277132960E+03  0.00000000000E+00 0.  1.
         -6    2    1    2    0  503  0.58918883410E+01  0.11334859363E+03 -0.14050526246E+03  0.24988544190E+03  0.17268001410E+03 0.  0.
        -24    2    3    3    0    0 -0.53355278193E+02  0.24002497632E+02 -0.55425395160E+02  0.11294156496E+03  0.79125956951E+02 0.  0.
          6    2    1    2  501    0 -0.58918883410E+01 -0.11334859363E+03 -0.11730864411E+03  0.23784331074E+03  0.17298989697E+03 0.  0.
         24    2    5    5    0    0 -0.60016466675E+02 -0.11469618515E+03 -0.77821504923E+02  0.17066734670E+03  0.79460464657E+02 0.  0.
          5    1    5    5  501    0  0.54124578334E+02  0.13475915192E+01 -0.39487139183E+02  0.67175964032E+02  0.47000000000E+01 0. -1.
        -11    1    6    6    0    0 -0.45766298885E+02 -0.24953805434E+02 -0.17419180526E+01  0.52156311198E+02  0.00000000000E+00 0.  1.
         12    1    6    6    0    0 -0.14250167790E+02 -0.89742379712E+02 -0.76079586870E+02  0.11851103551E+03  0.00000000000E+00 0. -1.
         -5    1    3    3    0  503  0.59247166534E+02  0.89346095995E+02 -0.85079867298E+02  0.13694387694E+03  0.47000000000E+01 0.  1.
         11    1    4    4    0    0 -0.27822390183E+02 -0.24913515744E+02 -0.41901964824E+02  0.56129700857E+02  0.00000000000E+00 0. -1.
        -12    1    4    4    0    0 -0.25532888011E+02  0.48916013377E+02 -0.13523430336E+02  0.56811864103E+02  0.00000000000E+00 0.  1.
</event>
<event>
12    1  0.1615162E-001  0.3442885E+03  0.7818608E-02  0.1065145E+00
         21   -1    0    0  501  502  0.00000000000E+00  0.00000000000E+00  0.10071790691E+04  0.10071790691E+04  0.00000000000E+00 0.  1.
         21   -1    0    0  502  503 -0.00000000000E+00 -0.00000000000E+00 -0.12331522302E+03  0.12331522302E+03  0.00000000000E+00 0. -1.
         -6    2    1    2    0  503  0.68267515426E+02  0.28872482345E+03  0.31478246671E+03  0.46537161044E+03  0.17163990539E+03 0.  0.
        -24    2    3    3    0    0  0.70053688232E+02  0.30188749495E+03  0.27263089334E+03  0.42092735917E+03  0.82514597794E+02 0.  0.
          6    2    1    2  501    0 -0.68267515426E+02 -0.28872482345E+03  0.56908137941E+03  0.66512268170E+03  0.17467709635E+03 0.  0.
         24    2    5    5    0    0  0.89572296240E+01 -0.23895715107E+03  0.42830629190E+03  0.49695550974E+03  0.79609967811E+02 0.  0.
          5    1    5    5  501    0 -0.77224745051E+02 -0.49767672381E+02  0.14077508751E+03  0.16816717196E+03  0.47000000000E+01 0. -1.
        -11    1    6    6    0    0  0.38713256180E+02 -0.65954076589E+02  0.13189287192E+03  0.15246109696E+03  0.00000000000E+00 0.  1.
         12    1    6    6    0    0 -0.29756026556E+02 -0.17300307448E+03  0.29641341997E+03  0.34449441278E+03  0.00000000000E+00 0. -1.
         -5    1    3    3    0  503 -0.17861728059E+01 -0.13162671502E+02  0.42151573363E+02  0.44444251274E+02  0.47000000000E+01 0.  1.
         11    1    4    4    0    0  0.21102919629E+02  0.87581843891E+01  0.26989190221E+02  0.35361778794E+02  0.00000000000E+00 0. -1.
        -12    1    4    4    0    0  0.48950768603E+02  0.29312931056E+03  0.24564170312E+03  0.38556558038E+03  0.00000000000E+00 0.  1.
</event>
<event>
12    1  0.1615162E-001  0.1799048E+03  0.7818608E-02  0.1167981E+00
         21   -1    0    0  501  502  0.00000000000E+00  0.00000000000E+00  0.38671686904E+03  0.38671686904E+03  0.00000000000E+00 0. -1.
         21   -1    0    0  502  503 -0.00000000000E+00 -0.00000000000E+00 -0.27399516187E+03  0.27399516187E+03  0.00000000000E+00 0.  1.
         -6    2    1    2    0  503 -0.42378142040E+02 -0.30897593095E+02 -0.21905800574E+03  0.28346451213E+03  0.17209053308E+03 0.  0.
        -24    2    3    3    0    0 -0.82346782658E+02  0.18102421954E+02 -0.15386462039E+03  0.19252078667E+03  0.79254284401E+02 0.  0.
          6    2    1    2  501    0  0.42378142040E+02  0.30897593095E+02  0.33177971291E+03  0.37724751878E+03  0.17171879439E+03 0.  0.
         24    2    5    5    0    0  0.20889280331E+02 -0.44892998737E+02  0.22331577749E+03  0.24311139287E+03  0.82349678195E+02 0.  0.
          5    1    5    5  501    0  0.21488861709E+02  0.75790591831E+02  0.10846393542E+03  0.13413612591E+03  0.47000000000E+01 0. -1.
        -13    1    6    6    0    0  0.10700876036E+02 -0.29158782437E+02  0.15979975593E+02  0.34929972246E+02  0.00000000000E+00 0.  1.
         14    1    6    6    0    0  0.10188404295E+02 -0.15734216300E+02  0.20733580190E+03  0.20818142063E+03  0.00000000000E+00 0. -1.
         -5    1    3    3    0  503  0.39968640618E+02 -0.49000015048E+02 -0.65193385354E+02  0.90943725465E+02  0.47000000000E+01 0.  1.
         11    1    4    4    0    0 -0.90455416452E+01  0.20856298103E+01 -0.99335363374E+02  0.99768161715E+02  0.00000000000E+00 0. -1.
        -12    1    4    4    0    0 -0.73301241013E+02  0.16016792144E+02 -0.54529257017E+02  0.92752624951E+02  0.00000000000E+00 0.  1.
</event>
<event>
12    1  0.1615162E-001  0.2224768E+03  0.7818608E-02  0.1132553E+00
         21   -1    0    0  501  502  0.00000000000E+00  0.00000000000E+00  0.18418890817E+03  0.18418890817E+03  0.00000000000E+00 0.  1.
         21   -1    0    0  502  503 -0.00000000000E+00 -0.00000000000E+00 -0.70255857401E+03  0.70255857401E+03  0.00000000000E+00 0.  1.
         -6    2    1    2    0  503 -0.13964502310E+03  0.17581004435E+02 -0.60830345444E+03  0.64678083134E+03  0.16876767142E+03 0.  0.
        -24    2    3    3    0    0 -0.95666748088E+02 -0.53823028899E+02 -0.38654897770E+03  0.40965267485E+03  0.79662768709E+02 0.  0.
          6    2    1    2  501    0  0.13964502310E+03 -0.17581004435E+02  0.89933788595E+02  0.23996665083E+03  0.17229649732E+03 0.  0.
         24    2    5    5    0    0  0.36860890034E+02 -0.39150367656E+02  0.97297374732E+02  0.13458103587E+03  0.75853804025E+02 0.  0.
          5    1    5    5  501    0  0.10278413307E+03  0.21569363221E+02 -0.73635861371E+01  0.10538561496E+03  0.47000000000E+01 0. -1.
        -11    1    6    6    0    0  0.40996398664E+02 -0.88794207748E+01  0.95111641168E+02  0.10395082060E+03  0.00000000000E+00 0.  1.
         12    1    6    6    0    0 -0.41355086301E+01 -0.30270946881E+02  0.21857335639E+01  0.30630215277E+02  0.00000000000E+00 0. -1.
         -5    1    3    3    0  503 -0.43978275013E+02  0.71404033334E+02 -0.22175447673E+03  0.23712815649E+03  0.47000000000E+01 0.  1.
         13    1    4    4    0    0  0.36074536774E+01 -0.13900477640E+02 -0.14193713400E+03  0.14266179239E+03  0.00000000000E+00 0. -1.
        -14    1    4    4    0    0 -0.99274201766E+02 -0.39922551259E+02 -0.24461184371E+03  0.26699088246E+03  0.00000000000E+00 0.  1.
</event>
<event>
12    1  0.1615162E-001  0.2077840E+03  0.7818608E-02  0.1143389E+00
         21   -1    0    0  503  502  0.00000000000E+00  0.00000000000E+00  0.91446427807E+03  0.91446427807E+03  0.00000000000E+00 0. -1.
         21   -1    0    0  501  503 -0.00000000000E+00 -0.00000000000E+00 -0.77316315996E+02  0.77316315996E+02  0.00000000000E+00 0. -1.
          6    2    1    2  501    0  0.11134006167E+03  0.33225574894E+02  0.10899013794E+03  0.23463384945E+03  0.17226039876E+03 0.  0.
         24    2    3    3    0    0  0.14297820282E+03  0.49033534634E+02  0.82005284307E+02  0.18989979205E+03  0.80560600594E+02 0.  0.
         -6    2    1    2    0  502 -0.11134006167E+03 -0.33225574894E+02  0.72815782413E+03  0.75714674461E+03  0.17192099310E+03 0.  0.
        -24    2    5    5    0    0 -0.40459749065E+02 -0.42545898169E+02  0.61684115337E+03  0.62476706969E+03  0.79960853771E+02 0.  0.
          5    1    3    3  501    0 -0.31638141140E+02 -0.15807959740E+02  0.26984853629E+02  0.44734057399E+02  0.47000000000E+01 0. -1.
        -13    1    4    4    0    0  0.23936087921E+02  0.43921723298E+02  0.11068682963E+02  0.51230555580E+02  0.00000000000E+00 0.  1.
         14    1    4    4    0    0  0.11904211489E+03  0.51118113357E+01  0.70936601344E+02  0.13866923647E+03  0.00000000000E+00 0. -1.
         -5    1    5    5    0  502 -0.70880312610E+02  0.93203232759E+01  0.11131667076E+03  0.13237967492E+03  0.47000000000E+01 0.  1.
         13    1    6    6    0    0 -0.36529894676E+02 -0.65974256929E+02  0.46207925487E+03  0.46819256035E+03  0.00000000000E+00 0. -1.
        -14    1    6    6    0    0 -0.39298543888E+01  0.23428358759E+02  0.15476189850E+03  0.15657450934E+03  0.00000000000E+00 0.  1.
</event>
<event>
12    1  0.1615162E-001  0.2802961E+03  0.7818608E-02  0.1095889E+00
         21   -1    0    0  503  502  0.00000000000E+00  0.00000000000E+00  0.17942779312E+03  0.17942779312E+03  0.00000000000E+00 0.  1.
         21   -1    0    0  501  503 -0.00000000000E+00 -0.00000000000E+00 -0.50600390745E+03  0.50600390745E+03  0.00000000000E+00 0. -1.
          6    2    1    2  501    0 -0.19703885781E+03  0.94107136694E+02 -0.29344611023E+03  0.40580357378E+03  0.17574258509E+03 0.  0.
         24    2    3    3    0    0 -0.17182436602E+03  0.10274141351E+02 -0.16612731740E+03  0.25122056464E+03  0.76709293921E+02 0.  0.
         -6    2    1    2    0  502  0.19703885781E+03 -0.94107136694E+02 -0.33130004106E+02  0.27962812679E+03  0.17150459894E+03 0.  0.
        -24    2    5    5    0    0  0.20768553339E+03 -0.65006259489E+02  0.47422348150E+01  0.23046910691E+03  0.75725992226E+02 0.  0.
          5    1    3    3  501    0 -0.25214491792E+02  0.83832995343E+02 -0.12731879284E+03  0.15458300914E+03  0.47000000000E+01 0. -1.
        -11    1    4    4    0    0 -0.62177463476E+02  0.32497310334E+02 -0.33610147457E+02  0.77793021251E+02  0.00000000000E+00 0.  1.
         12    1    4    4    0    0 -0.10964690254E+03 -0.22223168983E+02 -0.13251716994E+03  0.17342754339E+03  0.00000000000E+00 0. -1.
         -5    1    5    5    0  502 -0.10646675575E+02 -0.29100877204E+02 -0.37872238921E+02  0.49159019882E+02  0.47000000000E+01 0.  1.
         13    1    6    6    0    0  0.74574364177E+02 -0.46351000822E+02 -0.27935228721E+02  0.92141890980E+02  0.00000000000E+00 0. -1.
        -14    1    6    6    0    0  0.13311116921E+03 -0.18655258667E+02  0.32677463536E+02  0.13832721593E+03  0.00000000000E+00 0.  1.
</event>
<event>
12    1  0.1615162E-001  0.2674238E+03  0.7818608E-02  0.1102925E+00
         21   -1    0    0  503  502  0.00000000000E+00  0.00000000000E+00  0.21875318205E+03  0.21875318205E+03  0.00000000000E+00 0.  1.
         21   -1    0    0  501  503 -0.00000000000E+00 -0.00000000000E+00 -0.61294899269E+03  0.61294899269E+03  0.00000000000E+00 0.  1.
          6    2    1    2  501    0 -0.18262305422E+03  0.92864761137E+02 -0.48206213879E+03  0.55127073149E+03  0.17187341255E+03 0.  0.
         24    2    3    3    0    0 -0.20854728046E+03  0.90741749980E+02 -0.43984554425E+03  0.50146206219E+03  0.79208987152E+02 0.  0.
         -6    2    1    2    0  502  0.18262305422E+03 -0.92864761137E+02  0.87866328153E+02  0.28043144324E+03  0.17013600131E+03 0.  0.
        -24    2    5    5    0    0  0.27527050371E+02 -0.21469887323E+01  0.37103048980E+02  0.93660232525E+02  0.81444796336E+02 0.  0.
          5    1    3    3  501    0  0.25924226234E+02  0.21230111562E+01 -0.42216594543E+02  0.49808669296E+02  0.47000000000E+01 0. -1.
        -11    1    4    4    0    0 -0.16181898382E+03  0.75822393154E+02 -0.26320510177E+03  0.31813730436E+03  0.00000000000E+00 0.  1.
         12    1    4    4    0    0 -0.46728296642E+02  0.14919356826E+02 -0.17664044248E+03  0.18332475784E+03  0.00000000000E+00 0. -1.
         -5    1    5    5    0  502  0.15509600385E+03 -0.90717772404E+02  0.50763279173E+02  0.18677121072E+03  0.47000000000E+01 0.  1.
         13    1    6    6    0    0 -0.76128176909E+01  0.25212462073E+02 -0.10608967575E+02  0.28393193374E+02  0.00000000000E+00 0. -1.
        -14    1    6    6    0    0  0.35139868061E+02 -0.27359450805E+02  0.47712016555E+02  0.65267039151E+02  0.00000000000E+00 0.  1.
</event>
<event>
12    1  0.1615162E-001  0.1964588E+03  0.7818608E-02  0.1152795E+00
         21   -1    0    0  503  502  0.00000000000E+00  0.00000000000E+00  0.36416386518E+03  0.36416386518E+03  0.00000000000E+00 0. -1.
         21   -1    0    0  501  503 -0.00000000000E+00 -0.00000000000E+00 -0.19509275230E+03  0.19509275230E+03  0.00000000000E+00 0.  1.
          6    2    1    2  501    0 -0.86647628896E+02  0.35453364765E+02 -0.10455066668E+03  0.22241106680E+03  0.17254300353E+03 0.  0.
         24    2    3    3    0    0 -0.97087049571E+02  0.60644475934E+02 -0.12553764234E+03  0.18768187543E+03  0.79756749354E+02 0.  0.
         -6    2    1    2    0  502  0.86647628896E+02 -0.35453364765E+02  0.27362177956E+03  0.33684555068E+03  0.17271738215E+03 0.  0.
        -24    2    5    5    0    0  0.51373381824E+02  0.42485011727E+02  0.19348956976E+03  0.21953432324E+03  0.79453790924E+02 0.  0.
          5    1    3    3  501    0  0.10439420676E+02 -0.25191111169E+02  0.20986975655E+02  0.34729191369E+02  0.47000000000E+01 0. -1.
        -13    1    4    4    0    0 -0.14966592897E+02 -0.19603972118E+02 -0.23761190501E+02  0.34247756128E+02  0.00000000000E+00 0.  1.
         14    1    4    4    0    0 -0.82120456675E+02  0.80248448053E+02 -0.10177645183E+03  0.15343411931E+03  0.00000000000E+00 0. -1.
         -5    1    5    5    0  502  0.35274247072E+02 -0.77938376492E+02  0.80132209800E+02  0.11731122744E+03  0.47000000000E+01 0.  1.
         11    1    6    6    0    0 -0.14630336087E+02 -0.78242990403E+01  0.60847396131E+02  0.63068787886E+02  0.00000000000E+00 0. -1.
        -12    1    6    6    0    0  0.66003717911E+02  0.50309310767E+02  0.13264217363E+03  0.15646553535E+03  0.00000000000E+00 0.  1.
</event>
<event>
12    1  0.1615162E-001  0.2367580E+03  0.7818608E-02  0.1122048E+00
         21   -1    0    0  503  502  0.00000000000E+00  0.00000000000E+00  0.38534978115E+03  0.38534978115E+03  0.00000000000E+00 0.  1.
         21   -1    0    0  501  503 -0.00000000000E+00 -0.00000000000E+00 -0.16414144654E+03  0.16414144654E+03  0.00000000000E+00 0.  1.
          6    2    1    2  501    0 -0.14750100461E+03  0.69074813553E+02  0.17334705419E+02  0.23739178823E+03  0.17183274681E+03 0.  0.
         24    2    3    3    0    0 -0.14120511235E+03 -0.19705313323E+01 -0.76763070212E+01  0.16166385393E+03  0.78316723836E+02 0.  0.
         -6    2    1    2    0  502  0.14750100461E+03 -0.69074813553E+02  0.20387362920E+03  0.31209943946E+03  0.17121252057E+03 0.  0.
        -24    2    5    5    0    0  0.85878774116E+02  0.23155556617E+02  0.71364437127E+02  0.13922805242E+03  0.79876304675E+02 0.  0.
          5    1    3    3  501    0 -0.62958922660E+01  0.71045344886E+02  0.25011012440E+02  0.75727934295E+02  0.47000000000E+01 0. -1.
        -11    1    4    4    0    0 -0.32941317100E+01 -0.14830311256E+02  0.14955302498E+02  0.21317844836E+02  0.00000000000E+00 0.  1.
         12    1    4    4    0    0 -0.13791098064E+03  0.12859779923E+02 -0.22631609519E+02  0.14034600910E+03  0.00000000000E+00 0. -1.
         -5    1    5    5    0  502  0.61622230497E+02 -0.92230370171E+02  0.13250919207E+03  0.17287138704E+03  0.47000000000E+01 0.  1.
         11    1    6    6    0    0 -0.10824233069E+02 -0.65947389721E+01 -0.37490433846E+01  0.13217788391E+02  0.00000000000E+00 0. -1.
        -12    1    6    6    0    0  0.96703007185E+02  0.29750295589E+02  0.75113480512E+02  0.12601026403E+03  0.00000000000E+00 0.  1.
</event>
<event>
12    1  0.1615162E-001  0.2004582E+03  0.7818608E-02  0.1149689E+00
         21   -1    0    0  501  502  0.00000000000E+00  0.00000000000E+00  0.38953185597E+02  0.38953185597E+02  0.00000000000E+00 0. -1.
         21   -1    0    0  502  503 -0.00000000000E+00 -0.00000000000E+00 -0.10897240573E+04  0.10897240573E+04  0.00000000000E+00 0. -1.
         -6    2    1    2    0  503 -0.10166867286E+03  0.42963714450E+00 -0.66655749117E+03  0.69604769475E+03  0.17276226642E+03 0.  0.
        -24    2    3    3    0    0 -0.52769900899E+02  0.37160252800E+02 -0.58346415946E+03  0.59276739750E+03  0.82323844223E+02 0.  0.
          6    2    1    2  501    0  0.10166867286E+03 -0.42963714450E+00 -0.38421338052E+03  0.43262954814E+03  0.17091430754E+03 0.  0.
         24    2    5    5    0    0  0.96654909186E+02 -0.27259681469E+02 -0.15086501648E+03  0.19764329725E+03  0.78850225414E+02 0.  0.
          5    1    5    5  501    0  0.50137636754E+01  0.26830044325E+02 -0.23334836404E+03  0.23498625089E+03  0.47000000000E+01 0. -1.
        -13    1    6    6    0    0  0.36320478433E+02  0.25596418551E+02 -0.34234917796E+02  0.56092632250E+02  0.00000000000E+00 0.  1.
         14    1    6    6    0    0  0.60334430753E+02 -0.52856100020E+02 -0.11663009868E+03  0.14155066500E+03  0.00000000000E+00 0. -1.
         -5    1    3    3    0  503 -0.48898771963E+02 -0.36730615655E+02 -0.83093331709E+02  0.10328029725E+03  0.47000000000E+01 0.  1.
         13    1    4    4    0    0 -0.11863452153E+02  0.35234525675E+02 -0.86918841227E+02  0.94536227219E+02  0.00000000000E+00 0. -1.
        -14    1    4    4    0    0 -0.40906448745E+02  0.19257271249E+01 -0.49654531824E+03  0.49823117028E+03  0.00000000000E+00 0.  1.
</event>
<event>
12    1  0.1615162E-001  0.2252701E+03  0.7818608E-02  0.1132277E+00
         21   -1    0    0  501  502  0.00000000000E+00  0.00000000000E+00  0.34700046822E+03  0.34700046822E+03  0.00000000000E+00 0. -1.
         21   -1    0    0  502  503 -0.00000000000E+00 -0.00000000000E+00 -0.13942061024E+03  0.13942061024E+03  0.00000000000E+00 0. -1.
         -6    2    1    2    0  503 -0.53011228519E+02 -0.11526918436E+03  0.80761266169E+02  0.22790689016E+03  0.17123665862E+03 0.  0.
        -24    2    3    3    0    0 -0.19757651608E+02 -0.20204048516E+02 -0.16592043527E+02  0.87753626410E+02  0.81405372465E+02 0.  0.
          6    2    1    2  501    0  0.53011228519E+02  0.11526918436E+03  0.12681859182E+03  0.25851418830E+03  0.18614364106E+03 0.  0.
         24    2    5    5    0    0 -0.35630470763E+02  0.13975934190E+02  0.14512078612E+02  0.83150234502E+02  0.72377509551E+02 0.  0.
          5    1    5    5  501    0  0.88641699282E+02  0.10129325017E+03  0.11230651321E+03  0.17536395380E+03  0.47000000000E+01 0. -1.
        -11    1    6    6    0    0 -0.27036510196E+02  0.40985858456E+00  0.42797596445E+02  0.50623859287E+02  0.00000000000E+00 0.  1.
         12    1    6    6    0    0 -0.85939605668E+01  0.13566075605E+02 -0.28285517833E+02  0.32526375215E+02  0.00000000000E+00 0. -1.
         -5    1    3    3    0  503 -0.33253576911E+02 -0.95065135847E+02  0.97353309696E+02  0.14015326375E+03  0.47000000000E+01 0.  1.
         11    1    4    4    0    0 -0.49867304819E+02 -0.12368536087E+02  0.21659099593E+01  0.51423923817E+02  0.00000000000E+00 0. -1.
        -12    1    4    4    0    0  0.30109653210E+02 -0.78355124293E+01 -0.18757953487E+02  0.36329702593E+02  0.00000000000E+00 0.  1.
</event>
<event>
12    1  0.1615162E-001  0.1879344E+03  0.7818608E-02  0.1162060E+00
         21   -1    0    0  501  502  0.00000000000E+00  0.00000000000E+00  0.13841390658E+03  0.13841390658E+03  0.00000000000E+00 0.  1.
         21   -1    0    0  502  503 -0.00000000000E+00 -0.00000000000E+00 -0.64743213976E+03  0.64743213976E+03  0.00000000000E+00 0.  1.
         -6    2    1    2    0  503 -0.64359052948E+02  0.14349937813E+02 -0.56609505667E+03  0.59647544519E+03  0.17598674699E+03 0.  0.
        -24    2    3    3    0    0  0.17419616671E+02  0.22305771290E+02 -0.14258619710E+03  0.16504423373E+03  0.78152319257E+02 0.  0.
          6    2    1    2  501    0  0.64359052948E+02 -0.14349937813E+02  0.57076823483E+02  0.18937060115E+03  0.16809358223E+03 0.  0.
         24    2    5    5    0    0  0.12496018576E+02 -0.59435738903E+02  0.67849752789E+02  0.11965224058E+03  0.77616442737E+02 0.  0.
          5    1    5    5  501    0  0.51863034372E+02  0.45085801090E+02 -0.10772929307E+02  0.69718360566E+02  0.47000000000E+01 0. -1.
        -13    1    6    6    0    0  0.29426583247E+02 -0.27625733741E+02 -0.26790911906E+01  0.40450988813E+02  0.00000000000E+00 0.  1.
         14    1    6    6    0    0 -0.16930564671E+02 -0.31810005162E+02  0.70528843980E+02  0.79201251768E+02  0.00000000000E+00 0. -1.
         -5    1    3    3    0  503 -0.81778669619E+02 -0.79558334768E+01 -0.42350885957E+03  0.43143121146E+03  0.47000000000E+01 0.  1.
         11    1    4    4    0    0 -0.66045795861E+01 -0.26747999685E+02 -0.60082974156E+02  0.66098712106E+02  0.00000000000E+00 0. -1.
        -12    1    4    4    0    0  0.24024196257E+02  0.49053770975E+02 -0.82503222947E+02  0.98945521624E+02  0.00000000000E+00 0.  1.
</event>
<event>
12    1  0.1615162E-001  0.3214276E+03  0.7818608E-02  0.1075695E+00
         21   -1    0    0  503  502  0.00000000000E+00  0.00000000000E+00  0.76337742958E+03  0.76337742958E+03  0.00000000000E+00 0.  1.
         21   -1    0    0  501  503 -0.00000000000E+00 -0.00000000000E+00 -0.16484761906E+03  0.16484761906E+03  0.00000000000E+00 0. -1.
          6    2    1    2  501    0 -0.22010657191E+03  0.15233486017E+03  0.96931411852E+02  0.33572516639E+03  0.17794065338E+03 0.  0.
         24    2    3    3    0    0 -0.12286331489E+03  0.16257941094E+03  0.93154285146E+02  0.23775803649E+03  0.79521720704E+02 0.  0.
         -6    2    1    2    0  502  0.22010657191E+03 -0.15233486017E+03  0.50159839867E+03  0.59249988225E+03  0.16674034996E+03 0.  0.
        -24    2    5    5    0    0  0.96923238590E+02 -0.98751853254E+01  0.22639195441E+03  0.25898890863E+03  0.79563209522E+02 0.  0.
          5    1    3    3  501    0 -0.97243257015E+02 -0.10244550773E+02  0.37771267054E+01  0.97967129903E+02  0.47000000000E+01 0. -1.
        -11    1    4    4    0    0 -0.38177232801E+02  0.32859741822E+01  0.17699676212E+02  0.42208734507E+02  0.00000000000E+00 0.  1.
         12    1    4    4    0    0 -0.84686082092E+02  0.15929343676E+03  0.75454608934E+02  0.19554930198E+03  0.00000000000E+00 0. -1.
         -5    1    5    5    0  502  0.12318333332E+03 -0.14245967485E+03  0.27520644426E+03  0.33351097362E+03  0.47000000000E+01 0.  1.
         11    1    6    6    0    0 -0.13468336414E+02 -0.31839084373E+00  0.13989517255E+02  0.19421741722E+02  0.00000000000E+00 0. -1.
        -12    1    6    6    0    0  0.11039157500E+03 -0.95567944817E+01  0.21240243715E+03  0.23956716691E+03  0.00000000000E+00 0.  1.
</event>
<event>
12    1  0.1615162E-001  0.2654014E+03  0.7818608E-02  0.1104200E+00
         21   -1    0    0  503  502  0.00000000000E+00  0.00000000000E+00  0.37287762723E+03  0.37287762723E+03  0.00000000000E+00 0.  1.
         21   -1    0    0  501  503 -0.00000000000E+00 -0.00000000000E+00 -0.18826108310E+03  0.18826108310E+03  0.00000000000E+00 0. -1.
          6    2    1    2  501    0  0.18008144819E+03 -0.89054154976E+02  0.76625287975E+02  0.27624143265E+03  0.17342988166E+03 0.  0.
         24    2    3    3    0    0  0.10166263714E+03 -0.89281622134E+02 -0.13507545296E+02  0.15667731051E+03  0.77838460985E+02 0.  0.
         -6    2    1    2    0  502 -0.18008144819E+03  0.89054154976E+02  0.10799125615E+03  0.28489727769E+03  0.17071724262E+03 0.  0.
        -24    2    5    5    0    0 -0.12504151877E+03  0.17205339927E-02  0.23328152842E+02  0.15017660008E+03  0.79833746494E+02 0.  0.
          5    1    3    3  501    0  0.78418811050E+02  0.22746715832E+00  0.90132833271E+02  0.11956412213E+03  0.47000000000E+01 0. -1.
        -11    1    4    4    0    0  0.52534838044E+02 -0.40241944362E+02  0.32170308071E+02  0.73581601068E+02  0.00000000000E+00 0.  1.
         12    1    4    4    0    0  0.49127799097E+02 -0.49039677772E+02 -0.45677853367E+02  0.83095709446E+02  0.00000000000E+00 0. -1.
         -5    1    5    5    0  502 -0.55039929423E+02  0.89052434442E+02  0.84663103312E+02  0.13472067760E+03  0.47000000000E+01 0.  1.
         11    1    6    6    0    0 -0.18347872766E+02  0.31457041499E+02 -0.49484806611E+00  0.36420252189E+02  0.00000000000E+00 0. -1.
        -12    1    6    6    0    0 -0.10669364600E+03 -0.31455320965E+02  0.23823000909E+02  0.11375634790E+03  0.00000000000E+00 0.  1.
</event>
<event>
12    1  0.1615162E-001  0.3002757E+03  0.7818608E-02  0.1085260E+00
         21   -1    0    0  503  502  0.00000000000E+00  0.00000000000E+00  0.66886229418E+03  0.66886229418E+03  0.00000000000E+00 0. -1.
         21   -1    0    0  501  503 -0.00000000000E+00 -0.00000000000E+00 -0.31588670444E+03  0.31588670444E+03  0.00000000000E+00 0.  1.
          6    2    1    2  501    0  0.24222036945E+03  0.37891924678E+02 -0.19703980268E+03  0.35810522102E+03  0.17119626206E+03 0.  0.
         24    2    3    3    0    0  0.22949979633E+03  0.73059656857E+02 -0.19563243233E+03  0.32038714765E+03  0.79799785872E+02 0.  0.
         -6    2    1    2    0  502 -0.24222036945E+03 -0.37891924678E+02  0.55001539242E+03  0.62664377760E+03  0.17337527729E+03 0.  0.
        -24    2    5    5    0    0 -0.11300170274E+03  0.46164837951E+02  0.28059817915E+03  0.31620742667E+03  0.79694550989E+02 0.  0.
          5    1    3    3  501    0  0.12720573122E+02 -0.35167732180E+02 -0.14073703569E+01  0.37718073367E+02  0.47000000000E+01 0. -1.
        -11    1    4    4    0    0  0.13609513488E+03  0.47066530725E+01 -0.86630711033E+02  0.16139677325E+03  0.00000000000E+00 0.  1.
         12    1    4    4    0    0  0.93404661451E+02  0.68353003785E+02 -0.10900172129E+03  0.15899037440E+03  0.00000000000E+00 0. -1.
         -5    1    5    5    0  502 -0.12921866671E+03 -0.84056762629E+02  0.26941721327E+03  0.31043635093E+03  0.47000000000E+01 0.  1.
         11    1    6    6    0    0 -0.39130972184E+02  0.22140008129E+02  0.30514437088E+02  0.54337315123E+02  0.00000000000E+00 0. -1.
        -12    1    6    6    0    0 -0.73870730556E+02  0.24024829823E+02  0.25008374206E+03  0.26187011155E+03  0.00000000000E+00 0.  1.
</event>
<event>
12    1  0.1615162E-001  0.2008228E+03  0.7818608E-02  0.1149269E+00
         21   -1    0    0  503  502  0.00000000000E+00  0.00000000000E+00  0.14793482077E+03  0.14793482077E+03  0.00000000000E+00 0. -1.
         21   -1    0    0  501  503 -0.00000000000E+00 -0.00000000000E+00 -0.61853924522E+03  0.61853924522E+03  0.00000000000E+00 0.  1.
          6    2    1    2  501    0  0.69823201034E+02  0.76246712673E+02 -0.52221974109E+03  0.55912423102E+03  0.17093158611E+03 0.  0.
         24    2    3    3    0    0  0.72020017969E+02  0.54351681550E+02 -0.52281946426E+03  0.53661494270E+03  0.80463757333E+02 0.  0.
         -6    2    1    2    0  502 -0.69823201034E+02 -0.76246712673E+02  0.51615316636E+02  0.20734983497E+03  0.17216553823E+03 0.  0.
        -24    2    5    5    0    0 -0.80599806052E+02 -0.10270350155E+03  0.74164071815E+02  0.17065333304E+03  0.81104331353E+02 0.  0.
          5    1    3    3  501    0 -0.21968169345E+01  0.21895031123E+02  0.59972317281E+00  0.22509288314E+02  0.47000000000E+01 0. -1.
        -11    1    4    4    0    0  0.54075774578E+02  0.18529039392E+02 -0.13328656025E+03  0.14502696936E+03  0.00000000000E+00 0.  1.
         12    1    4    4    0    0  0.17944243391E+02  0.35822642158E+02 -0.38953290401E+03  0.39158797334E+03  0.00000000000E+00 0. -1.
         -5    1    5    5    0  502  0.10776605018E+02  0.26456788880E+02 -0.22548755178E+02  0.36696501926E+02  0.47000000000E+01 0.  1.
         11    1    6    6    0    0  0.67908904564E+01  0.57842774444E+01  0.18683733806E+02  0.20704008493E+02  0.00000000000E+00 0. -1.
        -12    1    6    6    0    0 -0.87390696508E+02 -0.10848777900E+03  0.55480338009E+02  0.14994932455E+03  0.00000000000E+00 0.  1.
</event>
<event>
12    1  0.1615162E-001  0.2878609E+03  0.7818608E-02  0.1091582E+00
         21   -1    0    0  503  502  0.00000000000E+00  0.00000000000E+00  0.36066238736E+03  0.36066238736E+03  0.00000000000E+00 0.  1.
         21   -1    0    0  501  503 -0.00000000000E+00 -0.00000000000E+00 -0.88035981126E+03  0.88035981126E+03  0.00000000000E+00 0. -1.
          6    2    1    2  501    0 -0.20582338545E+03 -0.10435871372E+03 -0.79345480085E+03  0.84377290952E+03  0.17066984128E+03 0.  0.
         24    2    3    3    0    0 -0.13149154150E+03 -0.32178305906E+02 -0.63796683082E+03  0.65686696226E+03  0.78403188889E+02 0.  0.
         -6    2    1    2    0  502  0.20582338545E+03  0.10435871372E+03  0.27375737696E+03  0.39724928910E+03  0.17207524262E+03 0.  0.
        -24    2    5    5    0    0  0.18208462931E+03  0.86910212664E+02  0.29038885245E+03  0.36309266881E+03  0.82476682918E+02 0.  0.
          5    1    3    3  501    0 -0.74331843943E+02 -0.72180407814E+02 -0.15548797003E+03  0.18690594726E+03  0.47000000000E+01 0. -1.
        -11    1    4    4    0    0 -0.11373993367E+03  0.52251961694E+01 -0.43001158256E+03  0.44483034555E+03  0.00000000000E+00 0.  1.
         12    1    4    4    0    0 -0.17751607833E+02 -0.37403502075E+02 -0.20795524826E+03  0.21203661671E+03  0.00000000000E+00 0. -1.
         -5    1    5    5    0  502  0.23738756141E+02  0.17448501057E+02 -0.16631475489E+02  0.34156620284E+02  0.47000000000E+01 0.  1.
         11    1    6    6    0    0  0.55576663750E+02  0.47516857213E+02  0.16584339487E+03  0.18124747969E+03  0.00000000000E+00 0. -1.
        -12    1    6    6    0    0  0.12650796556E+03  0.39393355450E+02  0.12454545758E+03  0.18184518912E+03  0.00000000000E+00 0.  1.
</event>
<event>
12    1  0.1615162E-001  0.1778452E+03  0.7818608E-02  0.1170246E+00
         21   -1    0    0  503  502  0.00000000000E+00  0.00000000000E+00  0.31377740730E+03  0.31377740730E+03  0.00000000000E+00 0. -1.
         21   -1    0    0  501  503 -0.00000000000E+00 -0.00000000000E+00 -0.12447650253E+03  0.12447650253E+03  0.00000000000E+00 0. -1.
          6    2    1    2  501    0 -0.33420101338E+02  0.27498742626E+02 -0.27749542615E+01  0.17648675579E+03  0.17107539443E+03 0.  0.
         24    2    3    3    0    0 -0.40435319350E+02 -0.42017742625E+02  0.25853504936E+02  0.10083337727E+03  0.78092640546E+02 0.  0.
         -6    2    1    2    0  502  0.33420101338E+02 -0.27498742626E+02  0.19207585903E+03  0.26176715404E+03  0.17249876316E+03 0.  0.
        -24    2    5    5    0    0 -0.40949424598E+02 -0.26016156796E+02  0.50801981797E+02  0.10203793681E+03  0.74008130660E+02 0.  0.
          5    1    3    3  501    0  0.70152180124E+01  0.69516485252E+02 -0.28628459198E+02  0.75653378520E+02  0.47000000000E+01 0. -1.
        -13    1    4    4    0    0 -0.42020153354E+02 -0.52071321224E+02  0.43961753619E+02  0.80060924071E+02  0.00000000000E+00 0.  1.
         14    1    4    4    0    0  0.15848340037E+01  0.10053578598E+02 -0.18108248682E+02  0.20772453196E+02  0.00000000000E+00 0. -1.
         -5    1    5    5    0  502  0.74369525936E+02 -0.14825858307E+01  0.14127387724E+03  0.15972921723E+03  0.47000000000E+01 0.  1.
         11    1    6    6    0    0 -0.52289435126E+02  0.27871246358E+01  0.47864989951E+02  0.70943712566E+02  0.00000000000E+00 0. -1.
        -12    1    6    6    0    0  0.11340010528E+02 -0.28803281431E+02  0.29369918458E+01  0.31094224240E+02  0.00000000000E+00 0.  1.
</event>
<event>
12    1  0.1615162E-001  0.1959480E+03  0.7818608E-02  0.1153818E+00
         21   -1    0    0  503  502  0.00000000000E+00  0.00000000000E+00  0.30481355375E+03  0.30481355375E+03  0.00000000000E+00 0. -1.
         21   -1    0    0  501  503 -0.00000000000E+00 -0.00000000000E+00 -0.13728468391E+03  0.13728468391E+03  0.00000000000E+00 0. -1.
          6    2    1    2  501    0  0.90131038601E+02 -0.25985986053E+02  0.15155995590E+03  0.24550063683E+03  0.16882318223E+03 0.  0.
         24    2    3    3    0    0  0.54246204075E+01 -0.57461964138E+02  0.50386831849E+02  0.10976558052E+03  0.78602455518E+02 0.  0.
         -6    2    1    2    0  502 -0.90131038601E+02  0.25985986053E+02  0.15968913937E+02  0.19659760084E+03  0.17203701594E+03 0.  0.
        -24    2    5    5    0    0 -0.22780772107E+02  0.71428509722E+02  0.30863551039E+02  0.11386295532E+03  0.79945095113E+02 0.  0.
          5    1    3    3  501    0  0.84706418194E+02  0.31475978085E+02  0.10117312406E+03  0.13573505631E+03  0.47000000000E+01 0. -1.
        -13    1    4    4    0    0  0.30702709093E+01  0.82701626502E+01  0.42632670833E+02  0.43535810272E+02  0.00000000000E+00 0.  1.
         14    1    4    4    0    0  0.23543494982E+01 -0.65732126789E+02  0.77541610157E+01  0.66229770245E+02  0.00000000000E+00 0. -1.
         -5    1    5    5    0  502 -0.67350266494E+02 -0.45442523669E+02 -0.14894637102E+02  0.82734645516E+02  0.47000000000E+01 0.  1.
         11    1    6    6    0    0 -0.16275133017E+02  0.60941923480E+02  0.56963868375E+02  0.84992236659E+02  0.00000000000E+00 0. -1.
        -12    1    6    6    0    0 -0.65056390899E+01  0.10486586243E+02 -0.26100317335E+02  0.28870718661E+02  0.00000000000E+00 0.  1.
</event>
<event>
12    1  0.1615162E-001  0.1945682E+03  0.7818608E-02  0.1156083E+00
         21   -1    0    0  501  502  0.00000000000E+00  0.00000000000E+00  0.70215595162E+02  0.70215595162E+02  0.00000000000E+00 0. -1.
         21   -1    0    0  502  503 -0.00000000000E+00 -0.00000000000E+00 -0.56641036917E+03  0.56641036917E+03  0.00000000000E+00 0. -1.
         -6    2    1    2    0  503  0.14151106342E+02 -0.88439315918E+02 -0.15108093523E+03  0.24044374584E+03  0.16421321357E+03 0.  0.
        -24    2    3    3    0    0 -0.18134807564E+02 -0.32123619345E+02 -0.39554652456E+02  0.11131574861E+03  0.97292482717E+02 0.  0.
          6    2    1    2  501    0 -0.14151106342E+02  0.88439315918E+02 -0.34511383878E+03  0.39618221850E+03  0.17272817410E+03 0.  0.
         24    2    5    5    0    0 -0.65916360478E+02  0.18355913353E+02 -0.15165124724E+03  0.18395312253E+03  0.78477667941E+02 0.  0.
          5    1    5    5  501    0  0.51765254135E+02  0.70083402565E+02 -0.19346259154E+03  0.21222909597E+03  0.47000000000E+01 0. -1.
        -11    1    6    6    0    0 -0.13138139353E+02 -0.25837242897E+02 -0.19459193896E+02  0.34911803924E+02  0.00000000000E+00 0.  1.
         12    1    6    6    0    0 -0.52778221125E+02  0.44193156250E+02 -0.13219205334E+03  0.14904131860E+03  0.00000000000E+00 0. -1.
         -5    1    3    3    0  503  0.32285913906E+02 -0.56315696573E+02 -0.11152628277E+03  0.12912799722E+03  0.47000000000E+01 0.  1.
         11    1    4    4    0    0  0.22012823571E+02 -0.39633615948E+02 -0.51643781793E+02  0.68720216185E+02  0.00000000000E+00 0. -1.
        -12    1    4    4    0    0 -0.40147631135E+02  0.75099966031E+01  0.12089129337E+02  0.42595532428E+02  0.00000000000E+00 0.  1.
</event>
<event>
12    1  0.1615162E-001  0.2226231E+03  0.7818608E-02  0.1132123E+00
         21   -1    0    0  501  502  0.00000000000E+00  0.00000000000E+00  0.11358841746E+04  0.11358841746E+04  0.00000000000E+00 0.  1.
         21   -1    0    0  502  503 -0.00000000000E+00 -0.00000000000E+00 -0.67269232743E+02  0.67269232743E+02  0.00000000000E+00 0. -1.
         -6    2    1    2    0  503  0.12362268646E+03  0.68024816492E+02  0.17702574166E+03  0.28442776163E+03  0.17219493056E+03 0.  0.
        -24    2    3    3    0    0  0.15320895819E+03  0.80069385619E+02  0.15026419350E+03  0.24249102857E+03  0.79614569665E+02 0.  0.
          6    2    1    2  501    0 -0.12362268646E+03 -0.68024816492E+02  0.89158920023E+03  0.91872564574E+03  0.17092561513E+03 0.  0.
         24    2    5    5    0    0 -0.39406164743E+01 -0.77556293684E+02  0.52198440819E+03  0.53008128487E+03  0.49879244517E+02 0.  0.
          5    1    5    5  501    0 -0.11968206999E+03  0.95314771923E+01  0.36960479205E+03  0.38864436087E+03  0.47000000000E+01 0. -1.
        -13    1    6    6    0    0 -0.14159866997E+02 -0.19387589467E+02  0.27864785263E+03  0.27968018563E+03  0.00000000000E+00 0.  1.
         14    1    6    6    0    0  0.10219250522E+02 -0.58168704217E+02  0.24333655556E+03  0.25040109924E+03  0.00000000000E+00 0. -1.
         -5    1    3    3    0  503 -0.29586271732E+02 -0.12044569128E+02  0.26761548153E+02  0.41936733063E+02  0.47000000000E+01 0.  1.
         11    1    4    4    0    0  0.11342374944E+03  0.92644373199E+02  0.13116797367E+03  0.19660357102E+03  0.00000000000E+00 0. -1.
        -12    1    4    4    0    0  0.39785208751E+02 -0.12574987579E+02  0.19096219836E+02  0.45887457546E+02  0.00000000000E+00 0.  1.
</event>
<event>
12    1  0.1615162E-001  0.2074100E+03  0.7818608E-02  0.1143737E+00
         21   -1    0    0  501  502  0.00000000000E+00  0.00000000000E+00  0.34752578194E+02  0.34752578194E+02  0.00000000000E+00 0.  1.
         21   -1    0    0  502  503 -0.00000000000E+00 -0.00000000000E+00 -0.19039874887E+04  0.19039874887E+04  0.00000000000E+00 0.  1.
         -6    2    1    2    0  503  0.13639868781E+02  0.11335631083E+03 -0.15100462358E+04  0.15242239120E+04  0.17315657842E+03 0.  0.
        -24    2    3    3    0    0  0.46003687091E+02  0.10616847325E+02 -0.90428245825E+03  0.90893970271E+03  0.78838836823E+02 0.  0.
          6    2    1    2  501    0 -0.13639868781E+02 -0.11335631083E+03 -0.35918867472E+03  0.41451615483E+03  0.17254402148E+03 0.  0.
         24    2    5    5    0    0  0.27485590099E+02 -0.77997631437E+02 -0.33347032183E+03  0.35430765666E+03  0.86558488059E+02 0.  0.
          5    1    5    5  501    0 -0.41125458881E+02 -0.35358679396E+02 -0.25718352885E+02  0.60208498170E+02  0.47000000000E+01 0. -1.
        -13    1    6    6    0    0  0.22119650527E+02 -0.27821224714E+02 -0.29538066755E+02  0.46214682426E+02  0.00000000000E+00 0.  1.
         14    1    6    6    0    0  0.53659395720E+01 -0.50176406723E+02 -0.30393225508E+03  0.30809297424E+03  0.00000000000E+00 0. -1.
         -5    1    3    3    0  503 -0.32363818309E+02  0.10273946351E+03 -0.60576377752E+03  0.61528420933E+03  0.47000000000E+01 0.  1.
         13    1    4    4    0    0  0.87487883212E+01  0.42325513188E+01 -0.10310586061E+02  0.14169120392E+02  0.00000000000E+00 0. -1.
        -14    1    4    4    0    0  0.37254898769E+02  0.63842960063E+01 -0.89397187219E+03  0.89477058232E+03  0.00000000000E+00 0.  1.
</event>
<event>
12    1  0.1615162E-001  0.2393825E+03  0.7818608E-02  0.1120824E+00
         21   -1    0    0  501  502  0.00000000000E+00  0.00000000000E+00  0.14599719865E+04  0.14599719865E+04  0.00000000000E+00 0. -1.
         21   -1    0    0  502  503 -0.00000000000E+00 -0.00000000000E+00 -0.38655669775E+02  0.38655669775E+02  0.00000000000E+00 0. -1.
         -6    2    1    2    0  503 -0.10693219808E+03  0.12494685889E+03  0.72535487573E+03  0.76383486177E+03  0.17394765814E+03 0.  0.
        -24    2    3    3    0    0 -0.25134439878E+02  0.12413024236E+03  0.55836012393E+03  0.57782175137E+03  0.77922341007E+02 0.  0.
          6    2    1    2  501    0  0.10693219808E+03 -0.12494685889E+03  0.69596144097E+03  0.73479279448E+03  0.16885470374E+03 0.  0.
         24    2    5    5    0    0  0.86791531941E+02 -0.15595118336E+03  0.62292024471E+03  0.65279266693E+03  0.79089146648E+02 0.  0.
          5    1    5    5  501    0  0.20140666142E+02  0.31004324466E+02  0.73041196260E+02  0.82000127557E+02  0.47000000000E+01 0. -1.
        -11    1    6    6    0    0 -0.20850120545E+01  0.22104791546E+01 -0.86575894750E+00  0.31595936314E+01  0.00000000000E+00 0.  1.
         12    1    6    6    0    0  0.88876543996E+02 -0.15816166251E+03  0.62378600366E+03  0.64963307330E+03  0.00000000000E+00 0. -1.
         -5    1    3    3    0  503 -0.81797758205E+02  0.81661653280E+00  0.16699475180E+03  0.18601311040E+03  0.47000000000E+01 0.  1.
         13    1    4    4    0    0 -0.46673754305E+02  0.74483493536E+02  0.42315840504E+03  0.43219123766E+03  0.00000000000E+00 0. -1.
        -14    1    4    4    0    0  0.21539314427E+02  0.49646748822E+02  0.13520171889E+03  0.14563051372E+03  0.00000000000E+00 0.  1.
</event>
<event>
12    1  0.1615162E-001  0.1802959E+03  0.7818608E-02  0.1169670E+00
         21   -1    0    0  503  502  0.00000000000E+00  0.00000000000E+00  0.25793744032E+03  0.25793744032E+03  0.00000000000E+00 0.  1.
         21   -1    0    0  501  503 -0.00000000000E+00 -0.00000000000E+00 -0.18943739895E+03  0.18943739895E+03  0.00000000000E+00 0.  1.
          6    2    1    2  501    0 -0.34928745835E+02 -0.23788137176E+02 -0.10165869551E+03  0.19946236966E+03  0.16632754968E+03 0.  0.
         24    2    3    3    0    0 -0.21260131518E+02 -0.53823373788E+02 -0.12472565798E+03  0.15892693808E+03  0.79701525279E+02 0.  0.
         -6    2    1    2    0  502  0.34928745835E+02  0.23788137176E+02  0.17015873688E+03  0.24791246961E+03  0.17527322698E+03 0.  0.
        -24    2    5    5    0    0  0.43641599064E+02  0.28289859281E+02  0.18529964492E+02  0.95894201207E+02  0.78405566983E+02 0.  0.
          5    1    3    3  501    0 -0.13668614317E+02  0.30035236613E+02  0.23066962471E+02  0.40535431579E+02  0.47000000000E+01 0. -1.
        -11    1    4    4    0    0  0.22747525977E+02 -0.33577440231E+02 -0.23918686000E+02  0.47085007916E+02  0.00000000000E+00 0.  1.
         12    1    4    4    0    0 -0.44007657495E+02 -0.20245933558E+02 -0.10080697198E+03  0.11184193017E+03  0.00000000000E+00 0. -1.
         -5    1    5    5    0  502 -0.87128532288E+01 -0.45017221054E+01  0.15162877239E+03  0.15201826841E+03  0.47000000000E+01 0.  1.
         11    1    6    6    0    0  0.66633373101E+02  0.22272489015E+02  0.15371605133E+02  0.71919096366E+02  0.00000000000E+00 0. -1.
        -12    1    6    6    0    0 -0.22991774037E+02  0.60173702661E+01  0.31583593581E+01  0.23975104841E+02  0.00000000000E+00 0.  1.
</event>
<event>
12    1  0.1615162E-001  0.2296555E+03  0.7818608E-02  0.1126979E+00
         21   -1    0    0  503  502  0.00000000000E+00  0.00000000000E+00  0.88060302492E+03  0.88060302492E+03  0.00000000000E+00 0. -1.
         21   -1    0    0  501  503 -0.00000000000E+00 -0.00000000000E+00 -0.60367213080E+02  0.60367213080E+02  0.00000000000E+00 0. -1.
          6    2    1    2  501    0 -0.15191410805E+03 -0.27903425538E+01  0.36204305652E+03  0.42844486114E+03  0.17147635995E+03 0.  0.
         24    2    3    3    0    0 -0.55676112902E+02 -0.59651964289E+02  0.14922182258E+03  0.18800783539E+03  0.80134932710E+02 0.  0.
         -6    2    1    2    0  502  0.15191410805E+03  0.27903425538E+01  0.45819275532E+03  0.51252537686E+03  0.17220911318E+03 0.  0.
        -24    2    5    5    0    0  0.24752714418E+02  0.58193905540E+01  0.28896959180E+03  0.30077608115E+03  0.79474925787E+02 0.  0.
          5    1    3    3  501    0 -0.96237995152E+02  0.56861621735E+02  0.21282123394E+03  0.24043702575E+03  0.47000000000E+01 0. -1.
        -13    1    4    4    0    0  0.25184715504E+01 -0.76736070523E+01 -0.86940386220E+01  0.11866475960E+02  0.00000000000E+00 0.  1.
         14    1    4    4    0    0 -0.58194584453E+02 -0.51978357236E+02  0.15791586121E+03  0.17614135943E+03  0.00000000000E+00 0. -1.
         -5    1    5    5    0  502  0.12716139364E+03 -0.30290480001E+01  0.16922316352E+03  0.21174929571E+03  0.47000000000E+01 0.  1.
         13    1    6    6    0    0  0.27652472255E+02  0.40125576353E+02  0.15695391642E+03  0.16434492076E+03  0.00000000000E+00 0. -1.
        -14    1    6    6    0    0 -0.28997578370E+01 -0.34306185799E+02  0.13201567537E+03  0.13643116038E+03  0.00000000000E+00 0.  1.
</event>
<event>
12    1  0.1615162E-001  0.1884353E+03  0.7818608E-02  0.1159989E+00
         21   -1    0    0  501  502  0.00000000000E+00  0.00000000000E+00  0.92548127972E+02  0.92548127972E+02  0.00000000000E+00 0. -1.
         21   -1    0    0  502  503 -0.00000000000E+00 -0.00000000000E+00 -0.64469150070E+03  0.64469150070E+03  0.00000000000E+00 0.  1.
         -6    2    1    2    0  503 -0.75146707100E+02 -0.61210783135E+01 -0.51126669462E+03  0.54488666790E+03  0.17269439088E+03 0.  0.
        -24    2    3    3    0    0 -0.19725033230E+01 -0.91289619087E+01 -0.42042695058E+03  0.42810712963E+03  0.80185191582E+02 0.  0.
          6    2    1    2  501    0  0.75146707100E+02  0.61210783135E+01 -0.40876678109E+02  0.19235296077E+03  0.17217509552E+03 0.  0.
         24    2    5    5    0    0  0.18757197119E+02 -0.46734570268E+02  0.13849718939E+02  0.97534371050E+02  0.82372242410E+02 0.  0.
          5    1    5    5  501    0  0.56389509982E+02  0.52855648581E+02 -0.54726397048E+02  0.94818589721E+02  0.47000000000E+01 0. -1.
        -13    1    6    6    0    0 -0.15699340674E+02 -0.23062069131E+02 -0.27186611265E+02  0.38954334320E+02  0.00000000000E+00 0.  1.
         14    1    6    6    0    0  0.34456537793E+02 -0.23672501137E+02  0.41036330204E+02  0.58580036730E+02  0.00000000000E+00 0. -1.
         -5    1    3    3    0  503 -0.73174203777E+02  0.30078835952E+01 -0.90839744034E+02  0.11677953827E+03  0.47000000000E+01 0.  1.
         11    1    4    4    0    0  0.93095485043E+01  0.33619237603E+02 -0.22893873601E+03  0.23158122911E+03  0.00000000000E+00 0. -1.
        -12    1    4    4    0    0 -0.11282051827E+02 -0.42748199511E+02 -0.19148821457E+03  0.19652590051E+03  0.00000000000E+00 0.  1.
</event>
<event>
12    1  0.1615162E-001  0.1818139E+03  0.7818608E-02  0.1166301E+00
         21   -1    0    0  503  502  0.00000000000E+00  0.00000000000E+00  0.60757438385E+02  0.60757438385E+02  0.00000000000E+00 0. -1.
         21   -1    0    0  501  503 -0.00000000000E+00 -0.00000000000E+00 -0.77866168090E+03  0.77866168090E+03  0.00000000000E+00 0.  1.
          6    2    1    2  501    0  0.54445369030E+02 -0.73676271112E+01 -0.59149822664E+03  0.61881051442E+03  0.17331393627E+03 0.  0.
         24    2    3    3    0    0  0.10227295215E+03  0.57630775309E+01 -0.41647382349E+03  0.43683379941E+03  0.82947892358E+02 0.  0.
         -6    2    1    2    0  502 -0.54445369030E+02  0.73676271112E+01 -0.12640601588E+03  0.22060860486E+03  0.17225299867E+03 0.  0.
        -24    2    5    5    0    0 -0.70616095435E+02  0.34690126566E+02 -0.21967566653E+02  0.11134977893E+03  0.75671404549E+02 0.  0.
          5    1    3    3  501    0 -0.47827583115E+02 -0.13130704642E+02 -0.17502440315E+03  0.18197671502E+03  0.47000000000E+01 0. -1.
        -13    1    4    4    0    0  0.44043335570E+02 -0.32520377715E+02 -0.25751471907E+03  0.26327024312E+03  0.00000000000E+00 0.  1.
         14    1    4    4    0    0  0.58229616576E+02  0.38283455245E+02 -0.15895910442E+03  0.17356355628E+03  0.00000000000E+00 0. -1.
         -5    1    5    5    0  502  0.16170726405E+02 -0.27322499455E+02 -0.10443844922E+03  0.10925882594E+03  0.47000000000E+01 0.  1.
         13    1    6    6    0    0 -0.39959120431E+02 -0.10713646486E+02  0.16361358722E+02  0.44488285940E+02  0.00000000000E+00 0. -1.
        -14    1    6    6    0    0 -0.30656975004E+02  0.45403773053E+02 -0.38328925376E+02  0.66861492986E+02  0.00000000000E+00 0.  1.
</event>
<event>
12    1  0.1615162E-001  0.1995399E+03  0.7818608E-02  0.1150259E+00
         21   -1    0    0  503  502  0.00000000000E+00  0.00000000000E+00  0.49355844542E+03  0.49355844542E+03  0.00000000000E+00 0. -1.
         21   -1    0    0  501  503 -0.00000000000E+00 -0.00000000000E+00 -0.13042788280E+03  0.13042788280E+03  0.00000000000E+00 0. -1.
          6    2    1    2  501    0 -0.71838846826E+02  0.72821791610E+02 -0.11446110928E+02  0.19986795386E+03  0.17132528208E+03 0.  0.
         24    2    3    3    0    0 -0.90738143847E+02  0.43348832343E+02 -0.58011219627E+02  0.14141936017E+03  0.80756435132E+02 0.  0.
         -6    2    1    2    0  502  0.71838846826E+02 -0.72821791610E+02  0.37457667355E+03  0.42411837436E+03  0.17060151775E+03 0.  0.
        -24    2    5    5    0    0 -0.44431652351E+00 -0.20257198019E+02  0.28713066963E+03  0.29899129574E+03  0.80877821423E+02 0.  0.
          5    1    3    3  501    0  0.18899297021E+02  0.29472959267E+02  0.46565108699E+02  0.58448593687E+02  0.47000000000E+01 0. -1.
        -13    1    4    4    0    0  0.14494889218E+02  0.56362013752E+01 -0.16569235363E+00  0.15553007212E+02  0.00000000000E+00 0.  1.
         14    1    4    4    0    0 -0.10523303306E+03  0.37712630968E+02 -0.57845527273E+02  0.12586635296E+03  0.00000000000E+00 0. -1.
         -5    1    5    5    0  502  0.72283163350E+02 -0.52564593591E+02  0.87446003923E+02  0.12512707863E+03  0.47000000000E+01 0.  1.
         11    1    6    6    0    0  0.66865762063E+01 -0.42945145593E+02  0.85008677067E+02  0.95474975821E+02  0.00000000000E+00 0. -1.
        -12    1    6    6    0    0 -0.71308927298E+01  0.22687947574E+02  0.20212199256E+03  0.20351631992E+03  0.00000000000E+00 0.  1.
</event>
<event>
12    1  0.1615162E-001  0.1754965E+03  0.7818608E-02  0.1172805E+00
         21   -1    0    0  501  502  0.00000000000E+00  0.00000000000E+00  0.13523943988E+02  0.13523943988E+02  0.00000000000E+00 0. -1.
         21   -1    0    0  502  503 -0.00000000000E+00 -0.00000000000E+00 -0.23479028783E+04  0.23479028783E+04  0.00000000000E+00 0. -1.
         -6    2    1    2    0  503  0.32477629545E+02  0.10653978173E+02 -0.93096664595E+03  0.94736367577E+03  0.17213580289E+03 0.  0.
        -24    2    3    3    0    0  0.68078408461E+02  0.17583959220E+02 -0.87014230012E+03  0.87639092648E+03  0.77262981033E+02 0.  0.
          6    2    1    2  501    0 -0.32477629545E+02 -0.10653978173E+02 -0.14034122883E+04  0.14140631465E+04  0.16982410762E+03 0.  0.
         24    2    5    5    0    0  0.28067479234E+02  0.22043841193E+02 -0.10726430902E+04  0.10761797198E+04  0.79535376082E+02 0.  0.
          5    1    5    5  501    0 -0.60545108779E+02 -0.32697819366E+02 -0.33076919813E+03  0.33788342668E+03  0.47000000000E+01 0. -1.
        -13    1    6    6    0    0  0.84867876298E+01  0.35680494760E+01 -0.97064430604E+03  0.97068796500E+03  0.00000000000E+00 0.  1.
         14    1    6    6    0    0  0.19580691605E+02  0.18475791717E+02 -0.10199878418E+03  0.10549175483E+03  0.00000000000E+00 0. -1.
         -5    1    3    3    0  503 -0.35600778917E+02 -0.69299810474E+01 -0.60824345826E+02  0.70972749291E+02  0.47000000000E+01 0.  1.
         11    1    4    4    0    0  0.32712137401E+02 -0.12331224526E+02 -0.12461057298E+03  0.12942155126E+03  0.00000000000E+00 0. -1.
        -12    1    4    4    0    0  0.35366271060E+02  0.29915183747E+02 -0.74553172714E+03  0.74696937522E+03  0.00000000000E+00 0.  1.
</event>
<event>
12    1  0.1615162E-001  0.2260162E+03  0.7818608E-02  0.1130421E+00
         21   -1    0    0  503  502  0.00000000000E+00  0.00000000000E+00  0.76406667196E+02  0.76406667196E+02  0.00000000000E+00 0.  1.
         21   -1    0    0  501  503 -0.00000000000E+00 -0.00000000000E+00 -0.67019060775E+03  0.67019060775E+03  0.00000000000E+00 0.  1.
          6    2    1    2  501    0  0.12544228137E+03 -0.59861386438E+02 -0.35277341380E+03  0.41618932736E+03  0.17159639619E+03 0.  0.
         24    2    3    3    0    0  0.12236641479E+03  0.65430823757E+01 -0.18335468210E+03  0.23413490944E+03  0.78637554488E+02 0.  0.
         -6    2    1    2    0  502 -0.12544228137E+03  0.59861386438E+02 -0.24101052675E+03  0.33040794758E+03  0.17822510003E+03 0.  0.
        -24    2    5    5    0    0  0.11172763957E+02  0.23961241355E+02 -0.95067469963E+02  0.12724801834E+03  0.80344648756E+02 0.  0.
          5    1    3    3  501    0  0.30758665803E+01 -0.66404468813E+02 -0.16941873170E+03  0.18205441792E+03  0.47000000000E+01 0. -1.
        -11    1    4    4    0    0  0.10393380264E+03  0.23720544812E+02 -0.17932331433E+03  0.20861867280E+03  0.00000000000E+00 0.  1.
         12    1    4    4    0    0  0.18432612151E+02 -0.17177462437E+02 -0.40313677715E+01  0.25516236646E+02  0.00000000000E+00 0. -1.
         -5    1    5    5    0  502 -0.13661504533E+03  0.35900145082E+02 -0.14594305679E+03  0.20315992924E+03  0.47000000000E+01 0.  1.
         11    1    6    6    0    0 -0.17586429673E+02  0.20219803457E+02 -0.94515688651E+02  0.98241225367E+02  0.00000000000E+00 0. -1.
        -12    1    6    6    0    0  0.28759193629E+02  0.37414378987E+01 -0.55178131183E+00  0.29006792970E+02  0.00000000000E+00 0.  1.
</event>
<event>
12    1  0.1615162E-001  0.2121421E+03  0.7818608E-02  0.1140074E+00
         21   -1    0    0  501  502  0.00000000000E+00  0.00000000000E+00  0.26906081527E+03  0.26906081527E+03  0.00000000000E+00 0. -1.
         21   -1    0    0  502  503 -0.00000000000E+00 -0.00000000000E+00 -0.39460891504E+03  0.39460891504E+03  0.00000000000E+00 0.  1.
         -6    2    1    2    0  503  0.29829122603E+02 -0.11900906938E+03 -0.31501534576E+03  0.37923676590E+03  0.17185145155E+03 0.  0.
        -24    2    3    3    0    0  0.29114626336E+02  0.63920335333E+01 -0.13548037048E+03  0.16019146359E+03  0.80111513917E+02 0.  0.
          6    2    1    2  501    0 -0.29829122603E+02  0.11900906938E+03  0.18946724598E+03  0.28443296441E+03  0.17306455094E+03 0.  0.
         24    2    5    5    0    0 -0.37120491303E+02  0.36891572640E+02  0.23685547626E+02  0.99224679395E+02  0.80904961704E+02 0.  0.
          5    1    5    5  501    0  0.72913686997E+01  0.82117496743E+02  0.16578169836E+03  0.18520828502E+03  0.47000000000E+01 0. -1.
        -11    1    6    6    0    0 -0.38392601030E+02 -0.15143523140E+02  0.22834519560E+02  0.47167079520E+02  0.00000000000E+00 0.  1.
         12    1    6    6    0    0  0.12721097273E+01  0.52035095780E+02  0.85102806616E+00  0.52057599875E+02  0.00000000000E+00 0. -1.
         -5    1    3    3    0  503  0.71449626699E+00 -0.12540110292E+03 -0.17953497528E+03  0.21904530231E+03  0.47000000000E+01 0.  1.
         11    1    4    4    0    0  0.41945203563E+02 -0.82281806680E+01 -0.28308546398E+02  0.51268673264E+02  0.00000000000E+00 0. -1.
        -12    1    4    4    0    0 -0.12830577227E+02  0.14620214201E+02 -0.10717182408E+03  0.10892279032E+03  0.00000000000E+00 0.  1.
</event>
<event>
12    1  0.1615162E-001  0.2992114E+03  0.7818608E-02  0.1086097E+00
         21   -1    0    0  503  502  0.00000000000E+00  0.00000000000E+00  0.47104208803E+03  0.47104208803E+03  0.00000000000E+00 0.  1.
         21   -1    0    0  501  503 -0.00000000000E+00 -0.00000000000E+00 -0.21147462839E+03  0.21147462839E+03  0.00000000000E+00 0.  1.
          6    2    1    2  501    0  0.17908078825E+03  0.16801608362E+03  0.16188171876E+02  0.29964900665E+03  0.17096238536E+03 0.  0.
         24    2    3    3    0    0  0.82195488575E+02  0.68384315167E+02 -0.50181025236E+02  0.14557041988E+03  0.85088770982E+02 0.  0.
         -6    2    1    2    0  502 -0.17908078825E+03 -0.16801608362E+03  0.24337928776E+03  0.38286770977E+03  0.16448365390E+03 0.  0.
        -24    2    5    5    0    0 -0.17328155613E+02 -0.61229166167E+02  0.92264934304E+02  0.13705274334E+03  0.78875601977E+02 0.  0.
          5    1    3    3  501    0  0.96885299671E+02  0.99631768450E+02  0.66369197111E+02  0.15407858677E+03  0.47000000000E+01 0. -1.
        -13    1    4    4    0    0  0.91611361620E+02  0.57273952687E+02 -0.17048298107E+02  0.10937820488E+03  0.00000000000E+00 0.  1.
         14    1    4    4    0    0 -0.94158730447E+01  0.11110362480E+02 -0.33132727129E+02  0.36192215000E+02  0.00000000000E+00 0. -1.
         -5    1    5    5    0  502 -0.16175263263E+03 -0.10678691745E+03  0.15111435346E+03  0.24581496643E+03  0.47000000000E+01 0.  1.
         13    1    6    6    0    0  0.10472142440E+01  0.18996983225E+02  0.16421093361E+02  0.25132336472E+02  0.00000000000E+00 0. -1.
        -14    1    6    6    0    0 -0.18375369857E+02 -0.80226149392E+02  0.75843840943E+02  0.11192040686E+03  0.00000000000E+00 0.  1.
</event>
<event>
12    1  0.1615162E-001  0.1811982E+03  0.7818608E-02  0.1166789E+00
         21   -1    0    0  501  502  0.00000000000E+00  0.00000000000E+00  0.52879571853E+03  0.52879571853E+03  0.00000000000E+00 0. -1.
         21   -1    0    0  502  503 -0.00000000000E+00 -0.00000000000E+00 -0.61927683540E+02  0.61927683540E+02  0.00000000000E+00 0. -1.
         -6    2    1    2    0  503  0.55274024984E+02 -0.12311420525E+01  0.22576770515E+03  0.28912409289E+03  0.17194461566E+03 0.  0.
        -24    2    3    3    0    0  0.10248018168E+02 -0.59630921512E+02  0.88732301368E+02  0.13343636884E+03  0.79189485074E+02 0.  0.
          6    2    1    2  501    0 -0.55274024984E+02  0.12311420525E+01  0.24110032984E+03  0.30159930918E+03  0.17255735481E+03 0.  0.
         24    2    5    5    0    0 -0.54662756809E+02  0.45442910877E+02  0.23263267401E+03  0.25633513630E+03  0.80849650309E+02 0.  0.
          5    1    5    5  501    0 -0.61126817461E+00 -0.44211768824E+02  0.84676558357E+01  0.45264172882E+02  0.47000000000E+01 0. -1.
        -11    1    6    6    0    0  0.57251590462E+01 -0.18616231895E+02  0.47437961587E+02  0.51280617543E+02  0.00000000000E+00 0.  1.
         12    1    6    6    0    0 -0.60387915855E+02  0.64059142772E+02  0.18519471242E+03  0.20505451876E+03  0.00000000000E+00 0. -1.
         -5    1    3    3    0  503  0.45026006816E+02  0.58399779460E+02  0.13703540378E+03  0.15568772405E+03  0.47000000000E+01 0.  1.
         11    1    4    4    0    0  0.41871251067E+02 -0.28423813110E+02  0.67034210779E+02  0.83992262932E+02  0.00000000000E+00 0. -1.
        -12    1    4    4    0    0 -0.31623232899E+02 -0.31207108402E+02  0.21698090588E+02  0.49444105908E+02  0.00000000000E+00 0.  1.
</event>
<event>
12    1  0.1615162E-001  0.1819411E+03  0.7818608E-02  0.1166710E+00
         21   -1    0    0  501  502  0.00000000000E+00  0.00000000000E+00  0.24891679742E+03  0.24891679742E+03  0.00000000000E+00 0. -1.
         21   -1    0    0  502  503 -0.00000000000E+00 -0.00000000000E+00 -0.13859811033E+03  0.13859811033E+03  0.00000000000E+00 0. -1.
         -6    2    1    2    0  503 -0.11306989817E+02  0.21094759948E+02  0.83084095085E+01  0.17892759315E+03  0.17712486275E+03 0.  0.
        -24    2    3    3    0    0  0.51365050159E+02 -0.11441825310E+02 -0.28478975312E+02  0.99166602326E+02  0.79080207624E+02 0.  0.
          6    2    1    2  501    0  0.11306989817E+02 -0.21094759948E+02  0.10201027758E+03  0.20858731460E+03  0.18036001265E+03 0.  0.
         24    2    5    5    0    0  0.26704529457E+02  0.53753488588E+02  0.26094531005E+02  0.10076971347E+03  0.76622719702E+02 0.  0.
          5    1    5    5  501    0 -0.15397539640E+02 -0.74848248536E+02  0.75915746577E+02  0.10781760113E+03  0.47000000000E+01 0. -1.
        -13    1    6    6    0    0 -0.22658143941E+02  0.39470658523E+02  0.75234513614E+01  0.46129455790E+02  0.00000000000E+00 0.  1.
         14    1    6    6    0    0  0.49362673398E+02  0.14282830065E+02  0.18571079644E+02  0.54640257675E+02  0.00000000000E+00 0. -1.
         -5    1    3    3    0  503 -0.62672039977E+02  0.32536585258E+02  0.36787384820E+02  0.79760990823E+02  0.47000000000E+01 0.  1.
         11    1    4    4    0    0  0.55464528989E+02  0.13077083166E+02  0.52943356961E+01  0.57230709156E+02  0.00000000000E+00 0. -1.
        -12    1    4    4    0    0 -0.40994788293E+01 -0.24518908476E+02 -0.33773311008E+02  0.41935893170E+02  0.00000000000E+00 0.  1.
</event>
<event>
12    1  0.1615162E-001  0.3281866E+03  0.7818608E-02  0.1072018E+00
         21   -1    0    0  503  502  0.00000000000E+00  0.00000000000E+00  0.11986839520E+04  0.11986839520E+04  0.00000000000E+00 0. -1.
         21   -1    0    0  501  503 -0.00000000000E+00 -0.00000000000E+00 -0.14975024052E+03  0.14975024052E+03  0.00000000000E+00 0.  1.
          6    2    1    2  501    0 -0.11098429095E+03 -0.25639717444E+03  0.97731041207E+02  0.34242926322E+03  0.17219006938E+03 0.  0.
         24    2    3    3    0    0 -0.11811481853E+03 -0.10697303717E+03  0.54574890932E+02  0.18666354000E+03  0.80439526401E+02 0.  0.
         -6    2    1    2    0  502  0.11098429095E+03  0.25639717444E+03  0.95120267023E+03  0.10060049293E+04  0.17088702097E+03 0.  0.
        -24    2    5    5    0    0  0.17630425840E+02  0.39909370486E+02  0.26985146980E+03  0.28500322210E+03  0.80643853375E+02 0.  0.
          5    1    3    3  501    0  0.71305275812E+01 -0.14942413727E+03  0.43156150275E+02  0.15576572322E+03  0.47000000000E+01 0. -1.
        -13    1    4    4    0    0  0.56146473350E+01  0.72210411198E+01 -0.13505470176E+01  0.92461709262E+01  0.00000000000E+00 0.  1.
         14    1    4    4    0    0 -0.12372946586E+03 -0.11419407829E+03  0.55925437949E+02  0.17741736907E+03  0.00000000000E+00 0. -1.
         -5    1    5    5    0  502  0.93353865105E+02  0.21648780395E+03  0.68135120043E+03  0.72100170716E+03  0.47000000000E+01 0.  1.
         11    1    6    6    0    0  0.26916608092E+02  0.46770778037E+02  0.26791539920E+03  0.27329593959E+03  0.00000000000E+00 0. -1.
        -12    1    6    6    0    0 -0.92861822514E+01 -0.68614075512E+01  0.19360706009E+01  0.11707282510E+02  0.00000000000E+00 0.  1.
</event>
<event>
12    1  0.1615162E-001  0.1755744E+03  0.7818608E-02  0.1172178E+00
         21   -1    0    0  503  502  0.00000000000E+00  0.00000000000E+00  0.59279154098E+02  0.59279154098E+02  0.00000000000E+00 0.  1.
         21   -1    0    0  501  503 -0.00000000000E+00 -0.00000000000E+00 -0.60627566957E+03  0.60627566957E+03  0.00000000000E+00 0.  1.
          6    2    1    2  501    0  0.41023851094E+02  0.53320756441E+01 -0.39925868218E+03  0.43615806731E+03  0.17063111380E+03 0.  0.
         24    2    3    3    0    0  0.42370688090E+02  0.68632967637E+02 -0.26460342324E+03  0.28728582122E+03  0.77539744820E+02 0.  0.
         -6    2    1    2    0  502 -0.41023851094E+02 -0.53320756441E+01 -0.14773783329E+03  0.22939675636E+03  0.17054329964E+03 0.  0.
        -24    2    5    5    0    0  0.20825089345E+02  0.21676621584E+02 -0.26530030189E+02  0.90586876691E+02  0.81231640740E+02 0.  0.
          5    1    3    3  501    0 -0.13468369963E+01 -0.63300891993E+02 -0.13465525894E+03  0.14887224609E+03  0.47000000000E+01 0. -1.
        -13    1    4    4    0    0  0.29880949513E+02  0.16706441959E+02 -0.20251218325E+03  0.20538539556E+03  0.00000000000E+00 0.  1.
         14    1    4    4    0    0  0.12489738577E+02  0.51926525679E+02 -0.62091239991E+02  0.81900425655E+02  0.00000000000E+00 0. -1.
         -5    1    5    5    0  502 -0.61848940439E+02 -0.27008697228E+02 -0.12120780311E+03  0.13880987967E+03  0.47000000000E+01 0.  1.
         13    1    6    6    0    0  0.94574287970E+01 -0.27776491531E+00 -0.53308106169E+02  0.54141243947E+02  0.00000000000E+00 0. -1.
        -14    1    6    6    0    0  0.11367660548E+02  0.21954386499E+02  0.26778075981E+02  0.36445632744E+02  0.00000000000E+00 0.  1.
</event>
<event>
12    1  0.1615162E-001  0.1825073E+03  0.7818608E-02  0.1166107E+00
         21   -1    0    0  503  502  0.00000000000E+00  0.00000000000E+00  0.11130941960E+04  0.11130941960E+04  0.00000000000E+00 0. -1.
         21   -1    0    0  501  503 -0.00000000000E+00 -0.00000000000E+00 -0.30199070881E+02  0.30199070881E+02  0.00000000000E+00 0. -1.
          6    2    1    2  501    0 -0.40613375063E+02  0.34533364138E+02  0.45525542014E+03  0.49047568786E+03  0.17454771080E+03 0.  0.
         24    2    3    3    0    0 -0.47119346576E+01  0.83544865452E+02  0.35643986102E+03  0.37438242618E+03  0.78172115460E+02 0.  0.
         -6    2    1    2    0  502  0.40613375063E+02 -0.34533364138E+02  0.62763970503E+03  0.65281757907E+03  0.17145609566E+03 0.  0.
        -24    2    5    5    0    0  0.64805788213E+02 -0.11111312729E+02  0.20987211802E+03  0.23366878437E+03  0.78940125465E+02 0.  0.
          5    1    3    3  501    0 -0.35901440406E+02 -0.49011501314E+02  0.98815559119E+02  0.11609326168E+03  0.47000000000E+01 0. -1.
        -11    1    4    4    0    0 -0.32325266649E+02  0.22602267022E+02  0.20590052649E+03  0.20964448990E+03  0.00000000000E+00 0.  1.
         12    1    4    4    0    0  0.27613331991E+02  0.60942598430E+02  0.15053933453E+03  0.16473793628E+03  0.00000000000E+00 0. -1.
         -5    1    5    5    0  502 -0.24192413150E+02 -0.23422051409E+02  0.41776758701E+03  0.41914879470E+03  0.47000000000E+01 0.  1.
         11    1    6    6    0    0  0.66454618431E+02 -0.34706032421E+02  0.18360663457E+03  0.19832327462E+03  0.00000000000E+00 0. -1.
        -12    1    6    6    0    0 -0.16488302173E+01  0.23594719692E+02  0.26265483448E+02  0.35345509746E+02  0.00000000000E+00 0.  1.
</event>
<event>
12    1  0.1615162E-001  0.2657203E+03  0.7818608E-02  0.1104106E+00
         21   -1    0    0  503  502  0.00000000000E+00  0.00000000000E+00  0.88710004128E+03  0.88710004128E+03  0.00000000000E+00 0. -1.
         21   -1    0    0  501  503 -0.00000000000E+00 -0.00000000000E+00 -0.82544651056E+02  0.82544651056E+02  0.00000000000E+00 0. -1.
          6    2    1    2  501    0  0.15358092947E+03  0.12811291843E+03  0.50619867141E+03  0.57170305382E+03  0.17494932136E+03 0.  0.
         24    2    3    3    0    0  0.76349857180E+02  0.74976575255E+02  0.15485933618E+03  0.20804177190E+03  0.88595582972E+02 0.  0.
         -6    2    1    2    0  502 -0.15358092947E+03 -0.12811291843E+03  0.29835671881E+03  0.39794163851E+03  0.17129154748E+03 0.  0.
        -24    2    5    5    0    0 -0.11077879748E+03 -0.67531719731E+02  0.28264966344E+03  0.32197516086E+03  0.83334847593E+02 0.  0.
          5    1    3    3  501    0  0.77231072288E+02  0.53136343175E+02  0.35133933523E+03  0.36366128193E+03  0.47000000000E+01 0. -1.
        -11    1    4    4    0    0  0.82680331902E+02  0.45085229813E+02  0.68542130336E+02  0.11647634464E+03  0.00000000000E+00 0.  1.
         12    1    4    4    0    0 -0.63304747217E+01  0.29891345441E+02  0.86317205848E+02  0.91565427252E+02  0.00000000000E+00 0. -1.
         -5    1    5    5    0  502 -0.42802131991E+02 -0.60581198699E+02  0.15707055362E+02  0.75966477653E+02  0.47000000000E+01 0.  1.
         13    1    6    6    0    0 -0.28519959727E+02 -0.64960186487E+02  0.11314884127E+03  0.13355101726E+03  0.00000000000E+00 0. -1.
        -14    1    6    6    0    0 -0.82258837750E+02 -0.25715332440E+01  0.16950082218E+03  0.18842414360E+03  0.00000000000E+00 0.  1.
</event>
<event>
12    1  0.1615162E-001  0.2054642E+03  0.7818608E-02  0.1145380E+00
         21   -1    0    0  501  502  0.00000000000E+00  0.00000000000E+00  0.15017289673E+03  0.15017289673E+03  0.00000000000E+00 0. -1.
         21   -1    0    0  502  503 -0.00000000000E+00 -0.00000000000E+00 -0.29908773911E+03  0.29908773911E+03  0.00000000000E+00 0. -1.
         -6    2    1    2    0  503  0.14828277425E+02  0.11106842971E+03 -0.17524630013E+02  0.20537760160E+03  0.17122141423E+03 0.  0.
        -24    2    3    3    0    0 -0.40472296477E+02  0.64002753866E+02  0.35227984028E+02  0.11549846272E+03  0.79777971572E+02 0.  0.
          6    2    1    2  501    0 -0.14828277425E+02 -0.11106842971E+03 -0.13139021237E+03  0.24388303424E+03  0.17221925733E+03 0.  0.
         24    2    5    5    0    0 -0.42314952877E+01 -0.10211524975E+03 -0.19538772591E+02  0.13107662572E+03  0.79711281457E+02 0.  0.
          5    1    5    5  501    0 -0.10596782137E+02 -0.89531799615E+01 -0.11185143978E+03  0.11280640852E+03  0.47000000000E+01 0. -1.
        -11    1    6    6    0    0  0.19908798616E+02 -0.44375598911E+00  0.10275585052E+02  0.22408588306E+02  0.00000000000E+00 0.  1.
         12    1    6    6    0    0 -0.24140293904E+02 -0.10167149376E+03 -0.29814357644E+02  0.10866803741E+03  0.00000000000E+00 0. -1.
         -5    1    3    3    0  503  0.55300573901E+02  0.47065675843E+02 -0.52752614041E+02  0.89879138873E+02  0.47000000000E+01 0.  1.
         13    1    4    4    0    0 -0.11651363797E+02  0.18286595480E+02  0.54077688393E+02  0.58262768854E+02  0.00000000000E+00 0. -1.
        -14    1    4    4    0    0 -0.28820932679E+02  0.45716158386E+02 -0.18849704365E+02  0.57235693869E+02  0.00000000000E+00 0.  1.
</event>
<event>
12    1  0.1615162E-001  0.2186314E+03  0.7818608E-02  0.1135092E+00
         21   -1    0    0  503  502  0.00000000000E+00  0.00000000000E+00  0.12769466543E+04  0.12769466543E+04  0.00000000000E+00 0.  1.
         21   -1    0    0  501  503 -0.00000000000E+00 -0.00000000000E+00 -0.98360303050E+02  0.98360303050E+02  0.00000000000E+00 0. -1.
          6    2    1    2  501    0 -0.12937630581E+03 -0.40791120172E+02  0.46835600116E+02  0.22263204422E+03  0.17020372994E+03 0.  0.
         24    2    3    3    0    0  0.36394628291E+01  0.10042491706E+02  0.10255354147E+02  0.75535289673E+02  0.74069631887E+02 0.  0.
         -6    2    1    2    0  502  0.12937630581E+03  0.40791120172E+02  0.11317507511E+04  0.11526749131E+04  0.17145713364E+03 0.  0.
        -24    2    5    5    0    0  0.12770497670E+03  0.69023793537E+01  0.55110193749E+03  0.57101661578E+03  0.77397842808E+02 0.  0.
          5    1    3    3  501    0 -0.13301576864E+03 -0.50833611878E+02  0.36580245970E+02  0.14709675455E+03  0.47000000000E+01 0. -1.
        -13    1    4    4    0    0 -0.22093558759E+02  0.20957295557E+02  0.28862070981E+02  0.41956557497E+02  0.00000000000E+00 0.  1.
         14    1    4    4    0    0  0.25733021588E+02 -0.10914803851E+02 -0.18606716834E+02  0.33578732176E+02  0.00000000000E+00 0. -1.
         -5    1    5    5    0  502  0.16713291057E+01  0.33888740818E+02  0.58064881360E+03  0.58165829731E+03  0.47000000000E+01 0.  1.
         13    1    6    6    0    0  0.47949944128E+02  0.41311577171E+01  0.81238542133E+02  0.94424384212E+02  0.00000000000E+00 0. -1.
        -14    1    6    6    0    0  0.79755032575E+02  0.27712216366E+01  0.46986339536E+03  0.47659223156E+03  0.00000000000E+00 0.  1.
</event>
<event>
12    1  0.1615162E-001  0.2047388E+03  0.7818608E-02  0.1148272E+00
         21   -1    0    0  503  502  0.00000000000E+00  0.00000000000E+00  0.22755643128E+03  0.22755643128E+03  0.00000000000E+00 0.  1.
         21   -1    0    0  501  503 -0.00000000000E+00 -0.00000000000E+00 -0.18075985540E+03  0.18075985540E+03  0.00000000000E+00 0. -1.
          6    2    1    2  501    0 -0.10057037202E+02 -0.11133982416E+03 -0.17221800774E+02  0.19380207512E+03  0.15736884526E+03 0.  0.
         24    2    3    3    0    0  0.33714157650E+02 -0.11050984615E+02 -0.27015295619E+02  0.83839484315E+02  0.70996226983E+02 0.  0.
         -6    2    1    2    0  502  0.10057037202E+02  0.11133982416E+03  0.64018376649E+02  0.21451421156E+03  0.17152345020E+03 0.  0.
        -24    2    5    5    0    0  0.13970642203E+02  0.27798224449E+00 -0.98473000713E+01  0.80991639568E+02  0.79167040133E+02 0.  0.
          5    1    3    3  501    0 -0.43771194852E+02 -0.10028883954E+03  0.97934948448E+01  0.10996259081E+03  0.47000000000E+01 0. -1.
        -11    1    4    4    0    0  0.15954705650E+01 -0.15350140030E+02  0.20909012546E+02  0.25987672672E+02  0.00000000000E+00 0.  1.
         12    1    4    4    0    0  0.32118687085E+02  0.42991554147E+01 -0.47924308165E+02  0.57851811643E+02  0.00000000000E+00 0. -1.
         -5    1    5    5    0  502 -0.39136050010E+01  0.11106184191E+03  0.73865676721E+02  0.13352257199E+03  0.47000000000E+01 0.  1.
         11    1    6    6    0    0 -0.20172908418E+02 -0.27549197800E+02 -0.13667925960E+02  0.36779297621E+02  0.00000000000E+00 0. -1.
        -12    1    6    6    0    0  0.34143550621E+02  0.27827180044E+02  0.38206258889E+01  0.44212341947E+02  0.00000000000E+00 0.  1.
</event>
<event>
12    1  0.1615162E-001  0.2146414E+03  0.7818608E-02  0.1139531E+00
         21   -1    0    0  503  502  0.00000000000E+00  0.00000000000E+00  0.10770968000E+04  0.10770968000E+04  0.00000000000E+00 0.  1.
         21   -1    0    0  501  503 -0.00000000000E+00 -0.00000000000E+00 -0.73452160917E+02  0.73452160917E+02  0.00000000000E+00 0. -1.
          6    2    1    2  501    0  0.10535201579E+03  0.46720960153E+02  0.11512730911E+03  0.23647349534E+03  0.17141622253E+03 0.  0.
         24    2    3    3    0    0 -0.12687425632E+02  0.16732451688E+02  0.65389936245E+02  0.10483567163E+03  0.79206872021E+02 0.  0.
         -6    2    1    2    0  502 -0.10535201579E+03 -0.46720960153E+02  0.88851732995E+03  0.91407546556E+03  0.18107737507E+03 0.  0.
        -24    2    5    5    0    0 -0.50802823482E+02 -0.24025927408E+02  0.20462700967E+03  0.22762172417E+03  0.82348431472E+02 0.  0.
          5    1    3    3  501    0  0.11803944142E+03  0.29988508465E+02  0.49737372863E+02  0.13163782371E+03  0.47000000000E+01 0. -1.
        -13    1    4    4    0    0  0.17473446591E+02 -0.24584428883E+02  0.18125423507E+02  0.35188726271E+02  0.00000000000E+00 0.  1.
         14    1    4    4    0    0 -0.30160872223E+02  0.41316880571E+02  0.47264512738E+02  0.69646945358E+02  0.00000000000E+00 0. -1.
         -5    1    5    5    0  502 -0.54549192306E+02 -0.22695032745E+02  0.68389032028E+03  0.68645374139E+03  0.47000000000E+01 0.  1.
         11    1    6    6    0    0 -0.26372537300E+02 -0.52995835195E+02  0.14885401102E+03  0.16019234023E+03  0.00000000000E+00 0. -1.
        -12    1    6    6    0    0 -0.24430286182E+02  0.28969907786E+02  0.55772998652E+02  0.67429383941E+02  0.00000000000E+00 0.  1.
</event>
<event>
12    1  0.1615162E-001  0.1858441E+03  0.7818608E-02  0.1162366E+00
         21   -1    0    0  501  502  0.00000000000E+00  0.00000000000E+00  0.18836580553E+03  0.18836580553E+03  0.00000000000E+00 0. -1.
         21   -1    0    0  502  503 -0.00000000000E+00 -0.00000000000E+00 -0.20819494110E+03  0.20819494110E+03  0.00000000000E+00 0. -1.
         -6    2    1    2    0  503  0.77837689677E+01 -0.70036195424E+02 -0.78983045415E+02  0.20152941635E+03  0.17149381465E+03 0.  0.
        -24    2    3    3    0    0  0.56048985201E+02 -0.87818103970E+02 -0.43300771123E+02  0.13875169683E+03  0.80768610645E+02 0.  0.
          6    2    1    2  501    0 -0.77837689677E+01  0.70036195424E+02  0.59153909848E+02  0.19503133028E+03  0.17196621474E+03 0.  0.
         24    2    5    5    0    0  0.13112223206E+02  0.10538463059E+03  0.14139197575E+02  0.13392021281E+03  0.80354562594E+02 0.  0.
          5    1    5    5  501    0 -0.20895992174E+02 -0.35348435163E+02  0.45014712272E+02  0.61111117470E+02  0.47000000000E+01 0. -1.
        -13    1    6    6    0    0  0.22266223699E+02  0.44715416153E+02 -0.30062051466E+02  0.58300772704E+02  0.00000000000E+00 0.  1.
         14    1    6    6    0    0 -0.91540004929E+01  0.60669214434E+02  0.44201249042E+02  0.75619440106E+02  0.00000000000E+00 0. -1.
         -5    1    3    3    0  503 -0.48265216234E+02  0.17781908546E+02 -0.35682274292E+02  0.62777719521E+02  0.47000000000E+01 0.  1.
         13    1    4    4    0    0 -0.19966157875E+02 -0.27700248904E+02 -0.17948371967E+02  0.38575838370E+02  0.00000000000E+00 0. -1.
        -14    1    4    4    0    0  0.76015143077E+02 -0.60117855066E+02 -0.25352399155E+02  0.10017585846E+03  0.00000000000E+00 0.  1.
</event>
<event>
12    1  0.1615162E-001  0.2730768E+03  0.7818608E-02  0.1099639E+00
         21   -1    0    0  501  502  0.00000000000E+00  0.00000000000E+00  0.29496085142E+03  0.29496085142E+03  0.00000000000E+00 0.  1.
         21   -1    0    0  502  503 -0.00000000000E+00 -0.00000000000E+00 -0.29472338614E+03  0.29472338614E+03  0.00000000000E+00 0.  1.
         -6    2    1    2    0  503  0.15235442838E+03  0.14803077016E+03 -0.11199464287E+03  0.29515036033E+03  0.17159823546E+03 0.  0.
        -24    2    3    3    0    0  0.27008754070E+02  0.19830379652E+02 -0.67745464770E+02  0.11041552886E+03  0.80494871041E+02 0.  0.
          6    2    1    2  501    0 -0.15235442838E+03 -0.14803077016E+03  0.11223210814E+03  0.29453387723E+03  0.17037951161E+03 0.  0.
         24    2    5    5    0    0 -0.11101474724E+03 -0.64892039686E+02  0.13019635193E+03  0.19984585372E+03  0.80324493619E+02 0.  0.
          5    1    5    5  501    0 -0.41339681146E+02 -0.83138730472E+02 -0.17964243785E+02  0.94688023511E+02  0.47000000000E+01 0. -1.
        -13    1    6    6    0    0 -0.46177880854E+02 -0.16749073584E+02  0.30434451147E+01  0.49215756666E+02  0.00000000000E+00 0.  1.
         14    1    6    6    0    0 -0.64836866384E+02 -0.48142966101E+02  0.12715290681E+03  0.15063009705E+03  0.00000000000E+00 0. -1.
         -5    1    3    3    0  503  0.12534567431E+03  0.12820039051E+03 -0.44249178097E+02  0.18473483147E+03  0.47000000000E+01 0.  1.
         11    1    4    4    0    0  0.46293939152E+02  0.37829772157E+02 -0.38898917645E+02  0.71325635346E+02  0.00000000000E+00 0. -1.
        -12    1    4    4    0    0 -0.19285185082E+02 -0.17999392505E+02 -0.28846547125E+02  0.39089893518E+02  0.00000000000E+00 0.  1.
</event>
<event>
12    1  0.1615162E-001  0.1868952E+03  0.7818608E-02  0.1161631E+00
         21   -1    0    0  503  502  0.00000000000E+00  0.00000000000E+00  0.15415056229E+03  0.15415056229E+03  0.00000000000E+00 0.  1.
         21   -1    0    0  501  503 -0.00000000000E+00 -0.00000000000E+00 -0.22482399977E+03  0.22482399977E+03  0.00000000000E+00 0. -1.
          6    2    1    2  501    0 -0.72395530804E+02  0.42794259396E+01 -0.34953539330E+02  0.19013566347E+03  0.17225096297E+03 0.  0.
         24    2    3    3    0    0  0.13664979381E+01  0.67480643372E+01  0.35328251382E+02  0.88113356274E+02  0.80426827112E+02 0.  0.
         -6    2    1    2    0  502  0.72395530804E+02 -0.42794259396E+01 -0.35719898143E+02  0.18883889859E+03  0.17065987264E+03 0.  0.
        -24    2    5    5    0    0  0.54492948224E+02  0.48849286818E+02 -0.64514594857E+02  0.12563773451E+03  0.79164216372E+02 0.  0.
          5    1    3    3  501    0 -0.73762028742E+02 -0.24686383977E+01 -0.70281790713E+02  0.10202230720E+03  0.47000000000E+01 0. -1.
        -11    1    4    4    0    0 -0.30153671270E+02  0.28891175764E+02  0.22958320923E+02  0.47655308495E+02  0.00000000000E+00 0.  1.
         12    1    4    4    0    0  0.31520169208E+02 -0.22143111427E+02  0.12369930459E+02  0.40458047780E+02  0.00000000000E+00 0. -1.
         -5    1    5    5    0  502  0.17902582580E+02 -0.53128712757E+02  0.28794696714E+02  0.63201164080E+02  0.47000000000E+01 0.  1.
         13    1    6    6    0    0  0.73322426346E+02  0.49240130045E+02 -0.47643984687E+02  0.10035296652E+03  0.00000000000E+00 0. -1.
        -14    1    6    6    0    0 -0.18829478122E+02 -0.39084322769E+00 -0.16870610170E+02  0.25284767989E+02  0.00000000000E+00 0.  1.
</event>
<event>
12    1  0.1615162E-001  0.1837826E+03  0.7818608E-02  0.1164560E+00
         21   -1    0    0  501  502  0.00000000000E+00  0.00000000000E+00  0.14629705279E+03  0.14629705279E+03  0.00000000000E+00 0.  1.
         21   -1    0    0  502  503 -0.00000000000E+00 -0.00000000000E+00 -0.48930599294E+03  0.48930599294E+03  0.00000000000E+00 0.  1.
         -6    2    1    2    0  503  0.64372569283E+02 -0.13487675580E+02 -0.40299470170E+03  0.44227860718E+03  0.16994084766E+03 0.  0.
        -24    2    3    3    0    0  0.10418596805E+03 -0.24807029359E+01 -0.33959080115E+03  0.36646037208E+03  0.90057882805E+02 0.  0.
          6    2    1    2  501    0 -0.64372569283E+02  0.13487675580E+02  0.59985761548E+02  0.19332443856E+03  0.17161090259E+03 0.  0.
         24    2    5    5    0    0 -0.84489782436E+02 -0.37317805259E+02  0.64392480464E+02  0.13830254910E+03  0.80312275653E+02 0.  0.
          5    1    5    5  501    0  0.20117213154E+02  0.50805480839E+02 -0.44067189160E+01  0.55021889462E+02  0.47000000000E+01 0. -1.
        -11    1    6    6    0    0 -0.55457125945E+02  0.11273251715E+02  0.58499764313E+02  0.81392883270E+02  0.00000000000E+00 0.  1.
         12    1    6    6    0    0 -0.29032656492E+02 -0.48591056974E+02  0.58927161514E+01  0.56909665826E+02  0.00000000000E+00 0. -1.
         -5    1    3    3    0  503 -0.39813398769E+02 -0.11006972644E+02 -0.63403900547E+02  0.75818235095E+02  0.47000000000E+01 0.  1.
         11    1    4    4    0    0  0.80400986969E+02 -0.27281738275E+02 -0.13848480496E+03  0.16243969082E+03  0.00000000000E+00 0. -1.
        -12    1    4    4    0    0  0.23784981083E+02  0.24801035339E+02 -0.20110599620E+03  0.20402068127E+03  0.00000000000E+00 0.  1.
</event>
<event>
12    1  0.1615162E-001  0.1828893E+03  0.7818608E-02  0.1165431E+00
         21   -1    0    0  503  502  0.00000000000E+00  0.00000000000E+00  0.20492733146E+03  0.20492733146E+03  0.00000000000E+00 0.  1.
         21   -1    0    0  501  503 -0.00000000000E+00 -0.00000000000E+00 -0.27905281621E+03  0.27905281621E+03  0.00000000000E+00 0.  1.
          6    2    1    2  501    0  0.50346722943E+02 -0.30526830601E+02 -0.19406012423E+03  0.26666050697E+03  0.17315257510E+03 0.  0.
         24    2    3    3    0    0 -0.35927147951E+02 -0.46754874457E+02 -0.12752595079E+03  0.15640890180E+03  0.68732075425E+02 0.  0.
         -6    2    1    2    0  502 -0.50346722943E+02  0.30526830601E+02  0.11993463948E+03  0.21731964070E+03  0.17139669947E+03 0.  0.
        -24    2    5    5    0    0 -0.24235901686E+02  0.41576240612E+02  0.14949831792E+03  0.17608900243E+03  0.79634333064E+02 0.  0.
          5    1    3    3  501    0  0.86273870894E+02  0.16228043856E+02 -0.66534173444E+02  0.11025160517E+03  0.47000000000E+01 0. -1.
        -11    1    4    4    0    0 -0.89855791395E+01 -0.14821727008E+02  0.45187112934E+01  0.17912090211E+02  0.00000000000E+00 0.  1.
         12    1    4    4    0    0 -0.26941568812E+02 -0.31933147449E+02 -0.13204466208E+03  0.13849681159E+03  0.00000000000E+00 0. -1.
         -5    1    5    5    0  502 -0.26110821257E+02 -0.11049410011E+02 -0.29563678444E+02  0.41230638262E+02  0.47000000000E+01 0.  1.
         13    1    6    6    0    0 -0.27823823446E+02  0.37904691505E+02  0.28503381966E+02  0.54985212310E+02  0.00000000000E+00 0. -1.
        -14    1    6    6    0    0  0.35879217598E+01  0.36715491070E+01  0.12099493596E+03  0.12110379012E+03  0.00000000000E+00 0.  1.
</event>
<event>
12    1  0.1615162E-001  0.5269626E+03  0.7818608E-02  0.1006975E+00
         21   -1    0    0  503  502  0.00000000000E+00  0.00000000000E+00  0.76732684394E+03  0.76732684394E+03  0.00000000000E+00 0. -1.
         21   -1    0    0  501  503 -0.00000000000E+00 -0.00000000000E+00 -0.74926807052E+03  0.74926807052E+03  0.00000000000E+00 0.  1.
          6    2    1    2  501    0 -0.11587711922E+03 -0.48443461751E+03  0.55429455556E+03  0.76477155325E+03  0.17183907862E+03 0.  0.
         24    2    3    3    0    0 -0.13809447906E+03 -0.44315007341E+03  0.45404989978E+03  0.65400555814E+03  0.78165759027E+02 0.  0.
         -6    2    1    2    0  502  0.11587711922E+03  0.48443461751E+03 -0.53623578215E+03  0.75182336121E+03  0.17200333427E+03 0.  0.
        -24    2    5    5    0    0  0.14585603010E+01  0.12665412874E+03 -0.12376411999E+03  0.19392243196E+03  0.79025037145E+02 0.  0.
          5    1    3    3  501    0  0.22217359844E+02 -0.41284544107E+02  0.10024465578E+03  0.11076599511E+03  0.47000000000E+01 0. -1.
        -11    1    4    4    0    0 -0.33868465241E+02 -0.32179702316E+02  0.45926972445E+02  0.65512540608E+02  0.00000000000E+00 0.  1.
         12    1    4    4    0    0 -0.10422601382E+03 -0.41097037109E+03  0.40812292733E+03  0.58849301753E+03  0.00000000000E+00 0. -1.
         -5    1    5    5    0  502  0.11441855892E+03  0.35778048877E+03 -0.41247166216E+03  0.55790092925E+03  0.47000000000E+01 0.  1.
         13    1    6    6    0    0  0.12319523618E+02  0.77012411222E+01  0.75794745232E+01  0.16386830415E+02  0.00000000000E+00 0. -1.
        -14    1    6    6    0    0 -0.10860963317E+02  0.11895288762E+03 -0.13134359451E+03  0.17753560154E+03  0.00000000000E+00 0.  1.
</event>
<event>
12    1  0.1615162E-001  0.2496048E+03  0.7818608E-02  0.1113610E+00
         21   -1    0    0  503  502  0.00000000000E+00  0.00000000000E+00  0.42513531591E+02  0.42513531591E+02  0.00000000000E+00 0. -1.
         21   -1    0    0  501  503 -0.00000000000E+00 -0.00000000000E+00 -0.14682631653E+04  0.14682631653E+04  0.00000000000E+00 0.  1.
          6    2    1    2  501    0  0.76915917470E+02 -0.16303965594E+03 -0.75568536162E+03  0.79573217422E+03  0.17213755999E+03 0.  0.
         24    2    3    3    0    0  0.75805091764E+01 -0.15266645101E+02 -0.19371143182E+03  0.21051336954E+03  0.80630176529E+02 0.  0.
         -6    2    1    2    0  502 -0.76915917470E+02  0.16303965594E+03 -0.67006427212E+03  0.71504452270E+03  0.17263995164E+03 0.  0.
        -24    2    5    5    0    0 -0.84021998199E+02  0.14700263542E+03 -0.35754578090E+03  0.40199887146E+03  0.71376720359E+02 0.  0.
          5    1    3    3  501    0  0.69335408293E+02 -0.14777301084E+03 -0.56197392980E+03  0.58521880468E+03  0.47000000000E+01 0. -1.
        -13    1    4    4    0    0  0.33554471284E+02  0.12987044056E+02 -0.13967489841E+03  0.14423468065E+03  0.00000000000E+00 0.  1.
         14    1    4    4    0    0 -0.25973962107E+02 -0.28253689157E+02 -0.54036533408E+02  0.66278688892E+02  0.00000000000E+00 0. -1.
         -5    1    5    5    0  502  0.71060807297E+01  0.16037020522E+02 -0.31251849122E+03  0.31304565125E+03  0.47000000000E+01 0.  1.
         13    1    6    6    0    0 -0.43112981581E+02  0.79220613488E+02 -0.11082883290E+03  0.14289039500E+03  0.00000000000E+00 0. -1.
        -14    1    6    6    0    0 -0.40909016618E+02  0.67782021927E+02 -0.24671694800E+03  0.25910847645E+03  0.00000000000E+00 0.  1.
</event>
<event>
12    1  0.1615162E-001  0.2203108E+03  0.7818608E-02  0.1134569E+00
         21   -1    0    0  503  502  0.00000000000E+00  0.00000000000E+00  0.38157344946E+03  0.38157344946E+03  0.00000000000E+00 0. -1.
         21   -1    0    0  501  503 -0.00000000000E+00 -0.00000000000E+00 -0.20920191280E+03  0.20920191280E+03  0.00000000000E+00 0. -1.
          6    2    1    2  501    0  0.93122979396E+02  0.90250286440E+02 -0.10129563553E+03  0.24248230737E+03  0.17810070217E+03 0.  0.
         24    2    3    3    0    0  0.42503476686E+02 -0.26767161920E+02 -0.21140919638E+02  0.91809530281E+02  0.73885214215E+02 0.  0.
         -6    2    1    2    0  502 -0.93122979396E+02 -0.90250286440E+02  0.27366717219E+03  0.34829305490E+03  0.17203873826E+03 0.  0.
        -24    2    5    5    0    0 -0.55596678079E+02 -0.12245475172E+03  0.16200606633E+03  0.22608158475E+03  0.82345373903E+02 0.  0.
          5    1    3    3  501    0  0.50619502710E+02  0.11701744836E+03 -0.80154715894E+02  0.15067277709E+03  0.47000000000E+01 0. -1.
        -13    1    4    4    0    0  0.16165590093E+02 -0.35490159349E+02 -0.41838051198E+02  0.57195281638E+02  0.00000000000E+00 0.  1.
         14    1    4    4    0    0  0.26337886593E+02  0.87229974290E+01  0.20697131559E+02  0.34614248643E+02  0.00000000000E+00 0. -1.
         -5    1    5    5    0  502 -0.37526301317E+02  0.32204465276E+02  0.11166110586E+03  0.12221147015E+03  0.47000000000E+01 0.  1.
         13    1    6    6    0    0 -0.47007088497E+02 -0.20047432173E+02  0.78479643436E+02  0.93651590160E+02  0.00000000000E+00 0. -1.
        -14    1    6    6    0    0 -0.85895895823E+01 -0.10240731954E+03  0.83526422898E+02  0.13242999459E+03  0.00000000000E+00 0.  1.
</event>
<event>
12    1  0.1615162E-001  0.1735856E+03  0.7818608E-02  0.1174687E+00
         21   -1    0    0  503  502  0.00000000000E+00  0.00000000000E+00  0.81486176012E+03  0.81486176012E+03  0.00000000000E+00 0.  1.
         21   -1    0    0  501  503 -0.00000000000E+00 -0.00000000000E+00 -0.37719408275E+02  0.37719408275E+02  0.00000000000E+00 0.  1.
          6    2    1    2  501    0  0.10142313928E+02 -0.13297569490E+02  0.31091655816E+03  0.35508902204E+03  0.17070271101E+03 0.  0.
         24    2    3    3    0    0  0.13318687426E+02  0.51665098125E+02  0.23485238939E+03  0.25489877649E+03  0.83492943741E+02 0.  0.
         -6    2    1    2    0  502 -0.10142313928E+02  0.13297569490E+02  0.46622579369E+03  0.49749214636E+03  0.17277804578E+03 0.  0.
        -24    2    5    5    0    0 -0.65069554982E+02  0.23705482979E+02  0.21336665607E+03  0.23848411569E+03  0.80952743050E+02 0.  0.
          5    1    3    3  501    0 -0.31763734981E+01 -0.64962667615E+02  0.76064168773E+02  0.10019024555E+03  0.47000000000E+01 0. -1.
        -13    1    4    4    0    0  0.45538032634E+01 -0.93993012358E+01 -0.15688835099E+01  0.10561504786E+02  0.00000000000E+00 0.  1.
         14    1    4    4    0    0  0.87648841629E+01  0.61064399361E+02  0.23642127290E+03  0.24433727170E+03  0.00000000000E+00 0. -1.
         -5    1    5    5    0  502  0.54927241054E+02 -0.10407913489E+02  0.25285913761E+03  0.25900803066E+03  0.47000000000E+01 0.  1.
         13    1    6    6    0    0 -0.21050555000E+02  0.28673241546E+02  0.21485920635E+02  0.41556292329E+02  0.00000000000E+00 0. -1.
        -14    1    6    6    0    0 -0.44018999982E+02 -0.49677585673E+01  0.19188073544E+03  0.19692782337E+03  0.00000000000E+00 0.  1.
</event>
<event>
12    1  0.1615162E-001  0.1986423E+03  0.7818608E-02  0.1151697E+00
         21   -1    0    0  503  502  0.00000000000E+00  0.00000000000E+00  0.37215541402E+03  0.37215541402E+03  0.00000000000E+00 0.  1.
         21   -1    0    0  501  503 -0.00000000000E+00 -0.00000000000E+00 -0.10827563216E+03  0.10827563216E+03  0.00000000000E+00 0.  1.
          6    2    1    2  501    0 -0.21425992926E+02  0.89010636909E+02  0.17828002283E+03  0.26413013597E+03  0.17204358613E+03 0.  0.
         24    2    3    3    0    0 -0.62219219696E+02  0.72996608735E+02  0.61288687943E+02  0.13911174177E+03  0.79975228928E+02 0.  0.
         -6    2    1    2    0  502  0.21425992926E+02 -0.89010636909E+02  0.85599759031E+02  0.21630091021E+03  0.17628612639E+03 0.  0.
        -24    2    5    5    0    0  0.24685511279E+02  0.16114508937E+02  0.74229949602E+02  0.11040811860E+03  0.76228704371E+02 0.  0.
          5    1    3    3  501    0  0.40793226770E+02  0.16014028174E+02  0.11699133489E+03  0.12501839420E+03  0.47000000000E+01 0. -1.
        -11    1    4    4    0    0 -0.98069974956E+01  0.14444494458E+02  0.57878137869E+02  0.60454110392E+02  0.00000000000E+00 0.  1.
         12    1    4    4    0    0 -0.52412222200E+02  0.58552114277E+02  0.34105500738E+01  0.78657631378E+02  0.00000000000E+00 0. -1.
         -5    1    5    5    0  502 -0.32595183526E+01 -0.10512514585E+03  0.11369809429E+02  0.10589279161E+03  0.47000000000E+01 0.  1.
         13    1    6    6    0    0  0.72617963735E+01  0.45895950871E+02  0.35068797559E+02  0.58215054368E+02  0.00000000000E+00 0. -1.
        -14    1    6    6    0    0  0.17423714905E+02 -0.29781441934E+02  0.39161152043E+02  0.52193064234E+02  0.00000000000E+00 0.  1.
</event>
<event>
12    1  0.1615162E-001  0.1778878E+03  0.7818608E-02  0.1170024E+00
         21   -1    0    0  503  502  0.00000000000E+00  0.00000000000E+00  0.65177592106E+02  0.65177592106E+02  0.00000000000E+00 0.  1.
         21   -1    0    0  501  503 -0.00000000000E+00 -0.00000000000E+00 -0.50504745320E+03  0.50504745320E+03  0.00000000000E+00 0.  1.
          6    2    1    2  501    0  0.33931567579E+02  0.27096254098E+02 -0.27890080919E+03  0.33080162338E+03  0.17250650539E+03 0.  0.
         24    2    3    3    0    0  0.38914163362E+02  0.80757274032E+02 -0.21980541358E+03  0.25068491412E+03  0.80575783633E+02 0.  0.
         -6    2    1    2    0  502 -0.33931567579E+02 -0.27096254098E+02 -0.16096905191E+03  0.23942342193E+03  0.17183416724E+03 0.  0.
        -24    2    5    5    0    0  0.11098397125E+02 -0.32478042916E+02 -0.17170439098E+03  0.19258328020E+03  0.80174336540E+02 0.  0.
          5    1    3    3  501    0 -0.49825957828E+01 -0.53661019934E+02 -0.59095395602E+02  0.80116709259E+02  0.47000000000E+01 0. -1.
        -11    1    4    4    0    0  0.35271490290E+02  0.19214352342E+01 -0.10948397191E+03  0.11504134060E+03  0.00000000000E+00 0.  1.
         12    1    4    4    0    0  0.36426730723E+01  0.78835838798E+02 -0.11032144167E+03  0.13564357352E+03  0.00000000000E+00 0. -1.
         -5    1    5    5    0  502 -0.45029964704E+02  0.53817888172E+01  0.10735339072E+02  0.46840141728E+02  0.47000000000E+01 0.  1.
         11    1    6    6    0    0  0.88007261945E+01  0.25741738005E+02 -0.73781966121E+02  0.78637576144E+02  0.00000000000E+00 0. -1.
        -12    1    6    6    0    0  0.22976709300E+01 -0.58219780921E+02 -0.97922424862E+02  0.11394570406E+03  0.00000000000E+00 0.  1.
</event>
<event>
12    1  0.1615162E-001  0.2282156E+03  0.7818608E-02  0.1127994E+00
         21   -1    0    0  503  502  0.00000000000E+00  0.00000000000E+00  0.10898317088E+03  0.10898317088E+03  0.00000000000E+00 0.  1.
         21   -1    0    0  501  503 -0.00000000000E+00 -0.00000000000E+00 -0.59981887889E+03  0.59981887889E+03  0.00000000000E+00 0.  1.
          6    2    1    2  501    0  0.99255544145E+02  0.11180298309E+03 -0.40612925780E+03  0.46585763875E+03  0.17242620298E+03 0.  0.
         24    2    3    3    0    0  0.56391126234E+02  0.51557859870E+02 -0.36525094571E+03  0.38124109431E+03  0.78091911319E+02 0.  0.
         -6    2    1    2    0  502 -0.99255544145E+02 -0.11180298309E+03 -0.84706450218E+02  0.24294441102E+03  0.17174176564E+03 0.  0.
        -24    2    5    5    0    0 -0.93135389834E+02 -0.11023455911E+02 -0.25092811858E+02  0.12559942704E+03  0.79685942583E+02 0.  0.
          5    1    3    3  501    0  0.42864417911E+02  0.60245123219E+02 -0.40878312083E+02  0.84616544441E+02  0.47000000000E+01 0. -1.
        -11    1    4    4    0    0  0.52327577521E+02  0.65492536701E+02 -0.22273839682E+03  0.23799126276E+03  0.00000000000E+00 0.  1.
         12    1    4    4    0    0  0.40635487128E+01 -0.13934676831E+02 -0.14251254889E+03  0.14324983155E+03  0.00000000000E+00 0. -1.
         -5    1    5    5    0  502 -0.61201543110E+01 -0.10077952718E+03 -0.59613638360E+02  0.11734498398E+03  0.47000000000E+01 0.  1.
         13    1    6    6    0    0 -0.26695473830E+02 -0.21322094235E+02 -0.44048106501E+02  0.55745095855E+02  0.00000000000E+00 0. -1.
        -14    1    6    6    0    0 -0.66439916003E+02  0.10298638325E+02  0.18955294643E+02  0.69854331182E+02  0.00000000000E+00 0.  1.
</event>
<event>
12    1  0.1615162E-001  0.1799173E+03  0.7818608E-02  0.1168007E+00
         21   -1    0    0  503  502  0.00000000000E+00  0.00000000000E+00  0.54692874602E+03  0.54692874602E+03  0.00000000000E+00 0. -1.
         21   -1    0    0  501  503 -0.00000000000E+00 -0.00000000000E+00 -0.69590892431E+02  0.69590892431E+02  0.00000000000E+00 0. -1.
          6    2    1    2  501    0  0.34020158014E+02  0.39721623603E+02  0.11822531829E+03  0.21485801439E+03  0.17161457377E+03 0.  0.
         24    2    3    3    0    0 -0.41768154490E+02  0.16682503440E+02  0.93700952271E+02  0.13180258772E+03  0.81050410387E+02 0.  0.
         -6    2    1    2    0  502 -0.34020158014E+02 -0.39721623603E+02  0.35911253529E+03  0.40166162405E+03  0.17214839151E+03 0.  0.
        -24    2    5    5    0    0 -0.48418866218E+02  0.19957366863E+02  0.30831707562E+03  0.32184199349E+03  0.76027406583E+02 0.  0.
          5    1    3    3  501    0  0.75788312505E+02  0.23039120163E+02  0.24524366020E+02  0.83055426667E+02  0.47000000000E+01 0. -1.
        -13    1    4    4    0    0 -0.87882966604E+01 -0.70699277524E+00  0.94104701854E+02  0.94516818123E+02  0.00000000000E+00 0.  1.
         14    1    4    4    0    0 -0.32979857830E+02  0.17389496216E+02 -0.40374958318E+00  0.37285769602E+02  0.00000000000E+00 0. -1.
         -5    1    5    5    0  502  0.14398708204E+02 -0.59678990467E+02  0.50795459670E+02  0.79819630569E+02  0.47000000000E+01 0.  1.
         13    1    6    6    0    0 -0.48939331416E+02 -0.31254020623E+01  0.28440694383E+03  0.28860376989E+03  0.00000000000E+00 0. -1.
        -14    1    6    6    0    0  0.52046519759E+00  0.23082768926E+02  0.23910131798E+02  0.33238223597E+02  0.00000000000E+00 0.  1.
</event>
<event>
12    1  0.1615162E-001  0.1751620E+03  0.7818608E-02  0.1173731E+00
         21   -1    0    0  503  502  0.00000000000E+00  0.00000000000E+00  0.34787283604E+02  0.34787283604E+02  0.00000000000E+00 0.  1.
         21   -1    0    0  501  503 -0.00000000000E+00 -0.00000000000E+00 -0.88168832655E+03  0.88168832655E+03  0.00000000000E+00 0.  1.
          6    2    1    2  501    0 -0.11832186744E+02 -0.96100836408E+01 -0.50218608391E+03  0.53185767452E+03  0.17449747484E+03 0.  0.
         24    2    3    3    0    0 -0.31577351562E+02 -0.71768207648E+01 -0.10588606420E+03  0.13503077533E+03  0.77283994501E+02 0.  0.
         -6    2    1    2    0  502  0.11832186744E+02  0.96100836408E+01 -0.34471495904E+03  0.38461793563E+03  0.16991232761E+03 0.  0.
        -24    2    5    5    0    0  0.21381952682E+02  0.31543766236E+02 -0.34883874101E+03  0.35989183526E+03  0.79884095840E+02 0.  0.
          5    1    3    3  501    0  0.19745164818E+02 -0.24332628760E+01 -0.39630001971E+03  0.39682689919E+03  0.47000000000E+01 0. -1.
        -11    1    4    4    0    0 -0.70568651152E+01 -0.22905182170E+02 -0.10300570494E+03  0.10575737311E+03  0.00000000000E+00 0.  1.
         12    1    4    4    0    0 -0.24520486447E+02  0.15728361405E+02 -0.28803592536E+01  0.29273402220E+02  0.00000000000E+00 0. -1.
         -5    1    5    5    0  502 -0.95497659372E+01 -0.21933682595E+02  0.41237819767E+01  0.24726100368E+02  0.47000000000E+01 0.  1.
         13    1    6    6    0    0  0.10993524442E+02 -0.26944179285E+02 -0.11631571252E+03  0.11990075628E+03  0.00000000000E+00 0. -1.
        -14    1    6    6    0    0  0.10388428239E+02  0.58487945521E+02 -0.23252302850E+03  0.23999107899E+03  0.00000000000E+00 0.  1.
</event>
<event>
12    1  0.1615162E-001  0.2197108E+03  0.7818608E-02  0.1136894E+00
         21   -1    0    0  501  502  0.00000000000E+00  0.00000000000E+00  0.56127168652E+03  0.56127168652E+03  0.00000000000E+00 0.  1.
         21   -1    0    0  502  503 -0.00000000000E+00 -0.00000000000E+00 -0.10907113900E+03  0.10907113900E+03  0.00000000000E+00 0. -1.
         -6    2    1    2    0  503  0.96126660975E+01 -0.12909570685E+03  0.60138244385E+02  0.22779249900E+03  0.17752382738E+03 0.  0.
        -24    2    3    3    0    0 -0.45041410924E+02 -0.10184533932E+03 -0.90877379515E+01  0.13535886175E+03  0.76408328301E+02 0.  0.
          6    2    1    2  501    0 -0.96126660975E+01  0.12909570685E+03  0.39206230314E+03  0.44255032651E+03  0.15931050523E+03 0.  0.
         24    2    5    5    0    0  0.35610276215E+02  0.14474195078E+03  0.29548382687E+03  0.33466422204E+03  0.49710416224E+02 0.  0.
          5    1    5    5  501    0 -0.45222942312E+02 -0.15646243929E+02  0.96578476264E+02  0.10788610447E+03  0.47000000000E+01 0. -1.
        -13    1    6    6    0    0  0.11422347103E+02  0.49115780263E+02  0.15510344689E+03  0.16309478569E+03  0.00000000000E+00 0.  1.
         14    1    6    6    0    0  0.24187929112E+02  0.95626170519E+02  0.14038037998E+03  0.17156943634E+03  0.00000000000E+00 0. -1.
         -5    1    3    3    0  503  0.54654077022E+02 -0.27250367534E+02  0.69225982337E+02  0.92433637256E+02  0.47000000000E+01 0.  1.
         11    1    4    4    0    0  0.16379872238E+02 -0.56001148649E+02 -0.18933491141E+01  0.58378194862E+02  0.00000000000E+00 0. -1.
        -12    1    4    4    0    0 -0.61421283163E+02 -0.45844190670E+02 -0.71943888374E+01  0.76980666887E+02  0.00000000000E+00 0.  1.
</event>
<event>
12    1  0.1615162E-001  0.1936327E+03  0.7818608E-02  0.1157822E+00
         21   -1    0    0  503  502  0.00000000000E+00  0.00000000000E+00  0.59405725169E+02  0.59405725169E+02  0.00000000000E+00 0.  1.
         21   -1    0    0  501  503 -0.00000000000E+00 -0.00000000000E+00 -0.16331224746E+04  0.16331224746E+04  0.00000000000E+00 0.  1.
          6    2    1    2  501    0 -0.15889190819E+02 -0.56616958766E+02 -0.14529312520E+04  0.14643117010E+04  0.17245749726E+03 0.  0.
         24    2    3    3    0    0  0.51109840881E+02 -0.52370191799E+02 -0.67317777326E+03  0.68165949036E+03  0.78335774468E+02 0.  0.
         -6    2    1    2    0  502  0.15889190819E+02  0.56616958766E+02 -0.12078549747E+03  0.22821649876E+03  0.18448763510E+03 0.  0.
        -24    2    5    5    0    0  0.42579076731E+02  0.27700024014E+02 -0.15070423092E+03  0.17856008189E+03  0.81189091133E+02 0.  0.
          5    1    3    3  501    0 -0.66999031699E+02 -0.42467669669E+01 -0.77975347872E+03  0.78265221066E+03  0.47000000000E+01 0. -1.
        -13    1    4    4    0    0 -0.43302422408E+01 -0.48657397196E+02 -0.23903723640E+03  0.24397764997E+03  0.00000000000E+00 0.  1.
         14    1    4    4    0    0  0.55440083122E+02 -0.37127946034E+01 -0.43414053686E+03  0.43768184039E+03  0.00000000000E+00 0. -1.
         -5    1    5    5    0  502 -0.26689885913E+02  0.28916934752E+02  0.29918733457E+02  0.49656416878E+02  0.47000000000E+01 0.  1.
         13    1    6    6    0    0  0.57582932865E+02 -0.66468130457E+01 -0.98582648235E+02  0.11436132569E+03  0.00000000000E+00 0. -1.
        -14    1    6    6    0    0 -0.15003856133E+02  0.34346837060E+02 -0.52121582688E+02  0.64198756194E+02  0.00000000000E+00 0.  1.
</event>
<event>
12    1  0.1615162E-001  0.3019107E+03  0.7818608E-02  0.1084396E+00
         21   -1    0    0  503  502  0.00000000000E+00  0.00000000000E+00  0.80636439378E+03  0.80636439378E+03  0.00000000000E+00 0. -1.
         21   -1    0    0  501  503 -0.00000000000E+00 -0.00000000000E+00 -0.11484090003E+03  0.11484090003E+03  0.00000000000E+00 0. -1.
          6    2    1    2  501    0 -0.24536886883E+03 -0.30794284680E+02  0.28263669739E+03  0.41293517975E+03  0.17169097297E+03 0.  0.
         24    2    3    3    0    0 -0.16494126583E+03 -0.75662620056E+01  0.92566573531E+02  0.20519283369E+03  0.79200119752E+02 0.  0.
         -6    2    1    2    0  502  0.24536886883E+03  0.30794284680E+02  0.40888679636E+03  0.50827011406E+03  0.17319332219E+03 0.  0.
        -24    2    5    5    0    0  0.22427684067E+03  0.75395683773E+02  0.31122028931E+03  0.39874844931E+03  0.78470675725E+02 0.  0.
          5    1    3    3  501    0 -0.80427603006E+02 -0.23228022674E+02  0.19007012385E+03  0.20774234606E+03  0.47000000000E+01 0. -1.
        -11    1    4    4    0    0 -0.30940733561E+02 -0.34586919420E+02  0.22061694252E+02  0.51383872387E+02  0.00000000000E+00 0.  1.
         12    1    4    4    0    0 -0.13400053227E+03  0.27020657414E+02  0.70504879279E+02  0.15380896130E+03  0.00000000000E+00 0. -1.
         -5    1    5    5    0  502  0.21092028159E+02 -0.44601399093E+02  0.97666507047E+02  0.10952166476E+03  0.47000000000E+01 0.  1.
         11    1    6    6    0    0  0.16094286548E+03  0.58189808174E+02  0.27468059881E+03  0.32363264836E+03  0.00000000000E+00 0. -1.
        -12    1    6    6    0    0  0.63333975199E+02  0.17205875598E+02  0.36539690507E+02  0.75115800947E+02  0.00000000000E+00 0.  1.
</event>
<event>
12    1  0.1615162E-001  0.1741390E+03  0.7818608E-02  0.1173608E+00
         21   -1    0    0  501  502  0.00000000000E+00  0.00000000000E+00  0.30002529297E+02  0.30002529297E+02  0.00000000000E+00 0. -1.
         21   -1    0    0  502  503 -0.00000000000E+00 -0.00000000000E+00 -0.15306274336E+04  0.15306274336E+04  0.00000000000E+00 0. -1.
         -6    2    1    2    0  503  0.26034761061E+02 -0.56179409804E+01 -0.12051275117E+04  0.12176385728E+04  0.17205233092E+03 0.  0.
        -24    2    3    3    0    0  0.57072718056E+02 -0.35676187765E+02 -0.46766912755E+03  0.47890058727E+03  0.78110652959E+02 0.  0.
          6    2    1    2  501    0 -0.26034761061E+02  0.56179409804E+01 -0.29549739263E+03  0.34299139008E+03  0.17209013503E+03 0.  0.
         24    2    5    5    0    0 -0.72183318118E+02 -0.16951538316E+02 -0.25671286634E+03  0.27845147845E+03  0.78332266902E+02 0.  0.
          5    1    5    5  501    0  0.46148557057E+02  0.22569479297E+02 -0.38784526284E+02  0.64539911630E+02  0.47000000000E+01 0. -1.
        -13    1    6    6    0    0 -0.94885779461E+01 -0.33371548843E+02 -0.14688983765E+03  0.15093150031E+03  0.00000000000E+00 0.  1.
         14    1    6    6    0    0 -0.62694740172E+02  0.16420010526E+02 -0.10982302870E+03  0.12751997813E+03  0.00000000000E+00 0. -1.
         -5    1    3    3    0  503 -0.31037956995E+02  0.30058246784E+02 -0.73745838411E+03  0.73873798554E+03  0.47000000000E+01 0.  1.
         13    1    4    4    0    0  0.75701878346E+02 -0.21222432167E+02 -0.38439196994E+03  0.39234978344E+03  0.00000000000E+00 0. -1.
        -14    1    4    4    0    0 -0.18629160290E+02 -0.14453755598E+02 -0.83277157607E+02  0.86550803827E+02  0.00000000000E+00 0.  1.
</event>
<event>
12    1  0.1615162E-001  0.1955336E+03  0.7818608E-02  0.1153765E+00
         21   -1    0    0  501  502  0.00000000000E+00  0.00000000000E+00  0.99690071208E+02  0.99690071208E+02  0.00000000000E+00 0.  1.
         21   -1    0    0  502  503 -0.00000000000E+00 -0.00000000000E+00 -0.50468924918E+03  0.50468924918E+03  0.00000000000E+00 0.  1.
         -6    2    1    2    0  503 -0.44290681280E+02 -0.82573161542E+02 -0.35203365436E+03  0.40269230500E+03  0.17161995004E+03 0.  0.
        -24    2    3    3    0    0  0.13472970461E+02 -0.10295566656E+03 -0.27309002794E+03  0.30266094929E+03  0.79019596663E+02 0.  0.
          6    2    1    2  501    0  0.44290681280E+02  0.82573161542E+02 -0.52965523616E+02  0.20168701539E+03  0.17056469162E+03 0.  0.
         24    2    5    5    0    0 -0.86479634631E+01  0.10479101137E+03 -0.58279776715E+02  0.14383838321E+03  0.78974709720E+02 0.  0.
          5    1    5    5  501    0  0.52938644743E+02 -0.22217849829E+02  0.53142530991E+01  0.57848632173E+02  0.47000000000E+01 0. -1.
        -13    1    6    6    0    0  0.18448208355E+02  0.84085180993E+02 -0.12858389641E+02  0.87040176001E+02  0.00000000000E+00 0.  1.
         14    1    6    6    0    0 -0.27096171818E+02  0.20705830379E+02 -0.45421387074E+02  0.56798207213E+02  0.00000000000E+00 0. -1.
         -5    1    3    3    0  503 -0.57763651742E+02  0.20382505015E+02 -0.78943626417E+02  0.10003135571E+03  0.47000000000E+01 0.  1.
         13    1    4    4    0    0  0.77572839774E+01 -0.23667894676E+02 -0.83898023481E+01  0.26281808852E+02  0.00000000000E+00 0. -1.
        -14    1    4    4    0    0  0.57156864839E+01 -0.79287771881E+02 -0.26470022559E+03  0.27637914044E+03  0.00000000000E+00 0.  1.
</event>
<event>
12    1  0.1615162E-001  0.1747082E+03  0.7818608E-02  0.1173266E+00
         21   -1    0    0  501  502  0.00000000000E+00  0.00000000000E+00  0.14631326931E+03  0.14631326931E+03  0.00000000000E+00 0.  1.
         21   -1    0    0  502  503 -0.00000000000E+00 -0.00000000000E+00 -0.20865095985E+03  0.20865095985E+03  0.00000000000E+00 0.  1.
         -6    2    1    2    0  503 -0.16269367517E+01 -0.47012817096E+02 -0.17758295220E+02  0.17465818666E+03  0.16726408229E+03 0.  0.
        -24    2    3    3    0    0  0.44964803724E+02 -0.62285379352E+02  0.20215087569E+02  0.11246406122E+03  0.79612896229E+02 0.  0.
          6    2    1    2  501    0  0.16269367517E+01  0.47012817096E+02 -0.44579395322E+02  0.18030604250E+03  0.16825603876E+03 0.  0.
         24    2    5    5    0    0  0.47861940718E+02 -0.18591866914E+02 -0.11316178631E+02  0.93299251152E+02  0.77073156689E+02 0.  0.
          5    1    5    5  501    0 -0.46235003967E+02  0.65604684009E+02 -0.33263216692E+02  0.87006791347E+02  0.47000000000E+01 0. -1.
        -13    1    6    6    0    0  0.10218492234E+02  0.23567080698E+02 -0.24243095270E+02  0.35320709852E+02  0.00000000000E+00 0.  1.
         14    1    6    6    0    0  0.37643448484E+02 -0.42158947611E+02  0.12926916639E+02  0.57978541300E+02  0.00000000000E+00 0. -1.
         -5    1    3    3    0  503 -0.46591740475E+02  0.15272562256E+02 -0.37973382788E+02  0.62194125436E+02  0.47000000000E+01 0.  1.
         11    1    4    4    0    0 -0.98291060178E+01 -0.25144161862E+02 -0.21247319015E+02  0.34355330972E+02  0.00000000000E+00 0. -1.
        -12    1    4    4    0    0  0.54793909742E+02 -0.37141217490E+02  0.41462406584E+02  0.78108730249E+02  0.00000000000E+00 0.  1.
</event>
<event>
12    1  0.1615162E-001  0.1883319E+03  0.7818608E-02  0.1160168E+00
         21   -1    0    0  503  502  0.00000000000E+00  0.00000000000E+00  0.47172798061E+02  0.47172798061E+02  0.00000000000E+00 0. -1.
         21   -1    0    0  501  503 -0.00000000000E+00 -0.00000000000E+00 -0.74895473080E+03  0.74895473080E+03  0.00000000000E+00 0. -1.
          6    2    1    2  501    0  0.37169586516E+01  0.77805944970E+02 -0.35972271392E+03  0.40564908811E+03  0.17053788705E+03 0.  0.
         24    2    3    3    0    0  0.42613475712E+02  0.63098622103E+02 -0.12304548696E+03  0.16530049929E+03  0.79916949276E+02 0.  0.
         -6    2    1    2    0  502 -0.37169586516E+01 -0.77805944970E+02 -0.34205921882E+03  0.39047844075E+03  0.17146813890E+03 0.  0.
        -24    2    5    5    0    0  0.30472743762E+02 -0.67602858640E+02 -0.10731255346E+03  0.15298922917E+03  0.79943639534E+02 0.  0.
          5    1    3    3  501    0 -0.38896517061E+02  0.14707322867E+02 -0.23667722696E+03  0.24034858882E+03  0.47000000000E+01 0. -1.
        -13    1    4    4    0    0  0.63461119217E+02  0.63146674644E+02 -0.10058906153E+03  0.13465873708E+03  0.00000000000E+00 0.  1.
         14    1    4    4    0    0 -0.20847643505E+02 -0.48052540779E-01 -0.22456425429E+02  0.30641762218E+02  0.00000000000E+00 0. -1.
         -5    1    5    5    0  502 -0.34189702414E+02 -0.10203086330E+02 -0.23474666536E+03  0.23748921158E+03  0.47000000000E+01 0.  1.
         11    1    6    6    0    0  0.63859168347E+01 -0.18874709758E+02  0.11019544229E+02  0.22769825588E+02  0.00000000000E+00 0. -1.
        -12    1    6    6    0    0  0.24086826927E+02 -0.48728148882E+02 -0.11833209769E+03  0.13021940358E+03  0.00000000000E+00 0.  1.
</event>
<event>
12    1  0.1615162E-001  0.2111563E+03  0.7818608E-02  0.1143718E+00
         21   -1    0    0  503  502  0.00000000000E+00  0.00000000000E+00  0.83774748064E+02  0.83774748064E+02  0.00000000000E+00 0.  1.
         21   -1    0    0  501  503 -0.00000000000E+00 -0.00000000000E+00 -0.17184766755E+04  0.17184766755E+04  0.00000000000E+00 0.  1.
          6    2    1    2  501    0  0.88801834655E+02 -0.84281033662E+02 -0.15688477871E+04  0.15810643103E+04  0.15327072678E+03 0.  0.
         24    2    3    3    0    0  0.48250943746E+02 -0.40569621941E+02 -0.13901680936E+04  0.13926403597E+04  0.53905429470E+02 0.  0.
         -6    2    1    2    0  502 -0.88801834655E+02  0.84281033662E+02 -0.65854140325E+02  0.22118711327E+03  0.17204043945E+03 0.  0.
        -24    2    5    5    0    0 -0.39322050761E+02  0.84425098894E+01 -0.94444764560E+02  0.12611217180E+03  0.73259584172E+02 0.  0.
          5    1    3    3  501    0  0.40550890909E+02 -0.43711411721E+02 -0.17867969352E+03  0.18842395056E+03  0.47000000000E+01 0. -1.
        -13    1    4    4    0    0 -0.89257470373E+01 -0.16046780012E+02 -0.47835006574E+03  0.47870236421E+03  0.00000000000E+00 0.  1.
         14    1    4    4    0    0  0.57176690784E+02 -0.24522841929E+02 -0.91181802784E+03  0.91393799551E+03  0.00000000000E+00 0. -1.
         -5    1    5    5    0  502 -0.49479783894E+02  0.75838523772E+02  0.28590624235E+02  0.95074941474E+02  0.47000000000E+01 0.  1.
         13    1    6    6    0    0  0.19208937104E+02  0.11147322571E+02 -0.41840516273E+02  0.47369556333E+02  0.00000000000E+00 0. -1.
        -14    1    6    6    0    0 -0.58530987866E+02 -0.27048126816E+01 -0.52604248287E+02  0.78742615463E+02  0.00000000000E+00 0.  1.
</event>
<event>
12    1  0.1615162E-001  0.3468253E+03  0.7818608E-02  0.1064302E+00
         21   -1    0    0  501  502  0.00000000000E+00  0.00000000000E+00  0.13962885419E+04  0.13962885419E+04  0.00000000000E+00 0. -1.
         21   -1    0    0  502  503 -0.00000000000E+00 -0.00000000000E+00 -0.22261409656E+03  0.22261409656E+03  0.00000000000E+00 0. -1.
         -6    2    1    2    0  503  0.55328132416E+02  0.29188572090E+03 -0.47818374448E+02  0.35010629533E+03  0.17896744059E+03 0.  0.
        -24    2    3    3    0    0 -0.27706561152E+02  0.19898349587E+03 -0.61625305247E+02  0.22465389364E+03  0.79433044263E+02 0.  0.
          6    2    1    2  501    0 -0.55328132416E+02 -0.29188572090E+03  0.12214928198E+04  0.12687963432E+04  0.17187488260E+03 0.  0.
         24    2    5    5    0    0 -0.47450967042E+02 -0.30885922678E+03  0.11225061047E+04  0.11679469039E+04  0.80214705274E+02 0.  0.
          5    1    5    5  501    0 -0.78771653737E+01  0.16973505876E+02  0.98986715126E+02  0.10084943930E+03  0.47000000000E+01 0. -1.
        -11    1    6    6    0    0 -0.82099092681E+00  0.31717091382E+01  0.19263861141E+01  0.38006221095E+01  0.00000000000E+00 0.  1.
         12    1    6    6    0    0 -0.46629976115E+02 -0.31203093592E+03  0.11205797186E+04  0.11641462818E+04  0.00000000000E+00 0. -1.
         -5    1    3    3    0  503  0.83034693568E+02  0.92902225030E+02  0.13806930800E+02  0.12545240169E+03  0.47000000000E+01 0.  1.
         13    1    4    4    0    0 -0.15552234536E+02  0.10604394345E+03  0.86164195537E+01  0.10752410254E+03  0.00000000000E+00 0. -1.
        -14    1    4    4    0    0 -0.12154326616E+02  0.92939552423E+02 -0.70241724801E+02  0.11712979110E+03  0.00000000000E+00 0.  1.
</event>
<event>
12    1  0.1615162E-001  0.2151354E+03  0.7818608E-02  0.1137991E+00
         21   -1    0    0  503  502  0.00000000000E+00  0.00000000000E+00  0.38765209762E+03  0.38765209762E+03  0.00000000000E+00 0.  1.
         21   -1    0    0  501  503 -0.00000000000E+00 -0.00000000000E+00 -0.11909946374E+03  0.11909946374E+03  0.00000000000E+00 0. -1.
          6    2    1    2  501    0 -0.93479641579E+02  0.89586038356E+02  0.11251333097E+03  0.24278073612E+03  0.17181133410E+03 0.  0.
         24    2    3    3    0    0 -0.83182755587E+02  0.11795081691E+03  0.12747088255E+03  0.20877478263E+03  0.80661750084E+02 0.  0.
         -6    2    1    2    0  502  0.93479641579E+02 -0.89586038356E+02  0.15603930291E+03  0.26397082523E+03  0.16902139174E+03 0.  0.
        -24    2    5    5    0    0  0.91823381402E+02 -0.59254885103E+02  0.36257789838E+02  0.14030828875E+03  0.80181754710E+02 0.  0.
          5    1    3    3  501    0 -0.10296885992E+02 -0.28364778557E+02 -0.14957551575E+02  0.34005953491E+02  0.47000000000E+01 0. -1.
        -13    1    4    4    0    0 -0.38937743003E+02  0.11094000999E+03  0.73598120294E+02  0.13871019054E+03  0.00000000000E+00 0.  1.
         14    1    4    4    0    0 -0.44245012585E+02  0.70108069191E+01  0.53872762256E+02  0.70064592094E+02  0.00000000000E+00 0. -1.
         -5    1    5    5    0  502  0.16562601766E+01 -0.30331153253E+02  0.11978151307E+03  0.12366253648E+03  0.47000000000E+01 0.  1.
         11    1    6    6    0    0  0.19483947628E+01 -0.20538706109E+01 -0.19748074950E+02  0.19949964683E+02  0.00000000000E+00 0. -1.
        -12    1    6    6    0    0  0.89874986640E+02 -0.57201014493E+02  0.56005864788E+02  0.12035832407E+03  0.00000000000E+00 0.  1.
</event>
<event>
12    1  0.1615162E-001  0.2284406E+03  0.7818608E-02  0.1127980E+00
         21   -1    0    0  503  502  0.00000000000E+00  0.00000000000E+00  0.88856840120E+03  0.88856840120E+03  0.00000000000E+00 0. -1.
         21   -1    0    0  501  503 -0.00000000000E+00 -0.00000000000E+00 -0.68045937603E+02  0.68045937603E+02  0.00000000000E+00 0. -1.
          6    2    1    2  501    0 -0.44512379673E+02 -0.14104568164E+03  0.23108784716E+03  0.32494106324E+03  0.17409728666E+03 0.  0.
         24    2    3    3    0    0 -0.78708222781E+02 -0.14110707086E+03  0.22812169257E+03  0.29029647452E+03  0.78270982620E+02 0.  0.
         -6    2    1    2    0  502  0.44512379673E+02  0.14104568164E+03  0.58943461644E+03  0.63167327556E+03  0.17234478162E+03 0.  0.
        -24    2    5    5    0    0  0.25315483621E+02  0.17155325333E+03  0.48434659979E+03  0.52047609039E+03  0.78945167650E+02 0.  0.
          5    1    3    3  501    0  0.34195843109E+02  0.61389217158E-01  0.29661545949E+01  0.34644588721E+02  0.47000000000E+01 0. -1.
        -13    1    4    4    0    0  0.47400323269E+01  0.38472407084E+01  0.31826157592E+02  0.32406380153E+02  0.00000000000E+00 0.  1.
         14    1    4    4    0    0 -0.83448255108E+02 -0.14495431157E+03  0.19629553498E+03  0.25789009437E+03  0.00000000000E+00 0. -1.
         -5    1    5    5    0  502  0.19196896052E+02 -0.30507571691E+02  0.10508801664E+03  0.11119718518E+03  0.47000000000E+01 0.  1.
         11    1    6    6    0    0 -0.23066929185E+02  0.66403388816E+02  0.24032381453E+03  0.25039374812E+03  0.00000000000E+00 0. -1.
        -12    1    6    6    0    0  0.48382412806E+02  0.10514986452E+03  0.24402278526E+03  0.27008234227E+03  0.00000000000E+00 0.  1.
</event>
<event>
12    1  0.1615162E-001  0.1756936E+03  0.7818608E-02  0.1172211E+00
         21   -1    0    0  501  502  0.00000000000E+00  0.00000000000E+00  0.84970676283E+03  0.84970676283E+03  0.00000000000E+00 0. -1.
         21   -1    0    0  502  503 -0.00000000000E+00 -0.00000000000E+00 -0.12077893649E+03  0.12077893649E+03  0.00000000000E+00 0. -1.
         -6    2    1    2    0  503 -0.34874184760E+02 -0.12494050719E+02 -0.41853564879E+02  0.17993386776E+03  0.17103264545E+03 0.  0.
        -24    2    3    3    0    0  0.29566840362E+02 -0.33146736971E+02  0.14392632584E+02  0.91815175663E+02  0.79056779523E+02 0.  0.
          6    2    1    2  501    0  0.34874184760E+02  0.12494050719E+02  0.77078139122E+03  0.79055183156E+03  0.17174380706E+03 0.  0.
         24    2    5    5    0    0 -0.50077486990E+02 -0.25792477894E+02  0.43069719018E+03  0.43790186544E+03  0.55542483816E+02 0.  0.
          5    1    5    5  501    0  0.84951671750E+02  0.38286528612E+02  0.34008420104E+03  0.35264996612E+03  0.47000000000E+01 0. -1.
        -11    1    6    6    0    0 -0.50912659257E+02 -0.84708116925E+01  0.39338717943E+03  0.39675852412E+03  0.00000000000E+00 0.  1.
         12    1    6    6    0    0  0.83517226701E+00 -0.17321666201E+02  0.37310010744E+02  0.41143341314E+02  0.00000000000E+00 0. -1.
         -5    1    3    3    0  503 -0.64441025122E+02  0.20652686252E+02 -0.56246197463E+02  0.88118692099E+02  0.47000000000E+01 0.  1.
         11    1    4    4    0    0 -0.87026365367E+01 -0.48528761890E+02  0.53678909961E+01  0.49594262440E+02  0.00000000000E+00 0. -1.
        -12    1    4    4    0    0  0.38269476899E+02  0.15382024918E+02  0.90247415874E+01  0.42220913223E+02  0.00000000000E+00 0.  1.
</event>
<event>
12    1  0.1615162E-001  0.2152694E+03  0.7818608E-02  0.1137966E+00
         21   -1    0    0  503  502  0.00000000000E+00  0.00000000000E+00  0.71769504742E+02  0.71769504742E+02  0.00000000000E+00 0.  1.
         21   -1    0    0  501  503 -0.00000000000E+00 -0.00000000000E+00 -0.81581808223E+03  0.81581808223E+03  0.00000000000E+00 0. -1.
          6    2    1    2  501    0 -0.12596690971E+03 -0.26539662581E+02 -0.58107836529E+03  0.61967166271E+03  0.17253662489E+03 0.  0.
         24    2    3    3    0    0 -0.12276801288E+03 -0.67550170553E+02 -0.34874128455E+03  0.38367440893E+03  0.77139859928E+02 0.  0.
         -6    2    1    2    0  502  0.12596690971E+03  0.26539662581E+02 -0.16297021220E+03  0.26791592426E+03  0.16925612656E+03 0.  0.
        -24    2    5    5    0    0  0.11677308293E+03 -0.36046297784E+02 -0.13433710467E+03  0.19832085452E+03  0.79683217581E+02 0.  0.
          5    1    3    3  501    0 -0.31988968258E+01  0.41010507972E+02 -0.23233708073E+03  0.23599725377E+03  0.47000000000E+01 0. -1.
        -13    1    4    4    0    0 -0.45429475244E+02 -0.57196098498E+02 -0.10622590402E+03  0.12891537375E+03  0.00000000000E+00 0.  1.
         14    1    4    4    0    0 -0.77338537640E+02 -0.10354072055E+02 -0.24251538053E+03  0.25475903518E+03  0.00000000000E+00 0. -1.
         -5    1    5    5    0  502  0.91938267749E+01  0.62585960366E+02 -0.28633107529E+02  0.69595069742E+02  0.47000000000E+01 0.  1.
         13    1    6    6    0    0  0.34937804319E+01 -0.28143426840E+01 -0.57033136242E+02  0.57209314417E+02  0.00000000000E+00 0. -1.
        -14    1    6    6    0    0  0.11327930250E+03 -0.33231955100E+02 -0.77303968425E+02  0.14111154010E+03  0.00000000000E+00 0.  1.
</event>
<event>
12    1  0.1615162E-001  0.1745198E+03  0.7818608E-02  0.1173472E+00
         21   -1    0    0  501  502  0.00000000000E+00  0.00000000000E+00  0.18665627893E+03  0.18665627893E+03  0.00000000000E+00 0.  1.
         21   -1    0    0  502  503 -0.00000000000E+00 -0.00000000000E+00 -0.27171759528E+03  0.27171759528E+03  0.00000000000E+00 0.  1.
         -6    2    1    2    0  503 -0.16826169527E+02  0.15219193890E+02 -0.18794434604E+03  0.25578542498E+03  0.17201268146E+03 0.  0.
        -24    2    3    3    0    0 -0.23836056296E+02  0.43909121834E+02 -0.20223749495E+03  0.22263976789E+03  0.78563944161E+02 0.  0.
          6    2    1    2  501    0  0.16826169527E+02 -0.15219193890E+02  0.10288302968E+03  0.20258844923E+03  0.17303877635E+03 0.  0.
         24    2    5    5    0    0  0.31107450734E+02  0.39435779956E+02  0.11131890817E+03  0.14527898051E+03  0.78684360765E+02 0.  0.
          5    1    5    5  501    0 -0.14281281207E+02 -0.54654973845E+02 -0.84358784917E+01  0.57309468719E+02  0.47000000000E+01 0. -1.
        -13    1    6    6    0    0  0.50476184712E+02  0.23658227026E+02  0.37084486977E+02  0.66953835614E+02  0.00000000000E+00 0.  1.
         14    1    6    6    0    0 -0.19368733978E+02  0.15777552929E+02  0.74234421198E+02  0.78325144896E+02  0.00000000000E+00 0. -1.
         -5    1    3    3    0  503  0.70098867684E+01 -0.28689927945E+02  0.14293148919E+02  0.33145657091E+02  0.47000000000E+01 0.  1.
         13    1    4    4    0    0  0.25077853711E+02  0.31034218324E+02 -0.63775233606E+02  0.75228331599E+02  0.00000000000E+00 0. -1.
        -14    1    4    4    0    0 -0.48913910006E+02  0.12874903510E+02 -0.13846226135E+03  0.14741143629E+03  0.00000000000E+00 0.  1.
</event>
<event>
12    1  0.1615162E-001  0.2332920E+03  0.7818608E-02  0.1124416E+00
         21   -1    0    0  503  502  0.00000000000E+00  0.00000000000E+00  0.31769313816E+03  0.31769313816E+03  0.00000000000E+00 0.  1.
         21   -1    0    0  501  503 -0.00000000000E+00 -0.00000000000E+00 -0.19216060914E+03  0.19216060914E+03  0.00000000000E+00 0. -1.
          6    2    1    2  501    0 -0.25347937504E+02  0.15491000862E+03 -0.21864587191E+02  0.23389893774E+03  0.17202041796E+03 0.  0.
         24    2    3    3    0    0 -0.68393381634E+02  0.44988901289E+02 -0.69636510039E+01  0.11482044264E+03  0.80209636088E+02 0.  0.
         -6    2    1    2    0  502  0.25347937504E+02 -0.15491000862E+03  0.14739711621E+03  0.27595480956E+03  0.17258481495E+03 0.  0.
        -24    2    5    5    0    0  0.56562044658E+02 -0.36084759183E+02  0.36445148988E+02  0.11034626686E+03  0.79666021510E+02 0.  0.
          5    1    3    3  501    0  0.43045444130E+02  0.10992110733E+03 -0.14900936187E+02  0.11907849510E+03  0.47000000000E+01 0. -1.
        -13    1    4    4    0    0 -0.12149829332E+02  0.37967566084E+02  0.27551203552E+02  0.48458469273E+02  0.00000000000E+00 0.  1.
         14    1    4    4    0    0 -0.56243552302E+02  0.70213352055E+01 -0.34514854556E+02  0.66361973363E+02  0.00000000000E+00 0. -1.
         -5    1    5    5    0  502 -0.31214107154E+02 -0.11882524943E+03  0.11095196722E+03  0.16560854271E+03  0.47000000000E+01 0.  1.
         13    1    6    6    0    0  0.63591001730E+02 -0.39371344989E+02  0.53266338068E+02  0.91821680874E+02  0.00000000000E+00 0. -1.
        -14    1    6    6    0    0 -0.70289570721E+01  0.32865858061E+01 -0.16821189080E+02  0.18524585983E+02  0.00000000000E+00 0.  1.
</event>
<event>
12    1  0.1615162E-001  0.1870455E+03  0.7818608E-02  0.1161197E+00
         21   -1    0    0  503  502  0.00000000000E+00  0.00000000000E+00  0.95071886153E+03  0.95071886153E+03  0.00000000000E+00 0.  1.
         21   -1    0    0  501  503 -0.00000000000E+00 -0.00000000000E+00 -0.67201065688E+03  0.67201065688E+03  0.00000000000E+00 0.  1.
          6    2    1    2  501    0  0.14920610522E+02 -0.72187171069E+02 -0.64950194028E+03  0.67589850554E+03  0.17190813560E+03 0.  0.
         24    2    3    3    0    0 -0.46236047884E+02 -0.49372433240E+00 -0.33778050634E+03  0.35021087983E+03  0.80087289845E+02 0.  0.
         -6    2    1    2    0  502 -0.14920610522E+02  0.72187171069E+02  0.92821014493E+03  0.94683101286E+03  0.17170114000E+03 0.  0.
        -24    2    5    5    0    0 -0.46866995301E+02 -0.81020404143E+01  0.34391484382E+03  0.35616188561E+03  0.79446275293E+02 0.  0.
          5    1    3    3  501    0  0.61156658406E+02 -0.71693446737E+02 -0.31172143393E+03  0.32568762572E+03  0.47000000000E+01 0. -1.
        -11    1    4    4    0    0  0.15359157615E+02 -0.62372675505E+01 -0.17960573930E+03  0.18036914597E+03  0.00000000000E+00 0.  1.
         12    1    4    4    0    0 -0.61595205499E+02  0.57435432181E+01 -0.15817476704E+03  0.16984173385E+03  0.00000000000E+00 0. -1.
         -5    1    5    5    0  502  0.31946384779E+02  0.80289211483E+02  0.58429530111E+03  0.59066912724E+03  0.47000000000E+01 0.  1.
         11    1    6    6    0    0 -0.65791073738E+02  0.91287406224E+01  0.26517194041E+03  0.27336414774E+03  0.00000000000E+00 0. -1.
        -12    1    6    6    0    0  0.18924078437E+02 -0.17230781037E+02  0.78742903412E+02  0.82797737878E+02  0.00000000000E+00 0.  1.
</event>
<event>
12    1  0.1615162E-001  0.2045112E+03  0.7818608E-02  0.1146430E+00
         21   -1    0    0  501  502  0.00000000000E+00  0.00000000000E+00  0.18491262380E+03  0.18491262380E+03  0.00000000000E+00 0.  1.
         21   -1    0    0  502  503 -0.00000000000E+00 -0.00000000000E+00 -0.35891194393E+03  0.35891194393E+03  0.00000000000E+00 0.  1.
         -6    2    1    2    0  503 -0.10160165720E+03  0.36780696357E+02 -0.25410429719E+03  0.32618069140E+03  0.17363505759E+03 0.  0.
        -24    2    3    3    0    0 -0.11676769535E+03  0.71478161389E+02 -0.23215661088E+03  0.28216122154E+03  0.83513117142E+02 0.  0.
          6    2    1    2  501    0  0.10160165720E+03 -0.36780696357E+02  0.80104977062E+02  0.21764387632E+03  0.17110328220E+03 0.  0.
         24    2    5    5    0    0  0.54265416703E+02  0.43604375563E+02  0.14890152046E+02  0.10372485748E+03  0.75439064233E+02 0.  0.
          5    1    5    5  501    0  0.47336240501E+02 -0.80385071920E+02  0.65214825016E+02  0.11391901884E+03  0.47000000000E+01 0. -1.
        -13    1    6    6    0    0  0.31748420227E+01  0.39885346097E+02  0.30346763902E+02  0.50217990148E+02  0.00000000000E+00 0.  1.
         14    1    6    6    0    0  0.51090574680E+02  0.37190294661E+01 -0.15456611856E+02  0.53506867329E+02  0.00000000000E+00 0. -1.
         -5    1    3    3    0  503  0.15166038142E+02 -0.34697465032E+02 -0.21947686312E+02  0.44019469863E+02  0.47000000000E+01 0.  1.
         11    1    4    4    0    0 -0.58454134347E+02 -0.68408200260E+01 -0.58778760234E+02  0.83178274179E+02  0.00000000000E+00 0. -1.
        -12    1    4    4    0    0 -0.58313560999E+02  0.78318981415E+02 -0.17337785065E+03  0.19898294736E+03  0.00000000000E+00 0.  1.
</event>
<event>
12    1  0.1615162E-001  0.1897243E+03  0.7818608E-02  0.1158720E+00
         21   -1    0    0  501  502  0.00000000000E+00  0.00000000000E+00  0.11569087659E+03  0.11569087659E+03  0.00000000000E+00 0. -1.
         21   -1    0    0  502  503 -0.00000000000E+00 -0.00000000000E+00 -0.42674776801E+03  0.42674776801E+03  0.00000000000E+00 0.  1.
         -6    2    1    2    0  503  0.17348063010E+02 -0.75404017092E+02 -0.29672906785E+03  0.35217407155E+03  0.17318116492E+03 0.  0.
        -24    2    3    3    0    0  0.96889833534E+01 -0.12051934719E+03 -0.21523926104E+03  0.25859665374E+03  0.76977271891E+02 0.  0.
          6    2    1    2  501    0 -0.17348063010E+02  0.75404017092E+02 -0.14327823575E+02  0.19026457305E+03  0.17322990546E+03 0.  0.
         24    2    5    5    0    0  0.22139663257E+02  0.49558899278E+02  0.51531344756E+02  0.10910565059E+03  0.79387116790E+02 0.  0.
          5    1    5    5  501    0 -0.39487726268E+02  0.25845117813E+02 -0.65859168331E+02  0.81158922454E+02  0.47000000000E+01 0. -1.
        -13    1    6    6    0    0  0.12435243482E+02 -0.74894052829E+01 -0.15037345925E+02  0.20900914918E+02  0.00000000000E+00 0.  1.
         14    1    6    6    0    0  0.97044197750E+01  0.57048304561E+02  0.66568690681E+02  0.88204735675E+02  0.00000000000E+00 0. -1.
         -5    1    3    3    0  503  0.76590796570E+01  0.45115330096E+02 -0.81489806806E+02  0.93577417811E+02  0.47000000000E+01 0.  1.
         13    1    4    4    0    0  0.22905319943E+02 -0.68328404355E+02 -0.58348065513E+02  0.92724976530E+02  0.00000000000E+00 0. -1.
        -14    1    4    4    0    0 -0.13216336589E+02 -0.52190942832E+02 -0.15689119553E+03  0.16587167721E+03  0.00000000000E+00 0.  1.
</event>
<event>
12    1  0.1615162E-001  0.1897889E+03  0.7818608E-02  0.1158790E+00
         21   -1    0    0  503  502  0.00000000000E+00  0.00000000000E+00  0.15533897096E+04  0.15533897096E+04  0.00000000000E+00 0.  1.
         21   -1    0    0  501  503 -0.00000000000E+00 -0.00000000000E+00 -0.24583643935E+02  0.24583643935E+02  0.00000000000E+00 0.  1.
          6    2    1    2  501    0 -0.78612539904E+02 -0.65394511389E+01  0.57031560220E+03  0.60087367635E+03  0.17194939072E+03 0.  0.
         24    2    3    3    0    0  0.20099943137E+02 -0.26086148497E+02  0.30805618927E+03  0.31993183654E+03  0.79832759112E+02 0.  0.
         -6    2    1    2    0  502  0.78612539904E+02  0.65394511389E+01  0.95849046352E+03  0.97709967723E+03  0.17261840791E+03 0.  0.
        -24    2    5    5    0    0 -0.19756756758E+02  0.27243273107E+02  0.52534196610E+03  0.53241453291E+03  0.79677651444E+02 0.  0.
          5    1    3    3  501    0 -0.98712483041E+02  0.19546697358E+02  0.26225941293E+03  0.28094183981E+03  0.47000000000E+01 0. -1.
        -13    1    4    4    0    0 -0.17514436446E+02 -0.10381314878E+02  0.23808341356E+03  0.23895237809E+03  0.00000000000E+00 0.  1.
         14    1    4    4    0    0  0.37614379582E+02 -0.15704833619E+02  0.69972775707E+02  0.80979458447E+02  0.00000000000E+00 0. -1.
         -5    1    5    5    0  502  0.98369296662E+02 -0.20703821968E+02  0.43314849741E+03  0.44468514432E+03  0.47000000000E+01 0.  1.
         11    1    6    6    0    0  0.45306992591E+01 -0.42219041345E+01  0.41642847204E+03  0.41647451787E+03  0.00000000000E+00 0. -1.
        -12    1    6    6    0    0 -0.24287456017E+02  0.31465177241E+02  0.10891349406E+03  0.11594001504E+03  0.00000000000E+00 0.  1.
</event>
<event>
12    1  0.1615162E-001  0.1782992E+03  0.7818608E-02  0.1171151E+00
         21   -1    0    0  503  502  0.00000000000E+00  0.00000000000E+00  0.21149124875E+03  0.21149124875E+03  0.00000000000E+00 0. -1.
         21   -1    0    0  501  503 -0.00000000000E+00 -0.00000000000E+00 -0.19444589382E+03  0.19444589382E+03  0.00000000000E+00 0. -1.
          6    2    1    2  501    0  0.18368295118E+02 -0.67639178664E+01 -0.94280443875E+02  0.19573715156E+03  0.17041445230E+03 0.  0.
         24    2    3    3    0    0  0.56747312167E+01  0.58181409432E+02 -0.50312397542E+01  0.84532239176E+02  0.60853160219E+02 0.  0.
         -6    2    1    2    0  502 -0.18368295118E+02  0.67639178664E+01  0.11132579880E+03  0.21019999101E+03  0.17722149387E+03 0.  0.
        -24    2    5    5    0    0 -0.54222329438E+01  0.80415198088E+02  0.86612489067E+02  0.13130164323E+03  0.56942019267E+02 0.  0.
          5    1    3    3  501    0  0.12693563901E+02 -0.64945327299E+02 -0.89249204120E+02  0.11120491239E+03  0.47000000000E+01 0. -1.
        -13    1    4    4    0    0  0.10999644018E+02  0.43829764135E+02  0.24401828993E+02  0.51356495703E+02  0.00000000000E+00 0.  1.
         14    1    4    4    0    0 -0.53249128014E+01  0.14351645298E+02 -0.29433068748E+02  0.33175743473E+02  0.00000000000E+00 0. -1.
         -5    1    5    5    0  502 -0.12946062174E+02 -0.73651280222E+02  0.24713309734E+02  0.78898347778E+02  0.47000000000E+01 0.  1.
         13    1    6    6    0    0  0.49873233620E+01  0.22591804938E+02 -0.38304351369E+01  0.23450698881E+02  0.00000000000E+00 0. -1.
        -14    1    6    6    0    0 -0.10409556306E+02  0.57823393150E+02  0.90442924204E+02  0.10785094435E+03  0.00000000000E+00 0.  1.
</event>
<event>
12    1  0.1615162E-001  0.1973015E+03  0.7818608E-02  0.1152197E+00
         21   -1    0    0  501  502  0.00000000000E+00  0.00000000000E+00  0.29603866916E+03  0.29603866916E+03  0.00000000000E+00 0.  1.
         21   -1    0    0  502  503 -0.00000000000E+00 -0.00000000000E+00 -0.13949489551E+03  0.13949489551E+03  0.00000000000E+00 0. -1.
         -6    2    1    2    0  503 -0.58369148304E+02 -0.74836171205E+02  0.24662507871E+02  0.19883687825E+03  0.17297530131E+03 0.  0.
        -24    2    3    3    0    0  0.88397381858E+00 -0.30309181796E+02 -0.43365349636E+02  0.98122109398E+02  0.82631512711E+02 0.  0.
          6    2    1    2  501    0  0.58369148304E+02  0.74836171205E+02  0.13188126578E+03  0.23669668642E+03  0.17211985099E+03 0.  0.
         24    2    5    5    0    0  0.60634107056E+00  0.64698645198E+02  0.11310739800E+02  0.10253762758E+03  0.78738490561E+02 0.  0.
          5    1    5    5  501    0  0.57762807233E+02  0.10137526007E+02  0.12057052598E+03  0.13415905884E+03  0.47000000000E+01 0. -1.
        -13    1    6    6    0    0 -0.17774267647E+02  0.77252940405E+02  0.12481836533E+02  0.80247975892E+02  0.00000000000E+00 0.  1.
         14    1    6    6    0    0  0.18380608718E+02 -0.12554295207E+02 -0.11710967323E+01  0.22289651692E+02  0.00000000000E+00 0. -1.
         -5    1    3    3    0  503 -0.59253122122E+02 -0.44526989408E+02  0.68027857507E+02  0.10071476885E+03  0.47000000000E+01 0.  1.
         13    1    4    4    0    0 -0.26958639206E+02  0.71563367438E+01  0.77015914545E+01  0.28936065633E+02  0.00000000000E+00 0. -1.
        -14    1    4    4    0    0  0.27842613024E+02 -0.37465518540E+02 -0.51066941090E+02  0.69186043765E+02  0.00000000000E+00 0.  1.
</event>
<event>
12    1  0.1615162E-001  0.2062609E+03  0.7818608E-02  0.1144922E+00
         21   -1    0    0  503  502  0.00000000000E+00  0.00000000000E+00  0.53578708252E+03  0.53578708252E+03  0.00000000000E+00 0. -1.
         21   -1    0    0  501  503 -0.00000000000E+00 -0.00000000000E+00 -0.79070833530E+02  0.79070833530E+02  0.00000000000E+00 0. -1.
          6    2    1    2  501    0  0.81413421400E+02 -0.79543998497E+02  0.20701007467E+03  0.29098026466E+03  0.16988510979E+03 0.  0.
         24    2    3    3    0    0 -0.18397665702E+02 -0.73993909157E+01  0.67427893597E+02  0.10477507466E+03  0.77705021366E+02 0.  0.
         -6    2    1    2    0  502 -0.81413421400E+02  0.79543998497E+02  0.24970617432E+03  0.32387765139E+03  0.17201211205E+03 0.  0.
        -24    2    5    5    0    0 -0.95950440608E+02  0.99655127600E+02  0.14178376758E+03  0.21303939844E+03  0.78393348099E+02 0.  0.
          5    1    3    3  501    0  0.99811087101E+02 -0.72144607581E+02  0.13958218107E+03  0.18620519000E+03  0.47000000000E+01 0. -1.
        -11    1    4    4    0    0  0.20993643350E+02  0.22392395104E+02  0.23170481175E+02  0.38458076103E+02  0.00000000000E+00 0.  1.
         12    1    4    4    0    0 -0.39391309052E+02 -0.29791786020E+02  0.44257412422E+02  0.66316998555E+02  0.00000000000E+00 0. -1.
         -5    1    5    5    0  502  0.14537019209E+02 -0.20111129103E+02  0.10792240674E+03  0.11083825295E+03  0.47000000000E+01 0.  1.
         13    1    6    6    0    0 -0.54322710743E+02  0.52544489183E+02  0.23601761426E+02  0.79176533066E+02  0.00000000000E+00 0. -1.
        -14    1    6    6    0    0 -0.41627729866E+02  0.47110638416E+02  0.11818200616E+03  0.13386286537E+03  0.00000000000E+00 0.  1.
</event>
<event>
12    1  0.1615162E-001  0.1988669E+03  0.7818608E-02  0.1150920E+00
         21   -1    0    0  503  502  0.00000000000E+00  0.00000000000E+00  0.13540450707E+03  0.13540450707E+03  0.00000000000E+00 0.  1.
         21   -1    0    0  501  503 -0.00000000000E+00 -0.00000000000E+00 -0.49991097904E+03  0.49991097904E+03  0.00000000000E+00 0. -1.
          6    2    1    2  501    0  0.85195094748E+02 -0.48057742666E+02 -0.38754616158E+03  0.43511838344E+03  0.17195414927E+03 0.  0.
         24    2    3    3    0    0  0.92397298847E+02  0.23625795118E+02 -0.22499915599E+03  0.25725883110E+03  0.80386858078E+02 0.  0.
         -6    2    1    2    0  502 -0.85195094748E+02  0.48057742666E+02  0.23039689617E+02  0.20019710267E+03  0.17314820768E+03 0.  0.
        -24    2    5    5    0    0 -0.41812513272E+02  0.10392365386E+01 -0.49717086455E+02  0.10320005757E+03  0.80181649514E+02 0.  0.
          5    1    3    3  501    0 -0.72022040983E+01 -0.71683537785E+02 -0.16254700559E+03  0.17785955235E+03  0.47000000000E+01 0. -1.
        -11    1    4    4    0    0  0.11209853724E+02 -0.23208689669E+02 -0.22877126082E+02  0.34462544805E+02  0.00000000000E+00 0.  1.
         12    1    4    4    0    0  0.81187445123E+02  0.46834484788E+02 -0.20212202991E+03  0.22279628629E+03  0.00000000000E+00 0. -1.
         -5    1    5    5    0  502 -0.43382581476E+02  0.47018506128E+02  0.72756776072E+02  0.96997045101E+02  0.47000000000E+01 0.  1.
         11    1    6    6    0    0 -0.59047741435E+02 -0.15384838341E+02 -0.18149136761E+02  0.63660978508E+02  0.00000000000E+00 0. -1.
        -12    1    6    6    0    0  0.17235228163E+02  0.16424074880E+02 -0.31567949693E+02  0.39539079065E+02  0.00000000000E+00 0.  1.
</event>
<event>
12    1  0.1615162E-001  0.1776408E+03  0.7818608E-02  0.1170333E+00
         21   -1    0    0  501  502  0.00000000000E+00  0.00000000000E+00  0.36337621450E+02  0.36337621450E+02  0.00000000000E+00 0.  1.
         21   -1    0    0  502  503 -0.00000000000E+00 -0.00000000000E+00 -0.88538885363E+03  0.88538885363E+03  0.00000000000E+00 0.  1.
         -6    2    1    2    0  503  0.26831871402E+02  0.32544201774E+02 -0.35171325012E+03  0.39361540084E+03  0.17161526469E+03 0.  0.
        -24    2    3    3    0    0  0.63894401903E+01 -0.30597583532E+02 -0.29297516418E+03  0.30486276265E+03  0.78293168028E+02 0.  0.
          6    2    1    2  501    0 -0.26831871402E+02 -0.32544201774E+02 -0.49733798207E+03  0.52811107425E+03  0.17256060948E+03 0.  0.
         24    2    5    5    0    0 -0.83622744572E+02 -0.23779669701E+02 -0.36544708754E+03  0.38416900827E+03  0.80473703941E+02 0.  0.
          5    1    5    5  501    0  0.56790873170E+02 -0.87645320721E+01 -0.13189089453E+03  0.14394206598E+03  0.47000000000E+01 0. -1.
        -13    1    6    6    0    0 -0.31892494173E+02  0.29814712878E+02 -0.14893471158E+03  0.15520179316E+03  0.00000000000E+00 0.  1.
         14    1    6    6    0    0 -0.51730250399E+02 -0.53594382580E+02 -0.21651237596E+03  0.22896721511E+03  0.00000000000E+00 0. -1.
         -5    1    3    3    0  503  0.20442431212E+02  0.63141785305E+02 -0.58738085935E+02  0.88752638185E+02  0.47000000000E+01 0.  1.
         13    1    4    4    0    0 -0.13060279598E+02  0.17818508983E+02 -0.33060025065E+02  0.39762236140E+02  0.00000000000E+00 0. -1.
        -14    1    4    4    0    0  0.19449719788E+02 -0.48416092515E+02 -0.25991513912E+03  0.26510052651E+03  0.00000000000E+00 0.  1.
</event>
<event>
12    1  0.1615162E-001  0.1769950E+03  0.7818608E-02  0.1170769E+00
         21   -1    0    0  503  502  0.00000000000E+00  0.00000000000E+00  0.78444340521E+02  0.78444340521E+02  0.00000000000E+00 0. -1.
         21   -1    0    0  501  503 -0.00000000000E+00 -0.00000000000E+00 -0.40948354187E+03  0.40948354187E+03  0.00000000000E+00 0. -1.
          6    2    1    2  501    0  0.29588950241E+02  0.34826520471E+02 -0.20437738057E+03  0.27036519278E+03  0.17099365858E+03 0.  0.
         24    2    3    3    0    0  0.31527223290E+02  0.74448136919E+02 -0.77309273908E+02  0.13716600689E+03  0.79380720043E+02 0.  0.
         -6    2    1    2    0  502 -0.29588950241E+02 -0.34826520471E+02 -0.12666182078E+03  0.21756268961E+03  0.17088567688E+03 0.  0.
        -24    2    5    5    0    0  0.44305489570E+02  0.71275054950E+01 -0.68983025347E+02  0.11475480094E+03  0.79976426604E+02 0.  0.
          5    1    3    3  501    0 -0.19382730491E+01 -0.39621616448E+02 -0.12706810666E+03  0.13319918589E+03  0.47000000000E+01 0. -1.
        -13    1    4    4    0    0  0.26528323699E+02  0.12634975436E+02  0.91412238638E+01  0.30772658908E+02  0.00000000000E+00 0.  1.
         14    1    4    4    0    0  0.49988995914E+01  0.61813161483E+02 -0.86450497772E+02  0.10639334798E+03  0.00000000000E+00 0. -1.
         -5    1    5    5    0  502 -0.73894439811E+02 -0.41954025966E+02 -0.57678795433E+02  0.10280788867E+03  0.47000000000E+01 0.  1.
         13    1    6    6    0    0  0.16650842045E+02 -0.31379034064E+02 -0.54734903820E+02  0.65251850669E+02  0.00000000000E+00 0. -1.
        -14    1    6    6    0    0  0.27654647525E+02  0.38506539559E+02 -0.14248121527E+02  0.49502950271E+02  0.00000000000E+00 0.  1.
</event>
<event>
12    1  0.1615162E-001  0.3579852E+03  0.7818608E-02  0.1059403E+00
         21   -1    0    0  501  502  0.00000000000E+00  0.00000000000E+00  0.10538016469E+04  0.10538016469E+04  0.00000000000E+00 0.  1.
         21   -1    0    0  502  503 -0.00000000000E+00 -0.00000000000E+00 -0.25609482259E+03  0.25609482259E+03  0.00000000000E+00 0. -1.
         -6    2    1    2    0  503  0.30829333151E+03 -0.59760706221E+02 -0.75923469929E+02  0.36576548896E+03  0.17147565240E+03 0.  0.
        -24    2    3    3    0    0  0.11405913846E+03 -0.62964319911E+02 -0.48605521916E+01  0.15886161474E+03  0.90771113365E+02 0.  0.
          6    2    1    2  501    0 -0.30829333151E+03  0.59760706221E+02  0.87363029424E+03  0.94413098052E+03  0.17186418212E+03 0.  0.
         24    2    5    5    0    0 -0.61208276879E+02 -0.82049019596E+01  0.27690159895E+03  0.29468693066E+03  0.79700175808E+02 0.  0.
          5    1    5    5  501    0 -0.24708505464E+03  0.67965608180E+02  0.59672869529E+03  0.64944404986E+03  0.47000000000E+01 0. -1.
        -13    1    6    6    0    0 -0.76533463810E+02  0.95863111355E+01  0.22006778334E+03  0.23319326257E+03  0.00000000000E+00 0.  1.
         14    1    6    6    0    0  0.15325186931E+02 -0.17791213095E+02  0.56833815606E+02  0.61493668082E+02  0.00000000000E+00 0. -1.
         -5    1    3    3    0  503  0.19423419305E+03  0.32036136899E+01 -0.71062917738E+02  0.20690387422E+03  0.47000000000E+01 0.  1.
         11    1    4    4    0    0 -0.10211603065E+02  0.10048599554E+02 -0.33884800785E+01  0.14721854074E+02  0.00000000000E+00 0. -1.
        -12    1    4    4    0    0  0.12427074153E+03 -0.73012919464E+02 -0.14720721131E+01  0.14413976066E+03  0.00000000000E+00 0.  1.
</event>
<event>
12    1  0.1615162E-001  0.3173647E+03  0.7818608E-02  0.1076877E+00
         21   -1    0    0  501  502  0.00000000000E+00  0.00000000000E+00  0.20733096271E+03  0.20733096271E+03  0.00000000000E+00 0. -1.
         21   -1    0    0  502  503 -0.00000000000E+00 -0.00000000000E+00 -0.50697370110E+03  0.50697370110E+03  0.00000000000E+00 0.  1.
         -6    2    1    2    0  503 -0.26543704365E+03  0.25697234026E+02 -0.22301964608E+03  0.38788930620E+03  0.17205574490E+03 0.  0.
        -24    2    3    3    0    0 -0.17315285003E+03  0.29787821693E+02 -0.63306756400E+02  0.20332657316E+03  0.80403520768E+02 0.  0.
          6    2    1    2  501    0  0.26543704365E+03 -0.25697234026E+02 -0.76623092308E+02  0.32641535760E+03  0.17192648263E+03 0.  0.
         24    2    5    5    0    0  0.10588562774E+03 -0.74367017387E+02 -0.56848785797E+02  0.15837216277E+03  0.71468440995E+02 0.  0.
          5    1    5    5  501    0  0.15955141591E+03  0.48669783361E+02 -0.19774306511E+02  0.16804319483E+03  0.47000000000E+01 0. -1.
        -13    1    6    6    0    0  0.50985009226E+02 -0.29299667041E+02 -0.64084179079E+02  0.86975419877E+02  0.00000000000E+00 0.  1.
         14    1    6    6    0    0  0.54900618514E+02 -0.45067350346E+02  0.72353932819E+01  0.71396742897E+02  0.00000000000E+00 0. -1.
         -5    1    3    3    0  503 -0.92284193616E+02 -0.40905876669E+01 -0.15971288968E+03  0.18456273304E+03  0.47000000000E+01 0.  1.
         11    1    4    4    0    0 -0.13665449418E+03 -0.59070577048E+01 -0.23944030882E+02  0.13886202046E+03  0.00000000000E+00 0. -1.
        -12    1    4    4    0    0 -0.36498355851E+02  0.35694879398E+02 -0.39362725518E+02  0.64464552703E+02  0.00000000000E+00 0.  1.
</event>
<event>
12    1  0.1615162E-001  0.3019421E+03  0.7818608E-02  0.1084346E+00
         21   -1    0    0  501  502  0.00000000000E+00  0.00000000000E+00  0.31223356301E+03  0.31223356301E+03  0.00000000000E+00 0. -1.
         21   -1    0    0  502  503 -0.00000000000E+00 -0.00000000000E+00 -0.30977363110E+03  0.30977363110E+03  0.00000000000E+00 0. -1.
         -6    2    1    2    0  503 -0.23959666889E+03  0.59610368105E+02 -0.74454979396E+02  0.31098641414E+03  0.17380749724E+03 0.  0.
        -24    2    3    3    0    0 -0.17206819592E+03 -0.27579681016E+02 -0.52627162060E+02  0.19846644731E+03  0.79064591743E+02 0.  0.
          6    2    1    2  501    0  0.23959666889E+03 -0.59610368105E+02  0.76914911312E+02  0.31102077997E+03  0.17279485601E+03 0.  0.
         24    2    5    5    0    0  0.64639182002E+02 -0.59104094925E+02  0.68096557708E+02  0.13577742948E+03  0.78274205827E+02 0.  0.
          5    1    5    5  501    0  0.17495748689E+03 -0.50627317990E+00  0.88183536044E+01  0.17524335049E+03  0.47000000000E+01 0. -1.
        -13    1    6    6    0    0  0.12085503851E+02  0.59135496864E+00 -0.15979658679E+02  0.20043916671E+02  0.00000000000E+00 0.  1.
         14    1    6    6    0    0  0.52553678151E+02 -0.59695449894E+02  0.84076216386E+02  0.11573351281E+03  0.00000000000E+00 0. -1.
         -5    1    3    3    0  503 -0.67528472966E+02  0.87190049122E+02 -0.21827817336E+02  0.11251996684E+03  0.47000000000E+01 0.  1.
         11    1    4    4    0    0 -0.73750982569E+02  0.24685301636E+02 -0.68361570016E+01  0.78072431686E+02  0.00000000000E+00 0. -1.
        -12    1    4    4    0    0 -0.98317213352E+02 -0.52264982653E+02 -0.45791005058E+02  0.12039401562E+03  0.00000000000E+00 0.  1.
</event>
<event>
12    1  0.1615162E-001  0.2069458E+03  0.7818608E-02  0.1144219E+00
         21   -1    0    0  503  502  0.00000000000E+00  0.00000000000E+00  0.29427200164E+02  0.29427200164E+02  0.00000000000E+00 0. -1.
         21   -1    0    0  501  503 -0.00000000000E+00 -0.00000000000E+00 -0.14651454096E+04  0.14651454096E+04  0.00000000000E+00 0.  1.
          6    2    1    2  501    0 -0.80845663754E+02 -0.82409720675E+02 -0.79687194528E+03  0.82304367913E+03  0.17049521158E+03 0.  0.
         24    2    3    3    0    0 -0.21083726775E+02 -0.97994836046E+02 -0.66624269224E+03  0.67847370755E+03  0.79998346527E+02 0.  0.
         -6    2    1    2    0  502  0.80845663754E+02  0.82409720675E+02 -0.63884626415E+03  0.67152893063E+03  0.17175323008E+03 0.  0.
        -24    2    5    5    0    0  0.11011562453E+03  0.91821439626E+02 -0.42580733690E+03  0.45623149548E+03  0.79238007110E+02 0.  0.
          5    1    3    3  501    0 -0.59761936979E+02  0.15585115371E+02 -0.13062925305E+03  0.14456997159E+03  0.47000000000E+01 0. -1.
        -11    1    4    4    0    0  0.12106500459E+02  0.67943954282E+01 -0.15098290066E+03  0.15161981221E+03  0.00000000000E+00 0.  1.
         12    1    4    4    0    0 -0.33190227233E+02 -0.10478923147E+03 -0.51525979157E+03  0.52685389533E+03  0.00000000000E+00 0. -1.
         -5    1    5    5    0  502 -0.29269960777E+02 -0.94117189518E+01 -0.21303892724E+03  0.21529743514E+03  0.47000000000E+01 0.  1.
         11    1    6    6    0    0  0.11967111788E+02  0.27143512986E+02 -0.25809376712E+02  0.39320554269E+02  0.00000000000E+00 0. -1.
        -12    1    6    6    0    0  0.98148512743E+02  0.64677926640E+02 -0.39999796019E+03  0.41691094122E+03  0.00000000000E+00 0.  1.
</event>
<event>
12    1  0.1615162E-001  0.2664511E+03  0.7818608E-02  0.1103621E+00
         21   -1    0    0  503  502  0.00000000000E+00  0.00000000000E+00  0.94461746036E+03  0.94461746036E+03  0.00000000000E+00 0.  1.
         21   -1    0    0  501  503 -0.00000000000E+00 -0.00000000000E+00 -0.19954375165E+03  0.19954375165E+03  0.00000000000E+00 0. -1.
          6    2    1    2  501    0  0.15067304981E+03  0.13215466323E+03 -0.80683714146E+02  0.27647952195E+03  0.17252200258E+03 0.  0.
         24    2    3    3    0    0  0.84373318180E+02  0.11034978544E+03 -0.11635308780E+03  0.19795881559E+03  0.79710223079E+02 0.  0.
         -6    2    1    2    0  502 -0.15067304981E+03 -0.13215466323E+03  0.82575742285E+03  0.86768169006E+03  0.17558180691E+03 0.  0.
        -24    2    5    5    0    0 -0.81186165418E+01 -0.84408464180E+02  0.30209145014E+03  0.32284262488E+03  0.76009311484E+02 0.  0.
          5    1    3    3  501    0  0.66299731631E+02  0.21804877794E+02  0.35669373652E+02  0.78520706356E+02  0.47000000000E+01 0. -1.
        -13    1    4    4    0    0  0.36618921469E+02  0.10708095293E+02 -0.66656832592E+02  0.76803268456E+02  0.00000000000E+00 0.  1.
         14    1    4    4    0    0  0.47754396711E+02  0.99641690143E+02 -0.49696255205E+02  0.12115554713E+03  0.00000000000E+00 0. -1.
         -5    1    5    5    0  502 -0.14255443327E+03 -0.47746199049E+02  0.52366597272E+03  0.54483906518E+03  0.47000000000E+01 0.  1.
         11    1    6    6    0    0  0.10891323978E+02  0.11621215819E+02  0.45936521308E+02  0.48619312880E+02  0.00000000000E+00 0. -1.
        -12    1    6    6    0    0 -0.19009940520E+02 -0.96029679999E+02  0.25615492883E+03  0.27422331200E+03  0.00000000000E+00 0.  1.
</event>
<event>
12    1  0.1615162E-001  0.1851810E+03  0.7818608E-02  0.1163000E+00
         21   -1    0    0  503  502  0.00000000000E+00  0.00000000000E+00  0.57269992621E+03  0.57269992621E+03  0.00000000000E+00 0.  1.
         21   -1    0    0  501  503 -0.00000000000E+00 -0.00000000000E+00 -0.98354815531E+02  0.98354815531E+02  0.00000000000E+00 0.  1.
          6    2    1    2  501    0 -0.51913821299E+02 -0.45483876092E+02  0.26664231573E+02  0.18658576552E+03  0.17128759098E+03 0.  0.
         24    2    3    3    0    0 -0.58206757552E+02 -0.66485358755E+02 -0.29888693722E+02  0.12575003030E+03  0.84329156015E+02 0.  0.
         -6    2    1    2    0  502  0.51913821299E+02  0.45483876092E+02  0.44768087910E+03  0.48446897622E+03  0.17183768962E+03 0.  0.
        -24    2    5    5    0    0  0.74955309390E+01  0.33868044301E+02  0.93625701637E+02  0.12741846052E+03  0.79161004706E+02 0.  0.
          5    1    3    3  501    0  0.62929362526E+01  0.21001482663E+02  0.56552925295E+02  0.60835735223E+02  0.47000000000E+01 0. -1.
        -11    1    4    4    0    0 -0.16392142887E+01 -0.10675554567E+02 -0.43769321673E+02  0.45082236064E+02  0.00000000000E+00 0.  1.
         12    1    4    4    0    0 -0.56567543263E+02 -0.55809804188E+02  0.13880627951E+02  0.80667794234E+02  0.00000000000E+00 0. -1.
         -5    1    5    5    0  502  0.44418290361E+02  0.11615831791E+02  0.35405517747E+03  0.35705051569E+03  0.47000000000E+01 0.  1.
         13    1    6    6    0    0  0.19057310224E+02  0.11051764553E+02 -0.73730461292E+01  0.23231108065E+02  0.00000000000E+00 0. -1.
        -14    1    6    6    0    0 -0.11561779285E+02  0.22816279748E+02  0.10099874777E+03  0.10418735246E+03  0.00000000000E+00 0.  1.
</event>
<event>
12    1  0.1615162E-001  0.1901095E+03  0.7818608E-02  0.1158429E+00
         21   -1    0    0  501  502  0.00000000000E+00  0.00000000000E+00  0.24249504438E+03  0.24249504438E+03  0.00000000000E+00 0.  1.
         21   -1    0    0  502  503 -0.00000000000E+00 -0.00000000000E+00 -0.17726532736E+03  0.17726532736E+03  0.00000000000E+00 0. -1.
         -6    2    1    2    0  503 -0.65032390414E+02  0.49512762759E+02 -0.51498502851E+02  0.19667498071E+03  0.17131324164E+03 0.  0.
        -24    2    3    3    0    0 -0.84301533813E+02  0.86279561906E+02 -0.42600872812E+02  0.15396250915E+03  0.85666262044E+02 0.  0.
          6    2    1    2  501    0  0.65032390414E+02 -0.49512762759E+02  0.11672821987E+03  0.22308539102E+03  0.17164174578E+03 0.  0.
         24    2    5    5    0    0  0.23020491801E+02  0.31085013545E+02  0.22260683332E+02  0.91909148393E+02  0.80346328018E+02 0.  0.
          5    1    5    5  501    0  0.42011898613E+02 -0.80597776304E+02  0.94467536538E+02  0.13117624263E+03  0.47000000000E+01 0. -1.
        -11    1    6    6    0    0 -0.26072787064E+02 -0.51969230492E+01  0.14750669535E+02  0.30403626202E+02  0.00000000000E+00 0.  1.
         12    1    6    6    0    0  0.49093278865E+02  0.36281936594E+02  0.75100137967E+01  0.61505522191E+02  0.00000000000E+00 0. -1.
         -5    1    3    3    0  503  0.19269143399E+02 -0.36766799146E+02 -0.88976300385E+01  0.42712471564E+02  0.47000000000E+01 0.  1.
         13    1    4    4    0    0  0.13718045715E+02  0.22575588281E+02  0.64408656424E+01  0.27190562971E+02  0.00000000000E+00 0. -1.
        -14    1    4    4    0    0 -0.98019579528E+02  0.63703973625E+02 -0.49041738455E+02  0.12677194618E+03  0.00000000000E+00 0.  1.
</event>
<event>
12    1  0.1615162E-001  0.1751441E+03  0.7818608E-02  0.1172717E+00
         21   -1    0    0  503  502  0.00000000000E+00  0.00000000000E+00  0.47454170811E+02  0.47454170811E+02  0.00000000000E+00 0. -1.
         21   -1    0    0  501  503 -0.00000000000E+00 -0.00000000000E+00 -0.13314624991E+04  0.13314624991E+04  0.00000000000E+00 0. -1.
          6    2    1    2  501    0 -0.13871021960E+02  0.29071359606E+02 -0.11367730235E+04  0.11501073874E+04  0.17162909553E+03 0.  0.
         24    2    3    3    0    0 -0.44025928407E+02  0.16712271226E+01 -0.32202975392E+03  0.33433243624E+03  0.78319474843E+02 0.  0.
         -6    2    1    2    0  502  0.13871021960E+02 -0.29071359606E+02 -0.14723530477E+03  0.22880928247E+03  0.17215662513E+03 0.  0.
        -24    2    5    5    0    0 -0.22278593095E+02 -0.70164461963E+02 -0.13246709552E+03  0.17192670399E+03  0.81190348670E+02 0.  0.
          5    1    3    3  501    0  0.30154906447E+02  0.27400132483E+02 -0.81474326957E+03  0.81577495116E+03  0.47000000000E+01 0. -1.
        -11    1    4    4    0    0 -0.48976083117E+02  0.15349872484E+02 -0.31306670563E+03  0.31724602043E+03  0.00000000000E+00 0.  1.
         12    1    4    4    0    0  0.49501547103E+01 -0.13678645361E+02 -0.89630482846E+01  0.17086415807E+02  0.00000000000E+00 0. -1.
         -5    1    5    5    0  502  0.36149615055E+02  0.41093102358E+02 -0.14768209243E+02  0.56882578477E+02  0.47000000000E+01 0.  1.
         11    1    6    6    0    0  0.17151645826E+02 -0.31349617205E+02 -0.93339678999E+01  0.36933729980E+02  0.00000000000E+00 0. -1.
        -12    1    6    6    0    0 -0.39430238921E+02 -0.38814844758E+02 -0.12313312762E+03  0.13499297401E+03  0.00000000000E+00 0.  1.
</event>
<event>
12    1  0.1615162E-001  0.2032555E+03  0.7818608E-02  0.1147224E+00
         21   -1    0    0  503  502  0.00000000000E+00  0.00000000000E+00  0.64058926987E+02  0.64058926987E+02  0.00000000000E+00 0. -1.
         21   -1    0    0  501  503 -0.00000000000E+00 -0.00000000000E+00 -0.67700858652E+03  0.67700858652E+03  0.00000000000E+00 0. -1.
          6    2    1    2  501    0  0.41917837719E+02  0.97905075417E+02 -0.22269583907E+03  0.30150659093E+03  0.17311926157E+03 0.  0.
         24    2    3    3    0    0 -0.39308366208E+02  0.77509914350E+02 -0.15199943991E+03  0.19180823336E+03  0.78317521523E+02 0.  0.
         -6    2    1    2    0  502 -0.41917837719E+02 -0.97905075417E+02 -0.39025382047E+03  0.43956092258E+03  0.17196875110E+03 0.  0.
        -24    2    5    5    0    0  0.41281753588E+02 -0.34042935692E+02 -0.16204008951E+03  0.18835554469E+03  0.79735286759E+02 0.  0.
          5    1    3    3  501    0  0.81226203927E+02  0.20395161067E+02 -0.70696399161E+02  0.10969835757E+03  0.47000000000E+01 0. -1.
        -11    1    4    4    0    0  0.15125234536E+02 -0.67281602307E+01 -0.18383362839E+02  0.24738409188E+02  0.00000000000E+00 0.  1.
         12    1    4    4    0    0 -0.54433600745E+02  0.84238074581E+02 -0.13361607707E+03  0.16706982417E+03  0.00000000000E+00 0. -1.
         -5    1    5    5    0  502 -0.83199591308E+02 -0.63862139725E+02 -0.22821373095E+03  0.25120537789E+03  0.47000000000E+01 0.  1.
         11    1    6    6    0    0  0.14620887174E+02 -0.36208434861E+02 -0.20102694512E+02  0.43919692889E+02  0.00000000000E+00 0. -1.
        -12    1    6    6    0    0  0.26660866414E+02  0.21654991686E+01 -0.14193739500E+03  0.14443585180E+03  0.00000000000E+00 0.  1.
</event>
<event>
12    1  0.1615162E-001  0.2053103E+03  0.7818608E-02  0.1146028E+00
         21   -1    0    0  501  502  0.00000000000E+00  0.00000000000E+00  0.26098853114E+03  0.26098853114E+03  0.00000000000E+00 0.  1.
         21   -1    0    0  502  503 -0.00000000000E+00 -0.00000000000E+00 -0.15895619030E+03  0.15895619030E+03  0.00000000000E+00 0.  1.
         -6    2    1    2    0  503 -0.10828641812E+02 -0.10442766560E+03  0.45631270417E+02  0.20702832306E+03  0.17249961415E+03 0.  0.
        -24    2    3    3    0    0  0.53562210060E+02 -0.87361914714E+02  0.15343516103E+02  0.13370124948E+03  0.84496071725E+02 0.  0.
          6    2    1    2  501    0  0.10828641812E+02  0.10442766560E+03  0.56401070416E+02  0.21291639838E+03  0.17643671707E+03 0.  0.
         24    2    5    5    0    0 -0.26898164470E+02  0.13209751367E+03  0.29993991941E+02  0.15898722077E+03  0.78765680641E+02 0.  0.
          5    1    5    5  501    0  0.37726806282E+02 -0.27669848068E+02  0.26407078475E+02  0.53929177613E+02  0.47000000000E+01 0. -1.
        -11    1    6    6    0    0 -0.29311350970E+02  0.80984098566E+02 -0.18941932852E+02  0.88183764585E+02  0.00000000000E+00 0.  1.
         12    1    6    6    0    0  0.24131864998E+01  0.51113415102E+02  0.48935924794E+02  0.70803456186E+02  0.00000000000E+00 0. -1.
         -5    1    3    3    0  503 -0.64390851872E+02 -0.17065750886E+02  0.30287754313E+02  0.73327073578E+02  0.47000000000E+01 0.  1.
         13    1    4    4    0    0 -0.19128302138E+01  0.14298541893E+02 -0.65418183776E+01  0.15839905536E+02  0.00000000000E+00 0. -1.
        -14    1    4    4    0    0  0.55475040274E+02 -0.10166045661E+03  0.21885334481E+02  0.11786134394E+03  0.00000000000E+00 0.  1.
</event>
<event>
12    1  0.1615162E-001  0.2040613E+03  0.7818608E-02  0.1146558E+00
         21   -1    0    0  501  502  0.00000000000E+00  0.00000000000E+00  0.26164411180E+04  0.26164411180E+04  0.00000000000E+00 0.  1.
         21   -1    0    0  502  503 -0.00000000000E+00 -0.00000000000E+00 -0.18170738469E+02  0.18170738469E+02  0.00000000000E+00 0.  1.
         -6    2    1    2    0  503 -0.92664728946E+02  0.57590454365E+02  0.17682930919E+04  0.17799170007E+04  0.17129114954E+03 0.  0.
        -24    2    3    3    0    0 -0.40249301558E+02  0.41670111338E+02  0.16046461641E+04  0.16072808476E+04  0.71456327552E+02 0.  0.
          6    2    1    2  501    0  0.92664728946E+02 -0.57590454365E+02  0.82997728764E+03  0.85469485583E+03  0.17244589342E+03 0.  0.
         24    2    5    5    0    0  0.85014207109E+02 -0.74914330094E+02  0.38066979975E+03  0.40496387421E+03  0.79035882419E+02 0.  0.
          5    1    5    5  501    0  0.76505218370E+01  0.17323875728E+02  0.44930748789E+03  0.44973098162E+03  0.47000000000E+01 0. -1.
        -13    1    6    6    0    0  0.28013135328E+02 -0.60776866608E+02  0.28462638396E+03  0.29238799858E+03  0.00000000000E+00 0.  1.
         14    1    6    6    0    0  0.57001071781E+02 -0.14137463486E+02  0.96043415789E+02  0.11257587563E+03  0.00000000000E+00 0. -1.
         -5    1    3    3    0  503 -0.52415427388E+02  0.15920343028E+02  0.16364692783E+03  0.17263615304E+03  0.47000000000E+01 0.  1.
         11    1    4    4    0    0 -0.91519307125E+01 -0.12178094916E+02  0.84418553150E+02  0.85782025784E+02  0.00000000000E+00 0. -1.
        -12    1    4    4    0    0 -0.31097370846E+02  0.53848206254E+02  0.15202276110E+04  0.15214988219E+04  0.00000000000E+00 0.  1.
</event>
<event>
12    1  0.1615162E-001  0.1796591E+03  0.7818608E-02  0.1169773E+00
         21   -1    0    0  503  502  0.00000000000E+00  0.00000000000E+00  0.67917975900E+02  0.67917975900E+02  0.00000000000E+00 0.  1.
         21   -1    0    0  501  503 -0.00000000000E+00 -0.00000000000E+00 -0.89662388451E+03  0.89662388451E+03  0.00000000000E+00 0.  1.
          6    2    1    2  501    0 -0.24567389705E+02  0.74411908811E+01 -0.74770771078E+03  0.76746797197E+03  0.17111791045E+03 0.  0.
         24    2    3    3    0    0 -0.64954656149E+02 -0.11075974085E+02 -0.66934102384E+03  0.67726018787E+03  0.79512082889E+02 0.  0.
         -6    2    1    2    0  502  0.24567389705E+02 -0.74411908811E+01 -0.80998197828E+02  0.19707388844E+03  0.17781586401E+03 0.  0.
        -24    2    5    5    0    0 -0.18507455635E+02 -0.63601001982E+02 -0.39511797972E+02  0.11489981676E+03  0.85165558442E+02 0.  0.
          5    1    3    3  501    0  0.40387266444E+02  0.18517164966E+02 -0.78366686944E+02  0.90207784098E+02  0.47000000000E+01 0. -1.
        -13    1    4    4    0    0 -0.35618461838E+02  0.33410027966E+02 -0.37059442232E+03  0.37379824859E+03  0.00000000000E+00 0.  1.
         14    1    4    4    0    0 -0.29336194311E+02 -0.44486002052E+02 -0.29874660152E+03  0.30346193928E+03  0.00000000000E+00 0. -1.
         -5    1    5    5    0  502  0.43074845340E+02  0.56159811101E+02 -0.41486399856E+02  0.82174071683E+02  0.47000000000E+01 0.  1.
         13    1    6    6    0    0 -0.26264076067E+02 -0.33485479022E+02 -0.62930891613E+02  0.75969573621E+02  0.00000000000E+00 0. -1.
        -14    1    6    6    0    0  0.77566204317E+01 -0.30115522960E+02  0.23419093641E+02  0.38930243136E+02  0.00000000000E+00 0.  1.
</event>
<event>
12    1  0.1615162E-001  0.1891152E+03  0.7818608E-02  0.1159746E+00
         21   -1    0    0  501  502  0.00000000000E+00  0.00000000000E+00  0.19166232411E+03  0.19166232411E+03  0.00000000000E+00 0.  1.
         21   -1    0    0  502  503 -0.00000000000E+00 -0.00000000000E+00 -0.19354809310E+03  0.19354809310E+03  0.00000000000E+00 0.  1.
         -6    2    1    2    0  503  0.73974578968E+02 -0.81631964725E+01 -0.42559563846E+02  0.19384497706E+03  0.17385534949E+03 0.  0.
        -24    2    3    3    0    0  0.91994413447E+02 -0.58432423598E+02 -0.48873817855E+02  0.13986656069E+03  0.72778324344E+02 0.  0.
          6    2    1    2  501    0 -0.73974578968E+02  0.81631964725E+01  0.40673794849E+02  0.19136544015E+03  0.17154444901E+03 0.  0.
         24    2    5    5    0    0 -0.38755127297E+02  0.63708721813E+02 -0.92514175033E+01  0.10865914057E+03  0.78488591384E+02 0.  0.
          5    1    5    5  501    0 -0.35219451671E+02 -0.55545525340E+02  0.49925212352E+02  0.82706299577E+02  0.47000000000E+01 0. -1.
        -11    1    6    6    0    0 -0.53769731751E+02  0.72955277740E+02 -0.79851574931E+01  0.90980323932E+02  0.00000000000E+00 0.  1.
         12    1    6    6    0    0  0.15014604454E+02 -0.92465559270E+01 -0.12662600102E+01  0.17678816641E+02  0.00000000000E+00 0. -1.
         -5    1    3    3    0  503 -0.18019834479E+02  0.50269227125E+02  0.63142540089E+01  0.53978416373E+02  0.47000000000E+01 0.  1.
         13    1    4    4    0    0 -0.48285446544E+01  0.88452880415E+01 -0.13354400063E+02  0.16730031831E+02  0.00000000000E+00 0. -1.
        -14    1    4    4    0    0  0.96822958102E+02 -0.67277711639E+02 -0.35519417792E+02  0.12313652886E+03  0.00000000000E+00 0.  1.
</event>
<event>
12    1  0.1615162E-001  0.4173280E+03  0.7818608E-02  0.1037970E+00
         21   -1    0    0  503  502  0.00000000000E+00  0.00000000000E+00  0.40418953839E+03  0.40418953839E+03  0.00000000000E+00 0.  1.
         21   -1    0    0  501  503 -0.00000000000E+00 -0.00000000000E+00 -0.50555548811E+03  0.50555548811E+03  0.00000000000E+00 0. -1.
          6    2    1    2  501    0  0.35057801678E+03  0.14702477878E+03 -0.22595547586E+03  0.47457193917E+03  0.17216682884E+03 0.  0.
         24    2    3    3    0    0  0.10117661501E+03  0.54081288339E+02 -0.23821302029E+02  0.14032672103E+03  0.77218139266E+02 0.  0.
         -6    2    1    2    0  502 -0.35057801678E+03 -0.14702477878E+03  0.12458952613E+03  0.43517308734E+03  0.17126539199E+03 0.  0.
        -24    2    5    5    0    0 -0.26489559210E+03 -0.17413080804E+03  0.99482233428E+02  0.34174567772E+03  0.80013626657E+02 0.  0.
          5    1    3    3  501    0  0.24940140177E+03  0.92943490445E+02 -0.20213417383E+03  0.33424521814E+03  0.47000000000E+01 0. -1.
        -11    1    4    4    0    0  0.64693286036E+02  0.69196445283E+02 -0.10344881847E+01  0.94733518164E+02  0.00000000000E+00 0.  1.
         12    1    4    4    0    0  0.36483328974E+02 -0.15115156945E+02 -0.22786813844E+02  0.45593202867E+02  0.00000000000E+00 0. -1.
         -5    1    5    5    0  502 -0.85682424682E+02  0.27106029253E+02  0.25107292704E+02  0.93427409619E+02  0.47000000000E+01 0.  1.
         11    1    6    6    0    0 -0.40606001774E+02 -0.48803562527E+01 -0.65548686506E+01  0.41420183006E+02  0.00000000000E+00 0. -1.
        -12    1    6    6    0    0 -0.22428959032E+03 -0.16925045178E+03  0.10603710208E+03  0.30032549471E+03  0.00000000000E+00 0.  1.
</event>
<event>
12    1  0.1615162E-001  0.1900874E+03  0.7818608E-02  0.1158521E+00
         21   -1    0    0  501  502  0.00000000000E+00  0.00000000000E+00  0.99700543520E+03  0.99700543520E+03  0.00000000000E+00 0. -1.
         21   -1    0    0  502  503 -0.00000000000E+00 -0.00000000000E+00 -0.47743954729E+02  0.47743954729E+02  0.00000000000E+00 0. -1.
         -6    2    1    2    0  503 -0.30843473064E+02  0.73784523858E+02  0.73290561669E+03  0.75715510585E+03  0.17244632657E+03 0.  0.
        -24    2    3    3    0    0 -0.58367828366E+02 -0.11820391667E+02  0.36261906480E+03  0.37607766987E+03  0.79970635717E+02 0.  0.
          6    2    1    2  501    0  0.30843473064E+02 -0.73784523858E+02  0.21635586379E+03  0.28759428409E+03  0.17177059309E+03 0.  0.
         24    2    5    5    0    0 -0.37112835849E+02 -0.81097102656E+02  0.14009975213E+03  0.18508273208E+03  0.81691948948E+02 0.  0.
          5    1    5    5  501    0  0.67956308913E+02  0.73125787983E+01  0.76256111660E+02  0.10251155201E+03  0.47000000000E+01 0. -1.
        -11    1    6    6    0    0 -0.10383455583E+02 -0.75037569895E+02  0.13821183404E+03  0.15761016501E+03  0.00000000000E+00 0.  1.
         12    1    6    6    0    0 -0.26729380266E+02 -0.60595327614E+01  0.18879180905E+01  0.27472567070E+02  0.00000000000E+00 0. -1.
         -5    1    3    3    0  503  0.27524355302E+02  0.85604915525E+02  0.37028655189E+03  0.38107743597E+03  0.47000000000E+01 0.  1.
         13    1    4    4    0    0 -0.15794490696E+02  0.20359313877E+02  0.25140564214E+03  0.25272270277E+03  0.00000000000E+00 0. -1.
        -14    1    4    4    0    0 -0.42573337670E+02 -0.32179705544E+02  0.11121342266E+03  0.12335496710E+03  0.00000000000E+00 0.  1.
</event>
<event>
12    1  0.1615162E-001  0.4578450E+03  0.7818608E-02  0.1025456E+00
         21   -1    0    0  501  502  0.00000000000E+00  0.00000000000E+00  0.19807378045E+03  0.19807378045E+03  0.00000000000E+00 0.  1.
         21   -1    0    0  502  503 -0.00000000000E+00 -0.00000000000E+00 -0.11192301599E+04  0.11192301599E+04  0.00000000000E+00 0. -1.
         -6    2    1    2    0  503 -0.41212845147E+03  0.10445489297E+03 -0.61584537818E+03  0.76699781739E+03  0.16810543380E+03 0.  0.
        -24    2    3    3    0    0 -0.18226683599E+03  0.10913453085E+03 -0.29085348795E+03  0.36887713217E+03  0.79643216028E+02 0.  0.
          6    2    1    2  501    0  0.41212845147E+03 -0.10445489297E+03 -0.30531100126E+03  0.55030612295E+03  0.16988624513E+03 0.  0.
         24    2    5    5    0    0  0.32117867760E+03 -0.13591974310E+03 -0.26718484012E+03  0.44668376858E+03  0.80676705539E+02 0.  0.
          5    1    5    5  501    0  0.90949773875E+02  0.31464850125E+02 -0.38126161144E+02  0.10362235437E+03  0.47000000000E+01 0. -1.
        -13    1    6    6    0    0  0.17619893661E+02 -0.17510403353E+02  0.72145726390E+00  0.24851466331E+02  0.00000000000E+00 0.  1.
         14    1    6    6    0    0  0.30355878394E+03 -0.11840933974E+03 -0.26790629738E+03  0.42183230225E+03  0.00000000000E+00 0. -1.
         -5    1    3    3    0  503 -0.22986161548E+03 -0.46796378798E+01 -0.32499189022E+03  0.39812068521E+03  0.47000000000E+01 0.  1.
         11    1    4    4    0    0 -0.15857684634E+03  0.10050457747E+03 -0.28759979001E+03  0.34345512880E+03  0.00000000000E+00 0. -1.
        -12    1    4    4    0    0 -0.23689989652E+02  0.86299533761E+01 -0.32536979438E+01  0.25422003369E+02  0.00000000000E+00 0.  1.
</event>
<event>
12    1  0.1615162E-001  0.2633089E+03  0.7818608E-02  0.1105322E+00
         21   -1    0    0  501  502  0.00000000000E+00  0.00000000000E+00  0.81280268077E+02  0.81280268077E+02  0.00000000000E+00 0.  1.
         21   -1    0    0  502  503 -0.00000000000E+00 -0.00000000000E+00 -0.86343245247E+03  0.86343245247E+03  0.00000000000E+00 0. -1.
         -6    2    1    2    0  503 -0.86340748147E+02  0.17869161075E+03 -0.44991354503E+03  0.52078572327E+03  0.17149389208E+03 0.  0.
        -24    2    3    3    0    0  0.37594925171E+01  0.33357236535E+02 -0.19843254388E+03  0.21663951233E+03  0.80189555522E+02 0.  0.
          6    2    1    2  501    0  0.86340748147E+02 -0.17869161075E+03 -0.33223863937E+03  0.42392699728E+03  0.17304961424E+03 0.  0.
         24    2    5    5    0    0 -0.40465689503E+01 -0.14674674038E+03 -0.22981092943E+03  0.28355653173E+03  0.77719128071E+02 0.  0.
          5    1    5    5  501    0  0.90387317098E+02 -0.31944870369E+02 -0.10242770994E+03  0.14037046555E+03  0.47000000000E+01 0. -1.
        -11    1    6    6    0    0  0.31851525784E+02 -0.71857078239E+02 -0.79298910692E+02  0.11165248150E+03  0.00000000000E+00 0.  1.
         12    1    6    6    0    0 -0.35898094734E+02 -0.74889662143E+02 -0.15051201874E+03  0.17190405023E+03  0.00000000000E+00 0. -1.
         -5    1    3    3    0  503 -0.90100240664E+02  0.14533437422E+03 -0.25148100114E+03  0.30414621094E+03  0.47000000000E+01 0.  1.
         11    1    4    4    0    0  0.15051690269E+01  0.54432363370E+02 -0.82938130069E+02  0.99216335022E+02  0.00000000000E+00 0. -1.
        -12    1    4    4    0    0  0.22543234902E+01 -0.21075126835E+02 -0.11549441382E+03  0.11742317730E+03  0.00000000000E+00 0.  1.
</event>
<event>
12    1  0.1615162E-001  0.1789845E+03  0.7818608E-02  0.1169395E+00
         21   -1    0    0  503  502  0.00000000000E+00  0.00000000000E+00  0.25996840309E+03  0.25996840309E+03  0.00000000000E+00 0. -1.
         21   -1    0    0  501  503 -0.00000000000E+00 -0.00000000000E+00 -0.19719061716E+03  0.19719061716E+03  0.00000000000E+00 0. -1.
          6    2    1    2  501    0 -0.42958779676E+02 -0.22205244600E+02 -0.11005747713E+03  0.21011452526E+03  0.17232798906E+03 0.  0.
         24    2    3    3    0    0 -0.46950841431E+02  0.22234450561E+02 -0.37363040847E+01  0.94714763993E+02  0.79108623090E+02 0.  0.
         -6    2    1    2    0  502  0.42958779676E+02  0.22205244600E+02  0.17283526306E+03  0.24704449498E+03  0.16976579368E+03 0.  0.
        -24    2    5    5    0    0 -0.78616597960E+00 -0.10350349256E+02  0.17297065216E+03  0.19231246330E+03  0.83411565416E+02 0.  0.
          5    1    3    3  501    0  0.39920617545E+01 -0.44439695160E+02 -0.10632117305E+03  0.11539976127E+03  0.47000000000E+01 0. -1.
        -11    1    4    4    0    0 -0.15574060415E+02  0.50223414955E+02 -0.13236049393E+01  0.52599379251E+02  0.00000000000E+00 0.  1.
         12    1    4    4    0    0 -0.31376781015E+02 -0.27988964394E+02 -0.24126991454E+01  0.42115384742E+02  0.00000000000E+00 0. -1.
         -5    1    5    5    0  502  0.43744945656E+02  0.32555593855E+02 -0.13538910117E+00  0.54732031681E+02  0.47000000000E+01 0.  1.
         11    1    6    6    0    0  0.41169377233E+02 -0.79142153497E+01  0.91197446256E+02  0.10037194145E+03  0.00000000000E+00 0. -1.
        -12    1    6    6    0    0 -0.41955543213E+02 -0.24361339059E+01  0.81773205905E+02  0.91940521854E+02  0.00000000000E+00 0.  1.
</event>
<event>
12    1  0.1615162E-001  0.1888888E+03  0.7818608E-02  0.1162220E+00
         21   -1    0    0  501  502  0.00000000000E+00  0.00000000000E+00  0.34508508657E+02  0.34508508657E+02  0.00000000000E+00 0.  1.
         21   -1    0    0  502  503 -0.00000000000E+00 -0.00000000000E+00 -0.13469503774E+04  0.13469503774E+04  0.00000000000E+00 0.  1.
         -6    2    1    2    0  503  0.65360715735E+02  0.31402456593E+02 -0.10362089550E+04  0.10532843804E+04  0.17441573975E+03 0.  0.
        -24    2    3    3    0    0 -0.10836982685E+02  0.64836306186E+01 -0.24217829883E+03  0.25520304999E+03  0.79490821082E+02 0.  0.
          6    2    1    2  501    0 -0.65360715735E+02 -0.31402456593E+02 -0.27623291375E+03  0.32817450559E+03  0.16166553758E+03 0.  0.
         24    2    5    5    0    0 -0.17284153099E+02  0.35088811534E+02 -0.19052542267E+03  0.20942978513E+03  0.77659072691E+02 0.  0.
          5    1    5    5  501    0 -0.48076562636E+02 -0.66491268127E+02 -0.85707491078E+02  0.11874472047E+03  0.47000000000E+01 0. -1.
        -11    1    6    6    0    0 -0.30893754967E+02  0.23600033571E+02 -0.33270389181E+02  0.51169370494E+02  0.00000000000E+00 0.  1.
         12    1    6    6    0    0  0.13609601867E+02  0.11488777963E+02 -0.15725503349E+03  0.15826041463E+03  0.00000000000E+00 0. -1.
         -5    1    3    3    0  503  0.76197698420E+02  0.24918825974E+02 -0.79403065614E+03  0.79808133046E+03  0.47000000000E+01 0.  1.
         11    1    4    4    0    0  0.15833227514E+02 -0.27769802117E+02 -0.60679070259E+02  0.68584273493E+02  0.00000000000E+00 0. -1.
        -12    1    4    4    0    0 -0.26670210200E+02  0.34253432735E+02 -0.18149922857E+03  0.18661877649E+03  0.00000000000E+00 0.  1.
</event>
<event>
12    1  0.1615162E-001  0.2099540E+03  0.7818608E-02  0.1141844E+00
         21   -1    0    0  503  502  0.00000000000E+00  0.00000000000E+00  0.45347827189E+02  0.45347827189E+02  0.00000000000E+00 0. -1.
         21   -1    0    0  501  503 -0.00000000000E+00 -0.00000000000E+00 -0.21364528580E+04  0.21364528580E+04  0.00000000000E+00 0. -1.
          6    2    1    2  501    0  0.54085193976E+02 -0.10517516939E+03 -0.18514762181E+04  0.18632058860E+04  0.17200279994E+03 0.  0.
         24    2    3    3    0    0 -0.44242802293E+01 -0.76944220661E+01 -0.45088681399E+03  0.45800176439E+03  0.79924456585E+02 0.  0.
         -6    2    1    2    0  502 -0.54085193976E+02  0.10517516939E+03 -0.23962881273E+03  0.31859479915E+03  0.17347522501E+03 0.  0.
        -24    2    5    5    0    0 -0.44498218931E+02  0.40901206084E+02 -0.44702720878E+02  0.11306785753E+03  0.84457131163E+02 0.  0.
          5    1    3    3  501    0  0.58509474206E+02 -0.97480747319E+02 -0.14005894041E+04  0.14052041217E+04  0.47000000000E+01 0. -1.
        -13    1    4    4    0    0 -0.27476411095E+02 -0.11737019155E+02 -0.66507650835E+02  0.72910756442E+02  0.00000000000E+00 0.  1.
         14    1    4    4    0    0  0.23052130866E+02  0.40425970891E+01 -0.38437916316E+03  0.38509100794E+03  0.00000000000E+00 0. -1.
         -5    1    5    5    0  502 -0.95869750452E+01  0.64273963301E+02 -0.19492609185E+03  0.20552694162E+03  0.47000000000E+01 0.  1.
         13    1    6    6    0    0 -0.70650209428E+01 -0.26027356236E+02 -0.14758394491E+02  0.30743259448E+02  0.00000000000E+00 0. -1.
        -14    1    6    6    0    0 -0.37433197989E+02  0.66928562319E+02 -0.29944326386E+02  0.82324598077E+02  0.00000000000E+00 0.  1.
</event>
<event>
12    1  0.1615162E-001  0.1963455E+03  0.7818608E-02  0.1153235E+00
         21   -1    0    0  503  502  0.00000000000E+00  0.00000000000E+00  0.79062624692E+03  0.79062624692E+03  0.00000000000E+00 0. -1.
         21   -1    0    0  501  503 -0.00000000000E+00 -0.00000000000E+00 -0.54361815149E+02  0.54361815149E+02  0.00000000000E+00 0. -1.
          6    2    1    2  501    0  0.95600415190E+02 -0.94206309693E+01  0.22887071078E+03  0.30155158594E+03  0.17124067583E+03 0.  0.
         24    2    3    3    0    0  0.12036075620E+03  0.10443911774E+02  0.22602720953E+03  0.26933590583E+03  0.82811495542E+02 0.  0.
         -6    2    1    2    0  502 -0.95600415190E+02  0.94206309693E+01  0.50739372100E+03  0.54343647613E+03  0.16925314712E+03 0.  0.
        -24    2    5    5    0    0 -0.20953789973E+02  0.15585108571E+01  0.11681650646E+03  0.14568456589E+03  0.84477253065E+02 0.  0.
          5    1    3    3  501    0 -0.24760341014E+02 -0.19864542743E+02  0.28435012433E+01  0.32215680109E+02  0.47000000000E+01 0. -1.
        -13    1    4    4    0    0  0.72711913958E+02 -0.14104095920E+02  0.61416027077E+02  0.96217858711E+02  0.00000000000E+00 0.  1.
         14    1    4    4    0    0  0.47648842246E+02  0.24548007694E+02  0.16461118246E+03  0.17311804712E+03  0.00000000000E+00 0. -1.
         -5    1    5    5    0  502 -0.74646625216E+02  0.78621201122E+01  0.39057721454E+03  0.39775191024E+03  0.47000000000E+01 0.  1.
         11    1    6    6    0    0  0.25835907843E+02  0.21712373500E+02  0.30675724111E+02  0.45606154703E+02  0.00000000000E+00 0. -1.
        -12    1    6    6    0    0 -0.46789697816E+02 -0.20153862643E+02  0.86140782351E+02  0.10007841118E+03  0.00000000000E+00 0.  1.
</event>
<event>
12    1  0.1615162E-001  0.1887214E+03  0.7818608E-02  0.1161511E+00
         21   -1    0    0  503  502  0.00000000000E+00  0.00000000000E+00  0.58807367188E+02  0.58807367188E+02  0.00000000000E+00 0.  1.
         21   -1    0    0  501  503 -0.00000000000E+00 -0.00000000000E+00 -0.62906378272E+03  0.62906378272E+03  0.00000000000E+00 0.  1.
          6    2    1    2  501    0  0.41778859411E+02  0.40910884453E+02 -0.38708567206E+03  0.43064029895E+03  0.17943404361E+03 0.  0.
         24    2    3    3    0    0  0.35802136133E+01  0.24320502721E+02 -0.37809340314E+03  0.38777623233E+03  0.82531691362E+02 0.  0.
         -6    2    1    2    0  502 -0.41778859411E+02 -0.40910884453E+02 -0.18317074347E+03  0.25723085096E+03  0.17087134300E+03 0.  0.
        -24    2    5    5    0    0 -0.29974127516E+02 -0.57704970368E+02 -0.36989626635E+02  0.10954062807E+03  0.80016278306E+02 0.  0.
          5    1    3    3  501    0  0.38198645798E+02  0.16590381732E+02 -0.89922689156E+01  0.42864066618E+02  0.47000000000E+01 0. -1.
        -11    1    4    4    0    0  0.10250852608E+02  0.50869203828E+02 -0.16594860880E+03  0.17387264489E+03  0.00000000000E+00 0.  1.
         12    1    4    4    0    0 -0.66706389946E+01 -0.26548701107E+02 -0.21214479434E+03  0.21390358744E+03  0.00000000000E+00 0. -1.
         -5    1    5    5    0  502 -0.11804731895E+02  0.16794085916E+02 -0.14618111684E+03  0.14769022289E+03  0.47000000000E+01 0.  1.
         11    1    6    6    0    0  0.25721765215E+02 -0.20525491338E+02 -0.25422372141E+02  0.41583674750E+02  0.00000000000E+00 0. -1.
        -12    1    6    6    0    0 -0.55695892731E+02 -0.37179479030E+02 -0.11567254494E+02  0.67956953320E+02  0.00000000000E+00 0.  1.
</event>
<event>
12    1  0.1615162E-001  0.1787538E+03  0.7818608E-02  0.1170718E+00
         21   -1    0    0  501  502  0.00000000000E+00  0.00000000000E+00  0.18459074759E+03  0.18459074759E+03  0.00000000000E+00 0.  1.
         21   -1    0    0  502  503 -0.00000000000E+00 -0.00000000000E+00 -0.18779019919E+03  0.18779019919E+03  0.00000000000E+00 0.  1.
         -6    2    1    2    0  503 -0.36875847700E+02 -0.26111624402E-01 -0.64182936371E+02  0.18351089310E+03  0.16791953352E+03 0.  0.
        -24    2    3    3    0    0 -0.13355864290E+02  0.50933924633E+02 -0.73081364226E+01  0.10346748122E+03  0.88766362005E+02 0.  0.
          6    2    1    2  501    0  0.36875847700E+02  0.26111624402E-01  0.60983484775E+02  0.18887005369E+03  0.17490878462E+03 0.  0.
         24    2    5    5    0    0  0.82645894517E+02  0.34963778390E+02  0.44298215369E+02  0.12873665232E+03  0.80981381109E+02 0.  0.
          5    1    5    5  501    0 -0.45770046816E+02 -0.34937666766E+02  0.16685269405E+02  0.60133401365E+02  0.47000000000E+01 0. -1.
        -11    1    6    6    0    0  0.26077794728E+02  0.24297064848E+02  0.59355542852E+02  0.69234956527E+02  0.00000000000E+00 0.  1.
         12    1    6    6    0    0  0.56568099788E+02  0.10666713543E+02 -0.15057327483E+02  0.59501695794E+02  0.00000000000E+00 0. -1.
         -5    1    3    3    0  503 -0.23519983411E+02 -0.50960036257E+02 -0.56874799949E+02  0.80043411873E+02  0.47000000000E+01 0.  1.
         13    1    4    4    0    0 -0.13120220592E+02  0.75526947718E+02 -0.14119499370E+02  0.77947548277E+02  0.00000000000E+00 0. -1.
        -14    1    4    4    0    0 -0.23564369788E+00 -0.24593023085E+02  0.68113629479E+01  0.25519932947E+02  0.00000000000E+00 0.  1.
</event>
<event>
12    1  0.1615162E-001  0.2135020E+03  0.7818608E-02  0.1139089E+00
         21   -1    0    0  503  502  0.00000000000E+00  0.00000000000E+00  0.28915718823E+03  0.28915718823E+03  0.00000000000E+00 0. -1.
         21   -1    0    0  501  503 -0.00000000000E+00 -0.00000000000E+00 -0.16982190720E+03  0.16982190720E+03  0.00000000000E+00 0. -1.
          6    2    1    2  501    0  0.29178043731E+02 -0.12023453073E+03  0.12380303963E+03  0.24680012752E+03  0.17399830376E+03 0.  0.
         24    2    3    3    0    0 -0.23884633263E+02 -0.47483808687E+02  0.31872171456E+01  0.96206031094E+02  0.80126489204E+02 0.  0.
         -6    2    1    2    0  502 -0.29178043731E+02  0.12023453073E+03 -0.44677585921E+01  0.21217896790E+03  0.17231440142E+03 0.  0.
        -24    2    5    5    0    0 -0.22957028104E+02  0.72538245252E+02  0.65555976401E+02  0.12709636012E+03  0.77891440809E+02 0.  0.
          5    1    3    3  501    0  0.53062676993E+02 -0.72750722043E+02  0.12061582248E+03  0.15059409643E+03  0.47000000000E+01 0. -1.
        -13    1    4    4    0    0 -0.37553668653E+02  0.74272554394E+01 -0.64012339987E+01  0.38812600395E+02  0.00000000000E+00 0.  1.
         14    1    4    4    0    0  0.13669035391E+02 -0.54911064127E+02  0.95884511442E+01  0.57393430699E+02  0.00000000000E+00 0. -1.
         -5    1    5    5    0  502 -0.62210156265E+01  0.47696285478E+02 -0.70023734993E+02  0.85082607778E+02  0.47000000000E+01 0.  1.
         13    1    6    6    0    0 -0.17712828507E+02  0.86085272578E+02  0.37604824779E+02  0.95595717975E+02  0.00000000000E+00 0. -1.
        -14    1    6    6    0    0 -0.52441995970E+01 -0.13547027326E+02  0.27951151622E+02  0.31500642149E+02  0.00000000000E+00 0.  1.
</event>
<event>
12    1  0.1615162E-001  0.3043732E+03  0.7818608E-02  0.1083199E+00
         21   -1    0    0  503  502  0.00000000000E+00  0.00000000000E+00  0.16728543253E+04  0.16728543253E+04  0.00000000000E+00 0. -1.
         21   -1    0    0  501  503 -0.00000000000E+00 -0.00000000000E+00 -0.57349752444E+02  0.57349752444E+02  0.00000000000E+00 0.  1.
          6    2    1    2  501    0 -0.70796310131E+02  0.23951427266E+03  0.97408331449E+03  0.10202292428E+04  0.17219233450E+03 0.  0.
         24    2    3    3    0    0 -0.32638085814E+02  0.51740883983E+02  0.22581774198E+03  0.24780555563E+03  0.81679722609E+02 0.  0.
         -6    2    1    2    0  502  0.70796310131E+02 -0.23951427266E+03  0.64142125836E+03  0.70997483489E+03  0.17396502857E+03 0.  0.
        -24    2    5    5    0    0  0.59641145104E+02 -0.14390611948E+03  0.24044861758E+03  0.29758363067E+03  0.80463918223E+02 0.  0.
          5    1    3    3  501    0 -0.38158224317E+02  0.18777338868E+03  0.74826557251E+03  0.77242368722E+03  0.47000000000E+01 0. -1.
        -13    1    4    4    0    0 -0.92044030928E+01  0.70982156188E+02  0.16465499567E+03  0.17953956426E+03  0.00000000000E+00 0.  1.
         14    1    4    4    0    0 -0.23433682721E+02 -0.19241272204E+02  0.61162746310E+02  0.68265991373E+02  0.00000000000E+00 0. -1.
         -5    1    5    5    0  502  0.11155165027E+02 -0.95608153180E+02  0.40097264078E+03  0.41239120422E+03  0.47000000000E+01 0.  1.
         11    1    6    6    0    0  0.26780323646E+02 -0.92194208002E+02  0.20605019909E+03  0.22731837205E+03  0.00000000000E+00 0. -1.
        -12    1    6    6    0    0  0.32860821457E+02 -0.51711911476E+02  0.34398418486E+02  0.70265258626E+02  0.00000000000E+00 0.  1.
</event>
<event>
12    1  0.1615162E-001  0.1900482E+03  0.7818608E-02  0.1158440E+00
         21   -1    0    0  501  502  0.00000000000E+00  0.00000000000E+00  0.10043088123E+04  0.10043088123E+04  0.00000000000E+00 0. -1.
         21   -1    0    0  502  503 -0.00000000000E+00 -0.00000000000E+00 -0.15392644404E+03  0.15392644404E+03  0.00000000000E+00 0. -1.
         -6    2    1    2    0  503 -0.66751060575E+02 -0.41838944492E+02 -0.81793960659E+02  0.20690236665E+03  0.17295125314E+03 0.  0.
        -24    2    3    3    0    0 -0.70523825536E+01 -0.31377590320E+02 -0.11066654129E+03  0.13960386740E+03  0.78790019402E+02 0.  0.
          6    2    1    2  501    0  0.66751060575E+02  0.41838944492E+02  0.93217632892E+03  0.95133288970E+03  0.17284489422E+03 0.  0.
         24    2    5    5    0    0  0.21407455464E+01 -0.37994001580E+02  0.41601053136E+03  0.42502783304E+03  0.78331154173E+02 0.  0.
          5    1    5    5  501    0  0.64610315028E+02  0.79832946072E+02  0.51616579756E+03  0.52630505666E+03  0.47000000000E+01 0. -1.
        -13    1    6    6    0    0 -0.29915593987E+02  0.18802875513E+01  0.85978644554E+02  0.91053860787E+02  0.00000000000E+00 0.  1.
         14    1    6    6    0    0  0.32056339533E+02 -0.39874289131E+02  0.33003188680E+03  0.33397397226E+03  0.00000000000E+00 0. -1.
         -5    1    3    3    0  503 -0.59698678021E+02 -0.10461354172E+02  0.28872580635E+02  0.67298499249E+02  0.47000000000E+01 0.  1.
         11    1    4    4    0    0 -0.34012530221E+02 -0.33879512733E+01 -0.88483886361E+02  0.94856357570E+02  0.00000000000E+00 0. -1.
        -12    1    4    4    0    0  0.26960147668E+02 -0.27989639046E+02 -0.22182654934E+02  0.44747509831E+02  0.00000000000E+00 0.  1.
</event>
<event>
12    1  0.1615162E-001  0.2548260E+03  0.7818608E-02  0.1110416E+00
         21   -1    0    0  501  502  0.00000000000E+00  0.00000000000E+00  0.14598503728E+03  0.14598503728E+03  0.00000000000E+00 0.  1.
         21   -1    0    0  502  503 -0.00000000000E+00 -0.00000000000E+00 -0.74915271815E+03  0.74915271815E+03  0.00000000000E+00 0. -1.
         -6    2    1    2    0  503  0.18365136823E+02  0.18710295859E+03 -0.58778361785E+03  0.64064488168E+03  0.17202176507E+03 0.  0.
        -24    2    3    3    0    0 -0.34618968334E+02  0.12889611602E+03 -0.26029013294E+03  0.30379265210E+03  0.82014269918E+02 0.  0.
          6    2    1    2  501    0 -0.18365136823E+02 -0.18710295859E+03 -0.15384063020E+02  0.25449287375E+03  0.17083664135E+03 0.  0.
         24    2    5    5    0    0 -0.39585761902E+02 -0.16936664305E+03  0.37772189026E+02  0.19438822376E+03  0.78153380940E+02 0.  0.
          5    1    5    5  501    0  0.21220625079E+02 -0.17736315544E+02 -0.53156252046E+02  0.60104649981E+02  0.47000000000E+01 0. -1.
        -11    1    6    6    0    0 -0.14442260666E+02  0.26623180541E+01 -0.46990017223E+01  0.15419061183E+02  0.00000000000E+00 0.  1.
         12    1    6    6    0    0 -0.25143501236E+02 -0.17202896110E+03  0.42471190749E+02  0.17896916258E+03  0.00000000000E+00 0. -1.
         -5    1    3    3    0  503  0.52984105157E+02  0.58206842574E+02 -0.32749348491E+03  0.33685222959E+03  0.47000000000E+01 0.  1.
         11    1    4    4    0    0  0.85974206521E+01 -0.34402315890E+01 -0.54854814604E+02  0.55630940316E+02  0.00000000000E+00 0. -1.
        -12    1    4    4    0    0 -0.43216388986E+02  0.13233634760E+03 -0.20543531833E+03  0.24816171178E+03  0.00000000000E+00 0.  1.
</event>
<event>
12    1  0.1615162E-001  0.2237030E+03  0.7818608E-02  0.1131244E+00
         21   -1    0    0  503  502  0.00000000000E+00  0.00000000000E+00  0.54322204032E+02  0.54322204032E+02  0.00000000000E+00 0. -1.
         21   -1    0    0  501  503 -0.00000000000E+00 -0.00000000000E+00 -0.93566935278E+03  0.93566935278E+03  0.00000000000E+00 0. -1.
          6    2    1    2  501    0 -0.61560935809E+02 -0.12825304625E+03 -0.37443092891E+03  0.43590936434E+03  0.17198796674E+03 0.  0.
         24    2    3    3    0    0  0.10815209175E+02 -0.59816189021E+02 -0.28607507496E+03  0.30267739851E+03  0.77972519766E+02 0.  0.
         -6    2    1    2    0  502  0.61560935809E+02  0.12825304625E+03 -0.50691621984E+03  0.55408219248E+03  0.17263959393E+03 0.  0.
        -24    2    5    5    0    0 -0.23154508194E+01  0.12889825270E+03 -0.35756334592E+03  0.39157379267E+03  0.94118902983E+02 0.  0.
          5    1    3    3  501    0 -0.72376144984E+02 -0.68436857232E+02 -0.88355853952E+02  0.13323196583E+03  0.47000000000E+01 0. -1.
        -13    1    4    4    0    0  0.23807872571E+02 -0.78298574580E+01 -0.19801742708E+03  0.19959715152E+03  0.00000000000E+00 0.  1.
         14    1    4    4    0    0 -0.12992663395E+02 -0.51986331563E+02 -0.88057647871E+02  0.10308024699E+03  0.00000000000E+00 0. -1.
         -5    1    5    5    0  502  0.63876386628E+02 -0.64520644289E+00 -0.14935287392E+03  0.16250839981E+03  0.47000000000E+01 0.  1.
         13    1    6    6    0    0  0.95036966413E+01  0.10268854732E+03 -0.34520289008E+03  0.36027807777E+03  0.00000000000E+00 0. -1.
        -14    1    6    6    0    0 -0.11819147461E+02  0.26209705375E+02 -0.12360455841E+02  0.31295714901E+02  0.00000000000E+00 0.  1.
</event>
<event>
12    1  0.1615162E-001  0.1727556E+03  0.7818608E-02  0.1176690E+00
         21   -1    0    0  503  502  0.00000000000E+00  0.00000000000E+00  0.94491993394E+02  0.94491993394E+02  0.00000000000E+00 0. -1.
         21   -1    0    0  501  503 -0.00000000000E+00 -0.00000000000E+00 -0.39366473208E+03  0.39366473208E+03  0.00000000000E+00 0. -1.
          6    2    1    2  501    0 -0.88180988219E+01 -0.16487405371E+02 -0.26818354014E+03  0.31900927946E+03  0.17174083900E+03 0.  0.
         24    2    3    3    0    0 -0.29565048581E+02 -0.73550830411E+02 -0.17750051023E+03  0.20977479629E+03  0.78836649307E+02 0.  0.
         -6    2    1    2    0  502  0.88180988219E+01  0.16487405371E+02 -0.30989198554E+02  0.16914744602E+03  0.16522994482E+03 0.  0.
        -24    2    5    5    0    0  0.42038711006E+01  0.39349974493E+02  0.37536930114E+02  0.96608432550E+02  0.79737538791E+02 0.  0.
          5    1    3    3  501    0  0.20746949759E+02  0.57063425040E+02 -0.90683029901E+02  0.10923448317E+03  0.47000000000E+01 0. -1.
        -11    1    4    4    0    0  0.55019024918E+01  0.11040425447E+02 -0.29817931910E+01  0.12690666480E+02  0.00000000000E+00 0.  1.
         12    1    4    4    0    0 -0.35066951073E+02 -0.84591255858E+02 -0.17451871704E+03  0.19708412981E+03  0.00000000000E+00 0. -1.
         -5    1    5    5    0  502  0.46142277214E+01 -0.22862569122E+02 -0.68526128668E+02  0.72539013466E+02  0.47000000000E+01 0.  1.
         11    1    6    6    0    0 -0.31518414312E+02  0.39749106927E+02  0.33187249541E+02  0.60620091342E+02  0.00000000000E+00 0. -1.
        -12    1    6    6    0    0  0.35722285413E+02 -0.39913243336E+00  0.43496805725E+01  0.35988341208E+02  0.00000000000E+00 0.  1.
</event>
<event>
12    1  0.1615162E-001  0.2835465E+03  0.7818608E-02  0.1093880E+00
         21   -1    0    0  501  502  0.00000000000E+00  0.00000000000E+00  0.53517405268E+03  0.53517405268E+03  0.00000000000E+00 0. -1.
         21   -1    0    0  502  503 -0.00000000000E+00 -0.00000000000E+00 -0.15932189606E+03  0.15932189606E+03  0.00000000000E+00 0.  1.
         -6    2    1    2    0  503 -0.14744284082E+03  0.17066132445E+03  0.10271172355E+03  0.30079004768E+03  0.17047074720E+03 0.  0.
        -24    2    3    3    0    0 -0.13951424234E+03  0.12994765801E+03  0.19176435497E+02  0.20740536125E+03  0.79363912186E+02 0.  0.
          6    2    1    2  501    0  0.14744284082E+03 -0.17066132445E+03  0.27314043307E+03  0.39370590106E+03  0.17185447733E+03 0.  0.
         24    2    5    5    0    0  0.13614329766E+03 -0.76952012919E+02  0.11616673979E+03  0.21047941519E+03  0.79688537414E+02 0.  0.
          5    1    5    5  501    0  0.11299543166E+02 -0.93709311534E+02  0.15697369328E+03  0.18322648587E+03  0.47000000000E+01 0. -1.
        -11    1    6    6    0    0  0.21820656292E+02  0.16859839179E+02  0.16323165969E+02  0.32044359338E+02  0.00000000000E+00 0.  1.
         12    1    6    6    0    0  0.11432264137E+03 -0.93811852098E+02  0.99843573824E+02  0.17843505585E+03  0.00000000000E+00 0. -1.
         -5    1    3    3    0  503 -0.79285984867E+01  0.40713666438E+02  0.83535288056E+02  0.93384686428E+02  0.47000000000E+01 0.  1.
         13    1    4    4    0    0 -0.35070740567E+02  0.14968976847E+02 -0.25382234798E+02  0.45807040453E+02  0.00000000000E+00 0. -1.
        -14    1    4    4    0    0 -0.10444350177E+03  0.11497868117E+03  0.44558670295E+02  0.16159832079E+03  0.00000000000E+00 0.  1.
</event>
<event>
12    1  0.1615162E-001  0.1961649E+03  0.7818608E-02  0.1153225E+00
         21   -1    0    0  501  502  0.00000000000E+00  0.00000000000E+00  0.42412459532E+03  0.42412459532E+03  0.00000000000E+00 0.  1.
         21   -1    0    0  502  503 -0.00000000000E+00 -0.00000000000E+00 -0.13862099175E+03  0.13862099175E+03  0.00000000000E+00 0.  1.
         -6    2    1    2    0  503 -0.79641117833E+02  0.49823331768E+02 -0.23170979432E+02  0.19752865505E+03  0.17220802316E+03 0.  0.
        -24    2    3    3    0    0 -0.40579652237E+02  0.71045312827E+02  0.21079963635E+02  0.13462868258E+03  0.10481589887E+03 0.  0.
          6    2    1    2  501    0  0.79641117833E+02 -0.49823331768E+02  0.30867458300E+03  0.36521693202E+03  0.17110913829E+03 0.  0.
         24    2    5    5    0    0  0.10125217671E+03 -0.78044879742E+02  0.28208084150E+03  0.32057602340E+03  0.82803255315E+02 0.  0.
          5    1    5    5  501    0 -0.21611058880E+02  0.28221547974E+02  0.26593741497E+02  0.44640908624E+02  0.47000000000E+01 0. -1.
        -13    1    6    6    0    0  0.67397283666E+02 -0.63544703343E+02  0.26353562285E+03  0.27934091658E+03  0.00000000000E+00 0.  1.
         14    1    6    6    0    0  0.33854893047E+02 -0.14500176399E+02  0.18545218655E+02  0.41235106812E+02  0.00000000000E+00 0. -1.
         -5    1    3    3    0  503 -0.39061465596E+02 -0.21221981059E+02 -0.44250943067E+02  0.62899972472E+02  0.47000000000E+01 0.  1.
         13    1    4    4    0    0 -0.59488508366E+02  0.20738607517E+02  0.43329739224E+02  0.76462008675E+02  0.00000000000E+00 0. -1.
        -14    1    4    4    0    0  0.18908856129E+02  0.50306705310E+02 -0.22249775589E+02  0.58166673903E+02  0.00000000000E+00 0.  1.
</event>
<event>
12    1  0.1615162E-001  0.2140160E+03  0.7818608E-02  0.1138708E+00
         21   -1    0    0  503  502  0.00000000000E+00  0.00000000000E+00  0.19795779328E+03  0.19795779328E+03  0.00000000000E+00 0.  1.
         21   -1    0    0  501  503 -0.00000000000E+00 -0.00000000000E+00 -0.25710560581E+03  0.25710560581E+03  0.00000000000E+00 0.  1.
          6    2    1    2  501    0  0.46885774881E+02 -0.11807627069E+03 -0.10381713429E+03  0.23786730792E+03  0.17222827067E+03 0.  0.
         24    2    3    3    0    0 -0.15229173755E+02 -0.71673463208E+02 -0.11649705735E+03  0.15916306512E+03  0.79951884684E+02 0.  0.
         -6    2    1    2    0  502 -0.46885774881E+02  0.11807627069E+03  0.44669321758E+02  0.21719609116E+03  0.17040690163E+03 0.  0.
        -24    2    5    5    0    0 -0.23319721722E+01  0.23134682918E+02 -0.30084366601E+02  0.88319598553E+02  0.79715937722E+02 0.  0.
          5    1    3    3  501    0  0.62114948636E+02 -0.46402807481E+02  0.12679923063E+02  0.78704242802E+02  0.47000000000E+01 0. -1.
        -13    1    4    4    0    0 -0.13331570961E+02 -0.31049486870E+02  0.20316783333E+01  0.33851575089E+02  0.00000000000E+00 0.  1.
         14    1    4    4    0    0 -0.18976027948E+01 -0.40623976337E+02 -0.11852873569E+03  0.12531149003E+03  0.00000000000E+00 0. -1.
         -5    1    5    5    0  502 -0.44553802709E+02  0.94941587770E+02  0.74753688359E+02  0.12887649261E+03  0.47000000000E+01 0.  1.
         13    1    6    6    0    0  0.59275229982E+01  0.45893079154E+02 -0.40941283693E+02  0.61785912258E+02  0.00000000000E+00 0. -1.
        -14    1    6    6    0    0 -0.82594951704E+01 -0.22758396236E+02  0.10856917092E+02  0.26533686295E+02  0.00000000000E+00 0.  1.
</event>
<event>
12    1  0.1615162E-001  0.2715406E+03  0.7818608E-02  0.1101568E+00
         21   -1    0    0  503  502  0.00000000000E+00  0.00000000000E+00  0.12440034055E+03  0.12440034055E+03  0.00000000000E+00 0.  1.
         21   -1    0    0  501  503 -0.00000000000E+00 -0.00000000000E+00 -0.64534625435E+03  0.64534625435E+03  0.00000000000E+00 0. -1.
          6    2    1    2  501    0 -0.19813599961E+03  0.69576445636E+02 -0.13711185444E+03  0.30419391949E+03  0.17214971361E+03 0.  0.
         24    2    3    3    0    0 -0.21208549059E+03  0.68197278902E+02 -0.88459310615E+02  0.25334462824E+03  0.82020283175E+02 0.  0.
         -6    2    1    2    0  502  0.19813599961E+03 -0.69576445636E+02 -0.38383405935E+03  0.46555267541E+03  0.15909730462E+03 0.  0.
        -24    2    5    5    0    0  0.20459874172E+03 -0.66452622591E+02 -0.39158542071E+03  0.45398985097E+03  0.80567033622E+02 0.  0.
          5    1    3    3  501    0  0.13949490988E+02  0.13791667333E+01 -0.48652543827E+02  0.50849291249E+02  0.47000000000E+01 0. -1.
        -13    1    4    4    0    0 -0.33217280435E+02  0.37651628437E+02  0.26870762490E+01  0.50281738457E+02  0.00000000000E+00 0.  1.
         14    1    4    4    0    0 -0.17886821016E+03  0.30545650465E+02 -0.91146386864E+02  0.20306288978E+03  0.00000000000E+00 0. -1.
         -5    1    5    5    0  502 -0.64627421182E+01 -0.31238230445E+01  0.77513613606E+01  0.11562824441E+02  0.47000000000E+01 0.  1.
         11    1    6    6    0    0  0.12252933491E+03 -0.13987771566E+01 -0.24377397790E+03  0.27283904924E+03  0.00000000000E+00 0. -1.
        -12    1    6    6    0    0  0.82069406816E+02 -0.65053845434E+02 -0.14781144282E+03  0.18115080173E+03  0.00000000000E+00 0.  1.
</event>
<event>
12    1  0.1615162E-001  0.1828253E+03  0.7818608E-02  0.1165143E+00
         21   -1    0    0  501  502  0.00000000000E+00  0.00000000000E+00  0.34222553920E+03  0.34222553920E+03  0.00000000000E+00 0. -1.
         21   -1    0    0  502  503 -0.00000000000E+00 -0.00000000000E+00 -0.10738405832E+03  0.10738405832E+03  0.00000000000E+00 0. -1.
         -6    2    1    2    0  503  0.22546764618E+02 -0.58760696596E+02  0.49384916096E+02  0.18918834695E+03  0.17144149038E+03 0.  0.
        -24    2    3    3    0    0  0.27339691867E+02 -0.99951525952E+02  0.86890646042E+01  0.13089684754E+03  0.79502946867E+02 0.  0.
          6    2    1    2  501    0 -0.22546764618E+02  0.58760696596E+02  0.18545656478E+03  0.26042125058E+03  0.17165055861E+03 0.  0.
         24    2    5    5    0    0 -0.35681746772E+02 -0.27227515847E+02  0.12657571769E+03  0.15527590075E+03  0.77940158928E+02 0.  0.
          5    1    5    5  501    0  0.13134982154E+02  0.85988212443E+02  0.58880847093E+02  0.10514534982E+03  0.47000000000E+01 0. -1.
        -11    1    6    6    0    0  0.91253692818E+01  0.16337760368E+02  0.64620418861E+02  0.67275503061E+02  0.00000000000E+00 0.  1.
         12    1    6    6    0    0 -0.44807116054E+02 -0.43565276215E+02  0.61955298830E+02  0.88000397692E+02  0.00000000000E+00 0. -1.
         -5    1    3    3    0  503 -0.47929272495E+01  0.41190829356E+02  0.40695851492E+02  0.58291499409E+02  0.47000000000E+01 0.  1.
         11    1    4    4    0    0  0.13274308337E+01 -0.10072449384E+03  0.19696630208E+02  0.10264084457E+03  0.00000000000E+00 0. -1.
        -12    1    4    4    0    0  0.26012261034E+02  0.77296788774E+00 -0.11007565604E+02  0.28256002972E+02  0.00000000000E+00 0.  1.
</event>
<event>
12    1  0.1615162E-001  0.2030256E+03  0.7818608E-02  0.1149073E+00
         21   -1    0    0  503  502  0.00000000000E+00  0.00000000000E+00  0.62630009240E+02  0.62630009240E+02  0.00000000000E+00 0. -1.
         21   -1    0    0  501  503 -0.00000000000E+00 -0.00000000000E+00 -0.75899074188E+03  0.75899074188E+03  0.00000000000E+00 0.  1.
          6    2    1    2  501    0 -0.10613928078E+03  0.20327029023E+02 -0.51113914688E+03  0.54679999778E+03  0.16139478020E+03 0.  0.
         24    2    3    3    0    0 -0.58411033540E+02  0.72475461576E+02 -0.30823170224E+03  0.33187916192E+03  0.80451566038E+02 0.  0.
         -6    2    1    2    0  502  0.10613928078E+03 -0.20327029023E+02 -0.18522158577E+03  0.27482075334E+03  0.17187401083E+03 0.  0.
        -24    2    5    5    0    0  0.75588168220E+02  0.40727627363E-01 -0.20331521302E+03  0.23361777606E+03  0.86756075362E+02 0.  0.
          5    1    3    3  501    0 -0.47728247239E+02 -0.52148432553E+02 -0.20290744463E+03  0.21492083587E+03  0.47000000000E+01 0. -1.
        -13    1    4    4    0    0 -0.76815344231E+02  0.62640887950E+02 -0.27803038941E+03  0.29517007874E+03  0.00000000000E+00 0.  1.
         14    1    4    4    0    0  0.18404310691E+02  0.98345736260E+01 -0.30201312839E+02  0.36709083176E+02  0.00000000000E+00 0. -1.
         -5    1    5    5    0  502  0.30551112559E+02 -0.20367756651E+02  0.18093627252E+02  0.41202977279E+02  0.47000000000E+01 0.  1.
         11    1    6    6    0    0  0.64965506563E+02 -0.95353024957E+01 -0.58027347494E+02  0.87627690223E+02  0.00000000000E+00 0. -1.
        -12    1    6    6    0    0  0.10622661657E+02  0.95760301231E+01 -0.14528786552E+03  0.14599008583E+03  0.00000000000E+00 0.  1.
</event>
<event>
12    1  0.1615162E-001  0.2164472E+03  0.7818608E-02  0.1136721E+00
         21   -1    0    0  503  502  0.00000000000E+00  0.00000000000E+00  0.11206423796E+04  0.11206423796E+04  0.00000000000E+00 0. -1.
         21   -1    0    0  501  503 -0.00000000000E+00 -0.00000000000E+00 -0.11612597491E+03  0.11612597491E+03  0.00000000000E+00 0. -1.
          6    2    1    2  501    0 -0.13127359417E+03 -0.84909248299E+01  0.73629974783E+01  0.21657236149E+03  0.17188519919E+03 0.  0.
         24    2    3    3    0    0 -0.68995584191E+02 -0.49598770914E+02  0.52879969049E+02  0.12903785265E+03  0.81449662839E+02 0.  0.
         -6    2    1    2    0  502  0.13127359417E+03  0.84909248299E+01  0.99715340720E+03  0.10201959930E+04  0.17082182046E+03 0.  0.
        -24    2    5    5    0    0  0.12636907628E+03 -0.50354677300E+01  0.48511469837E+03  0.50793361207E+03  0.81644254682E+02 0.  0.
          5    1    3    3  501    0 -0.62278009977E+02  0.41107846084E+02 -0.45516971571E+02  0.87534508837E+02  0.47000000000E+01 0. -1.
        -13    1    4    4    0    0 -0.15475455706E+02 -0.51294239741E+02 -0.28780969568E+00  0.53578648680E+02  0.00000000000E+00 0.  1.
         14    1    4    4    0    0 -0.53520128485E+02  0.16954688273E+01  0.53167778745E+02  0.75459203973E+02  0.00000000000E+00 0. -1.
         -5    1    5    5    0  502  0.49045178891E+01  0.13526392560E+02  0.51203870882E+03  0.51226238094E+03  0.47000000000E+01 0.  1.
         13    1    6    6    0    0  0.11563299680E+03  0.16691442489E+02  0.45226604244E+03  0.46711258530E+03  0.00000000000E+00 0. -1.
        -14    1    6    6    0    0  0.10736079481E+02 -0.21726910219E+02  0.32848655929E+02  0.40821026771E+02  0.00000000000E+00 0.  1.
</event>
<event>
12    1  0.1615162E-001  0.2279512E+03  0.7818608E-02  0.1129226E+00
         21   -1    0    0  501  502  0.00000000000E+00  0.00000000000E+00  0.70846187975E+02  0.70846187975E+02  0.00000000000E+00 0.  1.
         21   -1    0    0  502  503 -0.00000000000E+00 -0.00000000000E+00 -0.96897402711E+03  0.96897402711E+03  0.00000000000E+00 0.  1.
         -6    2    1    2    0  503  0.13921436007E+03  0.36476665108E+02 -0.72069871058E+03  0.75588912061E+03  0.17677823982E+03 0.  0.
        -24    2    3    3    0    0  0.58439105356E+02  0.79664363656E+02 -0.52218693822E+03  0.53721394405E+03  0.78473456367E+02 0.  0.
          6    2    1    2  501    0 -0.13921436007E+03 -0.36476665108E+02 -0.17742912855E+03  0.28393109448E+03  0.16859592404E+03 0.  0.
         24    2    5    5    0    0 -0.69977804096E+02  0.37866790261E+02 -0.59834524694E+02  0.12846009751E+03  0.81185216863E+02 0.  0.
          5    1    5    5  501    0 -0.69236555976E+02 -0.74343455368E+02 -0.11759460386E+03  0.15547099696E+03  0.47000000000E+01 0. -1.
        -11    1    6    6    0    0 -0.83244387856E+02  0.35048153911E+02 -0.67612980369E+02  0.11282515817E+03  0.00000000000E+00 0.  1.
         12    1    6    6    0    0  0.13266583760E+02  0.28186363499E+01  0.77784556751E+01  0.15634939342E+02  0.00000000000E+00 0. -1.
         -5    1    3    3    0  503  0.80775254716E+02 -0.43187698548E+02 -0.19851177236E+03  0.21867517657E+03  0.47000000000E+01 0.  1.
         11    1    4    4    0    0  0.19971827692E+02  0.83592075178E+02 -0.31866439820E+03  0.33005076521E+03  0.00000000000E+00 0. -1.
        -12    1    4    4    0    0  0.38467277664E+02 -0.39277115219E+01 -0.20352254002E+03  0.20716317883E+03  0.00000000000E+00 0.  1.
</event>
<event>
12    1  0.1615162E-001  0.1908146E+03  0.7818608E-02  0.1157783E+00
         21   -1    0    0  503  502  0.00000000000E+00  0.00000000000E+00  0.12562304636E+04  0.12562304636E+04  0.00000000000E+00 0. -1.
         21   -1    0    0  501  503 -0.00000000000E+00 -0.00000000000E+00 -0.34204423496E+02  0.34204423496E+02  0.00000000000E+00 0. -1.
          6    2    1    2  501    0 -0.70311727585E+02 -0.40736410393E+02  0.86429698708E+03  0.88510988650E+03  0.17264714057E+03 0.  0.
         24    2    3    3    0    0  0.23396097059E+02 -0.20226551482E+02  0.54646748265E+03  0.55308655209E+03  0.79508073580E+02 0.  0.
         -6    2    1    2    0  502  0.70311727585E+02  0.40736410393E+02  0.35772905307E+03  0.40532500064E+03  0.17238064440E+03 0.  0.
        -24    2    5    5    0    0  0.97204468930E+01 -0.36026213938E+02  0.17740425044E+03  0.20013501981E+03  0.84790228797E+02 0.  0.
          5    1    3    3  501    0 -0.93707824644E+02 -0.20509858911E+02  0.31782950443E+03  0.33202333442E+03  0.47000000000E+01 0. -1.
        -13    1    4    4    0    0 -0.11147821622E+02  0.16466353557E+02  0.33913085727E+03  0.33971333957E+03  0.00000000000E+00 0.  1.
         14    1    4    4    0    0  0.34543918681E+02 -0.36692905039E+02  0.20733662538E+03  0.21337321252E+03  0.00000000000E+00 0. -1.
         -5    1    5    5    0  502  0.60591280692E+02  0.76762624331E+02  0.18032480263E+03  0.20518998083E+03  0.47000000000E+01 0.  1.
         11    1    6    6    0    0  0.42222301689E+02 -0.15259030066E+02  0.13747223463E+03  0.14461734354E+03  0.00000000000E+00 0. -1.
        -12    1    6    6    0    0 -0.32501854796E+02 -0.20767183871E+02  0.39932015811E+02  0.55517676265E+02  0.00000000000E+00 0.  1.
</event>
<event>
12    1  0.1615162E-001  0.1933265E+03  0.7818608E-02  0.1155654E+00
         21   -1    0    0  501  502  0.00000000000E+00  0.00000000000E+00  0.74223171729E+02  0.74223171729E+02  0.00000000000E+00 0.  1.
         21   -1    0    0  502  503 -0.00000000000E+00 -0.00000000000E+00 -0.58577321828E+03  0.58577321828E+03  0.00000000000E+00 0.  1.
         -6    2    1    2    0  503  0.80428124049E+02  0.30391415056E+02 -0.38040031354E+03  0.42638259141E+03  0.17235252964E+03 0.  0.
        -24    2    3    3    0    0  0.21692976122E+02  0.77835130838E+02 -0.25118921466E+03  0.27665509947E+03  0.83145232556E+02 0.  0.
          6    2    1    2  501    0 -0.80428124049E+02 -0.30391415056E+02 -0.13114973301E+03  0.23361379859E+03  0.17315551732E+03 0.  0.
         24    2    5    5    0    0 -0.68449939606E+02 -0.31718691080E+01 -0.16027665530E+03  0.19172289044E+03  0.79834863924E+02 0.  0.
          5    1    5    5  501    0 -0.11978184443E+02 -0.27219545948E+02  0.29126922289E+02  0.41890908157E+02  0.47000000000E+01 0. -1.
        -11    1    6    6    0    0 -0.23212212719E+02 -0.40374456614E+02 -0.67586790378E+02  0.82078485609E+02  0.00000000000E+00 0.  1.
         12    1    6    6    0    0 -0.45237726887E+02  0.37202587506E+02 -0.92689864921E+02  0.10964440483E+03  0.00000000000E+00 0. -1.
         -5    1    3    3    0  503  0.58735147928E+02 -0.47443715783E+02 -0.12921109888E+03  0.14972749194E+03  0.47000000000E+01 0.  1.
         11    1    4    4    0    0  0.58571596602E+00  0.25429430903E+02 -0.19610988419E+03  0.19775258708E+03  0.00000000000E+00 0. -1.
        -12    1    4    4    0    0  0.21107260155E+02  0.52405699935E+02 -0.55079330470E+02  0.78902512393E+02  0.00000000000E+00 0.  1.
</event>
<event>
12    1  0.1615162E-001  0.2123797E+03  0.7818608E-02  0.1139711E+00
         21   -1    0    0  501  502  0.00000000000E+00  0.00000000000E+00  0.39128011233E+03  0.39128011233E+03  0.00000000000E+00 0.  1.
         21   -1    0    0  502  503 -0.00000000000E+00 -0.00000000000E+00 -0.11928270301E+03  0.11928270301E+03  0.00000000000E+00 0.  1.
         -6    2    1    2    0  503 -0.83747313416E+02 -0.91359218129E+02  0.18306962528E+03  0.28039194460E+03  0.17246749159E+03 0.  0.
        -24    2    3    3    0    0 -0.41069416065E+01  0.77094878914E+01  0.10426611494E+03  0.13076146450E+03  0.78427257377E+02 0.  0.
          6    2    1    2  501    0  0.83747313416E+02  0.91359218129E+02  0.88927784034E+02  0.23017087074E+03  0.17236693337E+03 0.  0.
         24    2    5    5    0    0  0.10524405576E+03  0.16164364315E+02  0.52664649875E+02  0.14383732644E+03  0.81104951661E+02 0.  0.
          5    1    5    5  501    0 -0.21496742348E+02  0.75194853814E+02  0.36263134159E+02  0.86333544296E+02  0.47000000000E+01 0. -1.
        -13    1    6    6    0    0  0.71283097552E+02  0.42356530904E+02  0.10302669433E+02  0.83555375077E+02  0.00000000000E+00 0.  1.
         14    1    6    6    0    0  0.33960958211E+02 -0.26192166589E+02  0.42361980442E+02  0.60281951363E+02  0.00000000000E+00 0. -1.
         -5    1    3    3    0  503 -0.79640371809E+02 -0.99068706021E+02  0.78803510340E+02  0.14963048010E+03  0.47000000000E+01 0.  1.
         11    1    4    4    0    0 -0.39512822925E+02  0.15148158552E+02  0.62853677289E+02  0.75771463175E+02  0.00000000000E+00 0. -1.
        -12    1    4    4    0    0  0.35405881318E+02 -0.74386706605E+01  0.41412437655E+02  0.54990001324E+02  0.00000000000E+00 0.  1.
</event>
<event>
12    1  0.1615162E-001  0.2177015E+03  0.7818608E-02  0.1135878E+00
         21   -1    0    0  501  502  0.00000000000E+00  0.00000000000E+00  0.12491271900E+04  0.12491271900E+04  0.00000000000E+00 0. -1.
         21   -1    0    0  502  503 -0.00000000000E+00 -0.00000000000E+00 -0.37986844685E+02  0.37986844685E+02  0.00000000000E+00 0.  1.
         -6    2    1    2    0  503  0.13246852579E+03 -0.15283550209E+02  0.54712253079E+03  0.58831963186E+03  0.17028044016E+03 0.  0.
        -24    2    3    3    0    0  0.15392190787E+03  0.57844614839E+01  0.37271955147E+03  0.41128122384E+03  0.80665775390E+02 0.  0.
          6    2    1    2  501    0 -0.13246852579E+03  0.15283550209E+02  0.66401781454E+03  0.69879440284E+03  0.17208271901E+03 0.  0.
         24    2    5    5    0    0 -0.62874410377E+02 -0.10281003156E+02  0.15211917239E+03  0.18153315635E+03  0.75862729572E+02 0.  0.
          5    1    5    5  501    0 -0.69594115417E+02  0.25564553365E+02  0.51189864215E+03  0.51726124650E+03  0.47000000000E+01 0. -1.
        -11    1    6    6    0    0 -0.80365274304E+02 -0.12852261735E+02  0.12520078339E+03  0.14932847722E+03  0.00000000000E+00 0.  1.
         12    1    6    6    0    0  0.17490863927E+02  0.25712585795E+01  0.26918388997E+02  0.32204679129E+02  0.00000000000E+00 0. -1.
         -5    1    3    3    0  503 -0.21453382072E+02 -0.21068011693E+02  0.17440297932E+03  0.17703840802E+03  0.47000000000E+01 0.  1.
         11    1    4    4    0    0  0.31243717989E+02 -0.28541930555E+02  0.13639019740E+03  0.14280440350E+03  0.00000000000E+00 0. -1.
        -12    1    4    4    0    0  0.12267818988E+03  0.34326392039E+02  0.23632935407E+03  0.26847682034E+03  0.00000000000E+00 0.  1.
</event>
<event>
12    1  0.1615162E-001  0.3511352E+03  0.7818608E-02  0.1062375E+00
         21   -1    0    0  501  502  0.00000000000E+00  0.00000000000E+00  0.88478243038E+02  0.88478243038E+02  0.00000000000E+00 0. -1.
         21   -1    0    0  502  503 -0.00000000000E+00 -0.00000000000E+00 -0.15454277441E+04  0.15454277441E+04  0.00000000000E+00 0.  1.
         -6    2    1    2    0  503 -0.16553515850E+03  0.25678346017E+03 -0.98978429921E+03  0.10494924052E+04  0.16858741203E+03 0.  0.
        -24    2    3    3    0    0 -0.14486004926E+03  0.21003947419E+03 -0.60941915632E+03  0.66567970050E+03  0.81466195273E+02 0.  0.
          6    2    1    2  501    0  0.16553515850E+03 -0.25678346017E+03 -0.46716520182E+03  0.58441358190E+03  0.17307881098E+03 0.  0.
         24    2    5    5    0    0  0.14020379198E+03 -0.25056834873E+03 -0.33067870350E+03  0.44537775931E+03  0.81063819748E+02 0.  0.
          5    1    5    5  501    0  0.25331366511E+02 -0.62151114383E+01 -0.13648649832E+03  0.13903582259E+03  0.47000000000E+01 0. -1.
        -11    1    6    6    0    0  0.31040255270E+01 -0.75743303187E+02 -0.94016557494E+02  0.12077166901E+03  0.00000000000E+00 0.  1.
         12    1    6    6    0    0  0.13709976646E+03 -0.17482504554E+03 -0.23666214600E+03  0.32460609030E+03  0.00000000000E+00 0. -1.
         -5    1    3    3    0  503 -0.20675109234E+02  0.46743985982E+02 -0.38036514289E+03  0.38381270470E+03  0.47000000000E+01 0.  1.
         11    1    4    4    0    0 -0.53329476922E+02  0.13364217311E+03 -0.27029611586E+03  0.30620949331E+03  0.00000000000E+00 0. -1.
        -12    1    4    4    0    0 -0.91530572340E+02  0.76397301076E+02 -0.33912304046E+03  0.35947020719E+03  0.00000000000E+00 0.  1.
</event>
<event>
12    1  0.1615162E-001  0.2061614E+03  0.7818608E-02  0.1145042E+00
         21   -1    0    0  503  502  0.00000000000E+00  0.00000000000E+00  0.87807507948E+02  0.87807507948E+02  0.00000000000E+00 0. -1.
         21   -1    0    0  501  503 -0.00000000000E+00 -0.00000000000E+00 -0.79109298815E+03  0.79109298815E+03  0.00000000000E+00 0.  1.
          6    2    1    2  501    0 -0.74744002493E+01  0.10921707728E+03 -0.62644222301E+03  0.65888362253E+03  0.17237613710E+03 0.  0.
         24    2    3    3    0    0 -0.13473159562E+02  0.33850604353E+02 -0.52710486666E+03  0.53395928254E+03  0.77107622929E+02 0.  0.
         -6    2    1    2    0  502  0.74744002493E+01 -0.10921707728E+03 -0.76843257198E+02  0.22001687357E+03  0.17469488216E+03 0.  0.
        -24    2    5    5    0    0  0.68356040620E+01 -0.95451484686E+02  0.16151446057E+02  0.12588927702E+03  0.80184346641E+02 0.  0.
          5    1    3    3  501    0  0.59987593132E+01  0.75366472926E+02 -0.99337356345E+02  0.12492433998E+03  0.47000000000E+01 0. -1.
        -11    1    4    4    0    0  0.25226470692E+02 -0.96433271358E+01 -0.17620360392E+03  0.17826126504E+03  0.00000000000E+00 0.  1.
         12    1    4    4    0    0 -0.38699630254E+02  0.43493931489E+02 -0.35090126274E+03  0.35569801750E+03  0.00000000000E+00 0. -1.
         -5    1    5    5    0  502  0.63879618725E+00 -0.13765592593E+02 -0.92994703256E+02  0.94127596557E+02  0.47000000000E+01 0.  1.
         11    1    6    6    0    0  0.42448347870E+02 -0.52625583515E+02  0.18644155685E+02  0.70135004231E+02  0.00000000000E+00 0. -1.
        -12    1    6    6    0    0 -0.35612743808E+02 -0.42825901171E+02 -0.24927096276E+01  0.55754272786E+02  0.00000000000E+00 0.  1.
</event>
<event>
12    1  0.1615162E-001  0.1840016E+03  0.7818608E-02  0.1165497E+00
         21   -1    0    0  501  502  0.00000000000E+00  0.00000000000E+00  0.12162697106E+03  0.12162697106E+03  0.00000000000E+00 0. -1.
         21   -1    0    0  502  503 -0.00000000000E+00 -0.00000000000E+00 -0.40977932681E+03  0.40977932681E+03  0.00000000000E+00 0. -1.
         -6    2    1    2    0  503  0.18817521485E+02 -0.42536942125E+02 -0.30150334925E+03  0.35321502809E+03  0.17802554844E+03 0.  0.
        -24    2    3    3    0    0  0.27465893137E+01  0.29497625696E+02 -0.24575839067E+03  0.26060377483E+03  0.81483048540E+02 0.  0.
          6    2    1    2  501    0 -0.18817521485E+02  0.42536942125E+02  0.13350993498E+02  0.17819126979E+03  0.17149457438E+03 0.  0.
         24    2    5    5    0    0  0.11676149966E+02 -0.14986503389E+02 -0.44181290059E+02  0.91180555310E+02  0.77465989399E+02 0.  0.
          5    1    5    5  501    0 -0.30493671451E+02  0.57523445514E+02  0.57532283557E+02  0.87010714476E+02  0.47000000000E+01 0. -1.
        -13    1    6    6    0    0  0.36855586831E+02 -0.17127936100E+02 -0.50801337392E+02  0.65057485016E+02  0.00000000000E+00 0.  1.
         14    1    6    6    0    0 -0.25179436865E+02  0.21414327118E+01  0.66200473334E+01  0.26123070294E+02  0.00000000000E+00 0. -1.
         -5    1    3    3    0  503  0.16070932171E+02 -0.72034567821E+02 -0.55744958584E+02  0.92611253255E+02  0.47000000000E+01 0.  1.
         11    1    4    4    0    0  0.24868054807E+02  0.24660955802E+02 -0.23085251494E+03  0.23349403964E+03  0.00000000000E+00 0. -1.
        -12    1    4    4    0    0 -0.22121465493E+02  0.48366698934E+01 -0.14905875724E+02  0.27109735195E+02  0.00000000000E+00 0.  1.
</event>
<event>
12    1  0.1615162E-001  0.1861345E+03  0.7818608E-02  0.1162201E+00
         21   -1    0    0  501  502  0.00000000000E+00  0.00000000000E+00  0.30768335020E+03  0.30768335020E+03  0.00000000000E+00 0.  1.
         21   -1    0    0  502  503 -0.00000000000E+00 -0.00000000000E+00 -0.16186644347E+03  0.16186644347E+03  0.00000000000E+00 0. -1.
         -6    2    1    2    0  503  0.42110090547E+02 -0.57792143966E+02 -0.57194184985E+02  0.19472347842E+03  0.17185129217E+03 0.  0.
        -24    2    3    3    0    0  0.80221762540E+02 -0.47325981690E+02 -0.82724586697E+02  0.14743784100E+03  0.78862411742E+02 0.  0.
          6    2    1    2  501    0 -0.42110090547E+02  0.57792143966E+02  0.20301109172E+03  0.27482631526E+03  0.17088829266E+03 0.  0.
         24    2    5    5    0    0  0.22636189978E+02  0.77523797070E+02  0.15177976433E+03  0.18980774151E+03  0.80421052402E+02 0.  0.
          5    1    5    5  501    0 -0.64746280525E+02 -0.19731653104E+02  0.51231327390E+02  0.85018573748E+02  0.47000000000E+01 0. -1.
        -11    1    6    6    0    0  0.45230065480E+02  0.46813116845E+02  0.53054459897E+02  0.83976201671E+02  0.00000000000E+00 0.  1.
         12    1    6    6    0    0 -0.22593875503E+02  0.30710680225E+02  0.98725304429E+02  0.10583153984E+03  0.00000000000E+00 0. -1.
         -5    1    3    3    0  503 -0.38111671993E+02 -0.10466162276E+02  0.25530401712E+02  0.47285637422E+02  0.47000000000E+01 0.  1.
         13    1    4    4    0    0  0.27244682828E+02 -0.57933431232E+01 -0.74602828478E+02  0.79633018177E+02  0.00000000000E+00 0. -1.
        -14    1    4    4    0    0  0.52977079712E+02 -0.41532638567E+02 -0.81217582182E+01  0.67804822820E+02  0.00000000000E+00 0.  1.
</event>
<event>
12    1  0.1615162E-001  0.2041690E+03  0.7818608E-02  0.1146405E+00
         21   -1    0    0  501  502  0.00000000000E+00  0.00000000000E+00  0.13649249719E+04  0.13649249719E+04  0.00000000000E+00 0. -1.
         21   -1    0    0  502  503 -0.00000000000E+00 -0.00000000000E+00 -0.30443203137E+02  0.30443203137E+02  0.00000000000E+00 0.  1.
         -6    2    1    2    0  503 -0.96964983780E+02  0.51565982872E+02  0.66033722530E+03  0.69098485436E+03  0.17132880425E+03 0.  0.
        -24    2    3    3    0    0 -0.36750377923E+02 -0.22191621308E+02  0.46091865299E+03  0.46995128244E+03  0.81025581501E+02 0.  0.
          6    2    1    2  501    0  0.96964983780E+02 -0.51565982872E+02  0.67414454347E+03  0.70438332069E+03  0.17211547956E+03 0.  0.
         24    2    5    5    0    0  0.43771261540E+02 -0.59455505880E+01  0.57915678428E+03  0.58624966619E+03  0.79465825559E+02 0.  0.
          5    1    5    5  501    0  0.53193722240E+02 -0.45620432284E+02  0.94987759199E+02  0.11813365450E+03  0.47000000000E+01 0. -1.
        -11    1    6    6    0    0 -0.20008177628E+02  0.13572969410E+02  0.16201189049E+03  0.16380599906E+03  0.00000000000E+00 0.  1.
         12    1    6    6    0    0  0.63779439168E+02 -0.19518519998E+02  0.41714489379E+03  0.42244366713E+03  0.00000000000E+00 0. -1.
         -5    1    3    3    0  503 -0.60214605857E+02  0.73757604180E+02  0.19941857231E+03  0.22103357192E+03  0.47000000000E+01 0.  1.
         11    1    4    4    0    0 -0.60747502206E+02 -0.27850572764E+01  0.31065532797E+03  0.31655133607E+03  0.00000000000E+00 0. -1.
        -12    1    4    4    0    0  0.23997124283E+02 -0.19406564032E+02  0.15026332501E+03  0.15339994637E+03  0.00000000000E+00 0.  1.
</event>
<event>
12    1  0.1615162E-001  0.1814224E+03  0.7818608E-02  0.1166695E+00
         21   -1    0    0  503  502  0.00000000000E+00  0.00000000000E+00  0.42113801135E+03  0.42113801135E+03  0.00000000000E+00 0. -1.
         21   -1    0    0  501  503 -0.00000000000E+00 -0.00000000000E+00 -0.14862203447E+03  0.14862203447E+03  0.00000000000E+00 0.  1.
          6    2    1    2  501    0  0.15547717813E+02 -0.55011589621E+02 -0.60339606110E+02  0.19119349804E+03  0.17218036794E+03 0.  0.
         24    2    3    3    0    0 -0.45303619606E+02 -0.63275150912E+02 -0.65263689276E+02  0.12940751010E+03  0.80192218193E+02 0.  0.
         -6    2    1    2    0  502 -0.15547717813E+02  0.55011589621E+02  0.33285558299E+03  0.37856654779E+03  0.17103153350E+03 0.  0.
        -24    2    5    5    0    0 -0.36669660003E+02 -0.29134416088E+02  0.19300066510E+03  0.21392094421E+03  0.79494877046E+02 0.  0.
          5    1    3    3  501    0  0.60851337419E+02  0.82635612905E+01  0.49240831657E+01  0.61785987941E+02  0.47000000000E+01 0. -1.
        -13    1    4    4    0    0  0.20675061954E+02 -0.31470323385E+02 -0.29852675095E+02  0.48052280394E+02  0.00000000000E+00 0.  1.
         14    1    4    4    0    0 -0.65978681560E+02 -0.31804827527E+02 -0.35411014181E+02  0.81355229701E+02  0.00000000000E+00 0. -1.
         -5    1    5    5    0  502  0.21121942190E+02  0.84146005710E+02  0.13985491790E+03  0.16464560358E+03  0.47000000000E+01 0.  1.
         13    1    6    6    0    0 -0.37509384765E+02 -0.23658661244E+02  0.36814980789E+02  0.57637045447E+02  0.00000000000E+00 0. -1.
        -14    1    6    6    0    0  0.83972476200E+00 -0.54757548443E+01  0.15618568431E+03  0.15628389876E+03  0.00000000000E+00 0.  1.
</event>
<event>
12    1  0.1615162E-001  0.2434164E+03  0.7818608E-02  0.1117598E+00
         21   -1    0    0  503  502  0.00000000000E+00  0.00000000000E+00  0.27273331284E+03  0.27273331284E+03  0.00000000000E+00 0. -1.
         21   -1    0    0  501  503 -0.00000000000E+00 -0.00000000000E+00 -0.22752998376E+03  0.22752998376E+03  0.00000000000E+00 0. -1.
          6    2    1    2  501    0 -0.80946130359E+02  0.15192894485E+03  0.76590545746E+02  0.25483159678E+03  0.17157607850E+03 0.  0.
         24    2    3    3    0    0 -0.60337772991E+02  0.16515042933E+02  0.70744415516E+01  0.10115593843E+03  0.79177538885E+02 0.  0.
         -6    2    1    2    0  502  0.80946130359E+02 -0.15192894485E+03 -0.31387216667E+02  0.24543169982E+03  0.17209555951E+03 0.  0.
        -24    2    5    5    0    0  0.12134006319E+03 -0.12224807829E+03 -0.69042420997E+01  0.18944840148E+03  0.78581325276E+02 0.  0.
          5    1    3    3  501    0 -0.20608357368E+02  0.13541390192E+03  0.69516104194E+02  0.15367565835E+03  0.47000000000E+01 0. -1.
        -11    1    4    4    0    0 -0.48438846541E+01 -0.28313037582E+02  0.79792472988E+01  0.29812073110E+02  0.00000000000E+00 0.  1.
         12    1    4    4    0    0 -0.55493888337E+02  0.44828080515E+02 -0.90480574725E+00  0.71343865321E+02  0.00000000000E+00 0. -1.
         -5    1    5    5    0  502 -0.40393932834E+02 -0.29680866560E+02 -0.24482974567E+02  0.55983298342E+02  0.47000000000E+01 0.  1.
         11    1    6    6    0    0  0.59194667584E+02 -0.11115278544E+03  0.10508967976E+00  0.12593236846E+03  0.00000000000E+00 0. -1.
        -12    1    6    6    0    0  0.62145395609E+02 -0.11095292852E+02 -0.70093317795E+01  0.63516033022E+02  0.00000000000E+00 0.  1.
</event>
<event>
12    1  0.1615162E-001  0.3345919E+03  0.7818608E-02  0.1069160E+00
         21   -1    0    0  503  502  0.00000000000E+00  0.00000000000E+00  0.11890749976E+04  0.11890749976E+04  0.00000000000E+00 0.  1.
         21   -1    0    0  501  503 -0.00000000000E+00 -0.00000000000E+00 -0.95585266526E+02  0.95585266526E+02  0.00000000000E+00 0. -1.
          6    2    1    2  501    0  0.91409508027E+02 -0.27154269528E+03  0.62828395322E+03  0.71182334683E+03  0.17280225026E+03 0.  0.
         24    2    3    3    0    0  0.50588825139E+02 -0.91447854405E+02  0.17221432706E+03  0.21976433231E+03  0.87844453477E+02 0.  0.
         -6    2    1    2    0  502 -0.91409508027E+02  0.27154269528E+03  0.46520577784E+03  0.57283691729E+03  0.17214698533E+03 0.  0.
        -24    2    5    5    0    0 -0.90018349829E+02  0.10901574097E+03  0.16265095857E+03  0.22935699813E+03  0.78495625263E+02 0.  0.
          5    1    3    3  501    0  0.40820682889E+02 -0.18009484087E+03  0.45606962616E+03  0.49205901452E+03  0.47000000000E+01 0. -1.
        -11    1    4    4    0    0 -0.20344748771E+02 -0.14152133527E+02  0.10310842678E+02  0.26842227229E+02  0.00000000000E+00 0.  1.
         12    1    4    4    0    0  0.70933573909E+02 -0.77295720878E+02  0.16190348438E+03  0.19292210508E+03  0.00000000000E+00 0. -1.
         -5    1    5    5    0  502 -0.13911581987E+01  0.16252695431E+03  0.30255481927E+03  0.34347991916E+03  0.47000000000E+01 0.  1.
         11    1    6    6    0    0 -0.74911310472E+02  0.33035637889E+02  0.10305398956E+03  0.13161756179E+03  0.00000000000E+00 0. -1.
        -12    1    6    6    0    0 -0.15107039357E+02  0.75980103077E+02  0.59596969006E+02  0.97739436341E+02  0.00000000000E+00 0.  1.
</event>
<event>
12    1  0.1615162E-001  0.1831798E+03  0.7818608E-02  0.1166513E+00
         21   -1    0    0  503  502  0.00000000000E+00  0.00000000000E+00  0.72814643519E+02  0.72814643519E+02  0.00000000000E+00 0.  1.
         21   -1    0    0  501  503 -0.00000000000E+00 -0.00000000000E+00 -0.44328267147E+03  0.44328267147E+03  0.00000000000E+00 0.  1.
          6    2    1    2  501    0 -0.94470104137E+01  0.35644077827E+02 -0.19030282276E+03  0.25916477194E+03  0.17202170903E+03 0.  0.
         24    2    3    3    0    0 -0.70778478697E+02  0.15436526744E+02 -0.13956341013E+03  0.17690620329E+03  0.81055412599E+02 0.  0.
         -6    2    1    2    0  502  0.94470104137E+01 -0.35644077827E+02 -0.18016520520E+03  0.25693254305E+03  0.17942988665E+03 0.  0.
        -24    2    5    5    0    0 -0.62356491094E+02 -0.39040697777E+02 -0.89052679216E+02  0.14078237195E+03  0.80478497202E+02 0.  0.
          5    1    3    3  501    0  0.61331468284E+02  0.20207551083E+02 -0.50739412633E+02  0.82258568653E+02  0.47000000000E+01 0. -1.
        -11    1    4    4    0    0 -0.37096172386E+02 -0.90933124202E+00 -0.13401595042E+03  0.13905836133E+03  0.00000000000E+00 0.  1.
         12    1    4    4    0    0 -0.33682306311E+02  0.16345857986E+02 -0.55474597060E+01  0.37847841958E+02  0.00000000000E+00 0. -1.
         -5    1    5    5    0  502  0.71803501508E+02  0.33966199509E+01 -0.91112525980E+02  0.11615017110E+03  0.47000000000E+01 0.  1.
         11    1    6    6    0    0 -0.77983947612E+02 -0.17663962408E+02 -0.79157436278E+02  0.11251404966E+03  0.00000000000E+00 0. -1.
        -12    1    6    6    0    0  0.15627456517E+02 -0.21376735370E+02 -0.98952429378E+01  0.28268322289E+02  0.00000000000E+00 0.  1.
</event>
<event>
12    1  0.1615162E-001  0.1815537E+03  0.7818608E-02  0.1166359E+00
         21   -1    0    0  503  502  0.00000000000E+00  0.00000000000E+00  0.23565134117E+03  0.23565134117E+03  0.00000000000E+00 0.  1.
         21   -1    0    0  501  503 -0.00000000000E+00 -0.00000000000E+00 -0.15158585615E+03  0.15158585615E+03  0.00000000000E+00 0.  1.
          6    2    1    2  501    0  0.49634969435E+02 -0.17840711560E+02 -0.12140090063E+02  0.18195916793E+03  0.17372344639E+03 0.  0.
         24    2    3    3    0    0  0.75503178236E+02  0.38197955622E+02  0.34137597592E+01  0.11813512316E+03  0.82367711092E+02 0.  0.
         -6    2    1    2    0  502 -0.49634969435E+02  0.17840711560E+02  0.96205575083E+02  0.20527802940E+03  0.17349822909E+03 0.  0.
        -24    2    5    5    0    0  0.15198367401E+02  0.61842655389E+02  0.56430222613E+02  0.11727972663E+03  0.80713442855E+02 0.  0.
          5    1    3    3  501    0 -0.25868208800E+02 -0.56038667182E+02 -0.15553849822E+02  0.63824044767E+02  0.47000000000E+01 0. -1.
        -11    1    4    4    0    0  0.85203811584E+02  0.71097323337E+01  0.15169397322E+01  0.85513384382E+02  0.00000000000E+00 0.  1.
         12    1    4    4    0    0 -0.97006333486E+01  0.31088223288E+02  0.18968200269E+01  0.32621738776E+02  0.00000000000E+00 0. -1.
         -5    1    5    5    0  502 -0.64833336837E+02 -0.44001943828E+02  0.39775352471E+02  0.87998302769E+02  0.47000000000E+01 0.  1.
         11    1    6    6    0    0 -0.26622988395E+02  0.29079900764E+02 -0.47586467576E+00  0.39429057645E+02  0.00000000000E+00 0. -1.
        -12    1    6    6    0    0  0.41821355796E+02  0.32762754624E+02  0.56906087288E+02  0.77850668987E+02  0.00000000000E+00 0.  1.
</event>
<event>
12    1  0.1615162E-001  0.1944854E+03  0.7818608E-02  0.1154627E+00
         21   -1    0    0  501  502  0.00000000000E+00  0.00000000000E+00  0.27857353056E+03  0.27857353056E+03  0.00000000000E+00 0.  1.
         21   -1    0    0  502  503 -0.00000000000E+00 -0.00000000000E+00 -0.13604803930E+03  0.13604803930E+03  0.00000000000E+00 0.  1.
         -6    2    1    2    0  503 -0.24887928898E+02  0.86652608748E+02  0.56040728491E+02  0.20239844055E+03  0.17232667199E+03 0.  0.
        -24    2    3    3    0    0  0.41056161378E+02  0.85990972682E+02  0.57256020768E+02  0.13627259280E+03  0.78815682861E+02 0.  0.
          6    2    1    2  501    0  0.24887928898E+02 -0.86652608748E+02  0.86484762768E+02  0.21222312931E+03  0.17155453598E+03 0.  0.
         24    2    5    5    0    0  0.67034095981E+02 -0.84787202837E+02  0.99917434453E+02  0.16770003634E+03  0.80357754392E+02 0.  0.
          5    1    5    5  501    0 -0.42146167083E+02 -0.18654059108E+01 -0.13432671685E+02  0.44523092970E+02  0.47000000000E+01 0. -1.
        -11    1    6    6    0    0  0.33468963916E+02  0.66774915044E+01  0.11169019911E+02  0.35909712393E+02  0.00000000000E+00 0.  1.
         12    1    6    6    0    0  0.33565132065E+02 -0.91464694341E+02  0.88748414542E+02  0.13179032394E+03  0.00000000000E+00 0. -1.
         -5    1    3    3    0  503 -0.65944090276E+02  0.66163606518E+00 -0.12152922774E+01  0.66125847745E+02  0.47000000000E+01 0.  1.
         11    1    4    4    0    0  0.41924299163E+02  0.32861861712E+02 -0.60624712287E+01  0.53612520672E+02  0.00000000000E+00 0. -1.
        -12    1    4    4    0    0 -0.86813778427E+00  0.53129110971E+02  0.63318491997E+02  0.82660072130E+02  0.00000000000E+00 0.  1.
</event>
<event>
12    1  0.1615162E-001  0.1812015E+03  0.7818608E-02  0.1167251E+00
         21   -1    0    0  503  502  0.00000000000E+00  0.00000000000E+00  0.13539705283E+03  0.13539705283E+03  0.00000000000E+00 0. -1.
         21   -1    0    0  501  503 -0.00000000000E+00 -0.00000000000E+00 -0.24371561989E+03  0.24371561989E+03  0.00000000000E+00 0. -1.
          6    2    1    2  501    0 -0.37846727009E+02 -0.39237874070E+02 -0.28611690631E+02  0.18344644513E+03  0.17280620325E+03 0.  0.
         24    2    3    3    0    0 -0.65356388071E+02 -0.10462508545E+02  0.32576487736E+02  0.11029669267E+03  0.81995190800E+02 0.  0.
         -6    2    1    2    0  502  0.37846727009E+02  0.39237874070E+02 -0.79706876435E+02  0.19566622759E+03  0.17017667573E+03 0.  0.
        -24    2    5    5    0    0  0.63203455120E+02  0.77641056776E+02 -0.76628509853E+02  0.14930531255E+03  0.79983357000E+02 0.  0.
          5    1    3    3  501    0  0.27509661062E+02 -0.28775365525E+02 -0.61188178367E+02  0.73149752458E+02  0.47000000000E+01 0. -1.
        -11    1    4    4    0    0 -0.19884386681E+02  0.15452645820E+02  0.49293390321E+02  0.55353513221E+02  0.00000000000E+00 0.  1.
         12    1    4    4    0    0 -0.45472001390E+02 -0.25915154365E+02 -0.16716902585E+02  0.54943179451E+02  0.00000000000E+00 0. -1.
         -5    1    5    5    0  502 -0.25356728111E+02 -0.38403182706E+02 -0.30783665821E+01  0.46360915039E+02  0.47000000000E+01 0.  1.
         11    1    6    6    0    0  0.26856421833E+02  0.43633185372E+02  0.72730814824E+01  0.51749589116E+02  0.00000000000E+00 0. -1.
        -12    1    6    6    0    0  0.36347033287E+02  0.34007871404E+02 -0.83901591335E+02  0.97555723434E+02  0.00000000000E+00 0.  1.
</event>
<event>
12    1  0.1615162E-001  0.2066849E+03  0.7818608E-02  0.1146030E+00
         21   -1    0    0  501  502  0.00000000000E+00  0.00000000000E+00  0.30519284906E+03  0.30519284906E+03  0.00000000000E+00 0.  1.
         21   -1    0    0  502  503 -0.00000000000E+00 -0.00000000000E+00 -0.37196514554E+03  0.37196514554E+03  0.00000000000E+00 0.  1.
         -6    2    1    2    0  503  0.55798254153E+02  0.78883011573E+02 -0.30385364002E+03  0.36263264422E+03  0.17274091992E+03 0.  0.
        -24    2    3    3    0    0 -0.27388971288E+02  0.66845274163E+02 -0.21520271692E+03  0.24037841007E+03  0.79064051474E+02 0.  0.
          6    2    1    2  501    0 -0.55798254153E+02 -0.78883011573E+02  0.23708134354E+03  0.31452535038E+03  0.18270921677E+03 0.  0.
         24    2    5    5    0    0 -0.17874945941E+02  0.27798105839E+02  0.87522692124E+02  0.12688495406E+03  0.85716518529E+02 0.  0.
          5    1    5    5  501    0 -0.37923308212E+02 -0.10668111741E+03  0.14955865142E+03  0.18764039632E+03  0.47000000000E+01 0. -1.
        -13    1    6    6    0    0 -0.27511881883E+02 -0.82618554127E+00  0.92290968209E+02  0.96307886699E+02  0.00000000000E+00 0.  1.
         14    1    6    6    0    0  0.96369359425E+01  0.28624291381E+02 -0.47682760852E+01  0.30577067358E+02  0.00000000000E+00 0. -1.
         -5    1    3    3    0  503  0.83187225440E+02  0.12037737410E+02 -0.88650923105E+02  0.12225423414E+03  0.47000000000E+01 0.  1.
         13    1    4    4    0    0 -0.25928981633E+02 -0.27564395930E+01 -0.19205551366E+02  0.32384614419E+02  0.00000000000E+00 0. -1.
        -14    1    4    4    0    0 -0.14599896544E+01  0.69601713756E+02 -0.19599716555E+03  0.20799379565E+03  0.00000000000E+00 0.  1.
</event>
<event>
12    1  0.1615162E-001  0.2474379E+03  0.7818608E-02  0.1115362E+00
         21   -1    0    0  503  502  0.00000000000E+00  0.00000000000E+00  0.14449765232E+03  0.14449765232E+03  0.00000000000E+00 0.  1.
         21   -1    0    0  501  503 -0.00000000000E+00 -0.00000000000E+00 -0.51283438803E+03  0.51283438803E+03  0.00000000000E+00 0.  1.
          6    2    1    2  501    0 -0.58452555349E+02  0.16429086189E+03 -0.32542970367E+03  0.40881539227E+03  0.17554869524E+03 0.  0.
         24    2    3    3    0    0 -0.95358910603E+02  0.13527185218E+03 -0.30782774158E+03  0.35845567571E+03  0.79628871277E+02 0.  0.
         -6    2    1    2    0  502  0.58452555349E+02 -0.16429086189E+03 -0.42907032039E+02  0.24851664807E+03  0.17178859812E+03 0.  0.
        -24    2    5    5    0    0  0.85220612783E+02 -0.70637153804E+02 -0.60708351151E+02  0.14938782835E+03  0.79869011633E+02 0.  0.
          5    1    3    3  501    0  0.36906355255E+02  0.29019009711E+02 -0.17601962095E+02  0.50359716563E+02  0.47000000000E+01 0. -1.
        -13    1    4    4    0    0 -0.53634941556E+02  0.16549355098E+02 -0.11849781506E+03  0.13111948858E+03  0.00000000000E+00 0.  1.
         14    1    4    4    0    0 -0.41723969048E+02  0.11872249708E+03 -0.18932992651E+03  0.22733618713E+03  0.00000000000E+00 0. -1.
         -5    1    5    5    0  502 -0.26768057434E+02 -0.93653708089E+02  0.17801319112E+02  0.99128819724E+02  0.47000000000E+01 0.  1.
         11    1    6    6    0    0 -0.13637685815E+02 -0.35066168385E+01 -0.17172202708E+02  0.22207372241E+02  0.00000000000E+00 0. -1.
        -12    1    6    6    0    0  0.98858298598E+02 -0.67130536965E+02 -0.43536148444E+02  0.12718045611E+03  0.00000000000E+00 0.  1.
</event>
<event>
12    1  0.1615162E-001  0.1874904E+03  0.7818608E-02  0.1160952E+00
         21   -1    0    0  501  502  0.00000000000E+00  0.00000000000E+00  0.21684715371E+03  0.21684715371E+03  0.00000000000E+00 0. -1.
         21   -1    0    0  502  503 -0.00000000000E+00 -0.00000000000E+00 -0.18124447476E+03  0.18124447476E+03  0.00000000000E+00 0. -1.
         -6    2    1    2    0  503 -0.66588655237E+02  0.30825938107E+02 -0.48143281811E+02  0.19357281258E+03  0.17253512895E+03 0.  0.
        -24    2    3    3    0    0 -0.91980268493E+02  0.67827877595E+02 -0.51373553301E+02  0.14833563536E+03  0.79392871005E+02 0.  0.
          6    2    1    2  501    0  0.66588655237E+02 -0.30825938107E+02  0.83745960758E+02  0.20451881589E+03  0.17155253610E+03 0.  0.
         24    2    5    5    0    0 -0.74799152942E+01 -0.17152992183E+02 -0.89791010434E+01  0.84964938172E+02  0.82390789469E+02 0.  0.
          5    1    5    5  501    0  0.74068570531E+02 -0.13672945924E+02  0.92725061801E+02  0.11955387772E+03  0.47000000000E+01 0. -1.
        -11    1    6    6    0    0 -0.24415785434E+02  0.56368785875E+01 -0.37251932754E+02  0.44895561835E+02  0.00000000000E+00 0.  1.
         12    1    6    6    0    0  0.16935870139E+02 -0.22789870770E+02  0.28272831711E+02  0.40069376337E+02  0.00000000000E+00 0. -1.
         -5    1    3    3    0  503  0.25391613256E+02 -0.37001939488E+02  0.32302714910E+01  0.45237177227E+02  0.47000000000E+01 0.  1.
         11    1    4    4    0    0 -0.95280286312E+02  0.30150275980E+02 -0.46417212191E+02  0.11019042467E+03  0.00000000000E+00 0. -1.
        -12    1    4    4    0    0  0.33000178191E+01  0.37677601614E+02 -0.49563411103E+01  0.38145210685E+02  0.00000000000E+00 0.  1.
</event>
<event>
12    1  0.1615162E-001  0.1903745E+03  0.7818608E-02  0.1158569E+00
         21   -1    0    0  501  502  0.00000000000E+00  0.00000000000E+00  0.27213159926E+03  0.27213159926E+03  0.00000000000E+00 0.  1.
         21   -1    0    0  502  503 -0.00000000000E+00 -0.00000000000E+00 -0.13257843156E+03  0.13257843156E+03  0.00000000000E+00 0. -1.
         -6    2    1    2    0  503  0.64118964545E+02 -0.47771629263E+02  0.84851087116E+02  0.20663239540E+03  0.17059856291E+03 0.  0.
        -24    2    3    3    0    0  0.41807005435E+02  0.26563586375E+02 -0.48389047720E+01  0.87931374141E+02  0.72491804601E+02 0.  0.
          6    2    1    2  501    0 -0.64118964545E+02  0.47771629263E+02  0.54702080582E+02  0.19807763543E+03  0.17276881043E+03 0.  0.
         24    2    5    5    0    0 -0.65515830839E+02  0.64248139181E+01  0.94191100587E+02  0.14069311595E+03  0.81172576163E+02 0.  0.
          5    1    5    5  501    0  0.13968662936E+01  0.41346815345E+02 -0.39489020006E+02  0.57384519477E+02  0.47000000000E+01 0. -1.
        -11    1    6    6    0    0 -0.10413988004E+02  0.37168337685E+02  0.20592455110E+02  0.43749122047E+02  0.00000000000E+00 0.  1.
         12    1    6    6    0    0 -0.55101842835E+02 -0.30743523767E+02  0.73598645477E+02  0.96943993901E+02  0.00000000000E+00 0. -1.
         -5    1    3    3    0  503  0.22311959110E+02 -0.74335215638E+02  0.89689991888E+02  0.11870102126E+03  0.47000000000E+01 0.  1.
         13    1    4    4    0    0  0.22466749604E+02  0.28693342084E+02 -0.35979966003E+02  0.51211528695E+02  0.00000000000E+00 0. -1.
        -14    1    4    4    0    0  0.19340255832E+02 -0.21297557092E+01  0.31141061231E+02  0.36719845446E+02  0.00000000000E+00 0.  1.
</event>
<event>
12    1  0.1615162E-001  0.1958408E+03  0.7818608E-02  0.1153520E+00
         21   -1    0    0  501  502  0.00000000000E+00  0.00000000000E+00  0.43311585002E+02  0.43311585002E+02  0.00000000000E+00 0. -1.
         21   -1    0    0  502  503 -0.00000000000E+00 -0.00000000000E+00 -0.12505181653E+04  0.12505181653E+04  0.00000000000E+00 0. -1.
         -6    2    1    2    0  503 -0.80496329969E+02  0.43537731270E+02 -0.95643111195E+03  0.97627562182E+03  0.17314278692E+03 0.  0.
        -24    2    3    3    0    0  0.47042967548E+01  0.70809710517E+02 -0.58185226027E+03  0.59113368205E+03  0.76490729851E+02 0.  0.
          6    2    1    2  501    0  0.80496329969E+02 -0.43537731270E+02 -0.25077546836E+03  0.31755412850E+03  0.17197992851E+03 0.  0.
         24    2    5    5    0    0  0.11314282795E+03  0.22315390528E+01 -0.17905038343E+03  0.22630064777E+03  0.79665953147E+02 0.  0.
          5    1    5    5  501    0 -0.32646497985E+02 -0.45769270323E+02 -0.71725084932E+02  0.91253480728E+02  0.47000000000E+01 0. -1.
        -13    1    6    6    0    0  0.65626792918E+02 -0.24581211957E+02 -0.14743639029E+03  0.16324399257E+03  0.00000000000E+00 0.  1.
         14    1    6    6    0    0  0.47516035036E+02  0.26812751010E+02 -0.31613993141E+02  0.63056655197E+02  0.00000000000E+00 0. -1.
         -5    1    3    3    0  503 -0.85200626724E+02 -0.27271979247E+02 -0.37457885168E+03  0.38514193977E+03  0.47000000000E+01 0.  1.
         11    1    4    4    0    0 -0.28580657776E+02  0.48440679257E+01 -0.21204606200E+03  0.21401834361E+03  0.00000000000E+00 0. -1.
        -12    1    4    4    0    0  0.33284954531E+02  0.65965642591E+02 -0.36980619827E+03  0.37711533843E+03  0.00000000000E+00 0.  1.
</event>
<event>
12    1  0.1615162E-001  0.2024931E+03  0.7818608E-02  0.1149749E+00
         21   -1    0    0  503  502  0.00000000000E+00  0.00000000000E+00  0.25535541058E+03  0.25535541058E+03  0.00000000000E+00 0.  1.
         21   -1    0    0  501  503 -0.00000000000E+00 -0.00000000000E+00 -0.24757446046E+03  0.24757446046E+03  0.00000000000E+00 0.  1.
          6    2    1    2  501    0 -0.48923722342E+02  0.71544084791E+02 -0.15154753863E+03  0.25292310582E+03  0.18300643245E+03 0.  0.
         24    2    3    3    0    0 -0.68437388262E+02  0.63600917618E+02 -0.26313131304E+02  0.12584193554E+03  0.80094063622E+02 0.  0.
         -6    2    1    2    0  502  0.48923722342E+02 -0.71544084791E+02  0.15932848875E+03  0.25000676521E+03  0.17206315308E+03 0.  0.
        -24    2    5    5    0    0  0.59059206649E+02 -0.94976906709E+02  0.65312314548E+02  0.15247238053E+03  0.80458223282E+02 0.  0.
          5    1    3    3  501    0  0.19513665920E+02  0.79431671732E+01 -0.12523440732E+03  0.12708117028E+03  0.47000000000E+01 0. -1.
        -13    1    4    4    0    0 -0.39673607788E+02  0.64228785427E+02 -0.48307996776E+02  0.89626974650E+02  0.00000000000E+00 0.  1.
         14    1    4    4    0    0 -0.28763780474E+02 -0.62786780939E+00  0.21994865472E+02  0.36214960890E+02  0.00000000000E+00 0. -1.
         -5    1    5    5    0  502 -0.10135484306E+02  0.23432821918E+02  0.94016174201E+02  0.97534384688E+02  0.47000000000E+01 0.  1.
         11    1    6    6    0    0  0.38371925291E+02 -0.73307014866E+01 -0.33767847171E+01  0.39211560920E+02  0.00000000000E+00 0. -1.
        -12    1    6    6    0    0  0.20687281358E+02 -0.87646205222E+02  0.68689099265E+02  0.11326081961E+03  0.00000000000E+00 0.  1.
</event>
<event>
12    1  0.1615162E-001  0.2199696E+03  0.7818608E-02  0.1133941E+00
         21   -1    0    0  501  502  0.00000000000E+00  0.00000000000E+00  0.20129461104E+03  0.20129461104E+03  0.00000000000E+00 0.  1.
         21   -1    0    0  502  503 -0.00000000000E+00 -0.00000000000E+00 -0.26198673651E+03  0.26198673651E+03  0.00000000000E+00 0.  1.
         -6    2    1    2    0  503  0.13668231309E+03  0.15710127123E+02 -0.97180609858E+02  0.24030593567E+03  0.17138847388E+03 0.  0.
        -24    2    3    3    0    0  0.12866857803E+03 -0.37696254897E+02 -0.37701583139E+02  0.15983043499E+03  0.78407575990E+02 0.  0.
          6    2    1    2  501    0 -0.13668231309E+03 -0.15710127123E+02  0.36488484392E+02  0.22297541188E+03  0.17163263677E+03 0.  0.
         24    2    5    5    0    0 -0.32821660396E+02 -0.61532120415E+02  0.20023879607E+02  0.10817182544E+03  0.80229201862E+02 0.  0.
          5    1    5    5  501    0 -0.10386065270E+03  0.45821993292E+02  0.16464604785E+02  0.11480358644E+03  0.47000000000E+01 0. -1.
        -13    1    6    6    0    0 -0.52977404321E+02 -0.55488674902E+02  0.32930524656E+02  0.83486632853E+02  0.00000000000E+00 0.  1.
         14    1    6    6    0    0  0.20155743925E+02 -0.60434455132E+01 -0.12906645049E+02  0.24685192591E+02  0.00000000000E+00 0. -1.
         -5    1    3    3    0  503  0.80137350662E+01  0.53406382020E+02 -0.59479026719E+02  0.80475500680E+02  0.47000000000E+01 0.  1.
         11    1    4    4    0    0  0.13520577379E+03 -0.31111323938E+02 -0.47203750034E+02  0.14654934241E+03  0.00000000000E+00 0. -1.
        -12    1    4    4    0    0 -0.65371957683E+01 -0.65849309591E+01  0.95021668956E+01  0.13281092574E+02  0.00000000000E+00 0.  1.
</event>
<event>
12    1  0.1615162E-001  0.2341459E+03  0.7818608E-02  0.1124046E+00
         21   -1    0    0  501  502  0.00000000000E+00  0.00000000000E+00  0.14827676822E+04  0.14827676822E+04  0.00000000000E+00 0. -1.
         21   -1    0    0  502  503 -0.00000000000E+00 -0.00000000000E+00 -0.42946557540E+02  0.42946557540E+02  0.00000000000E+00 0. -1.
         -6    2    1    2    0  503  0.15611003799E+03 -0.30663417464E+02  0.43140460351E+03  0.49085052151E+03  0.17179555701E+03 0.  0.
        -24    2    3    3    0    0  0.64327841429E+02 -0.25105602221E+01  0.91197064036E+02  0.13732567813E+03  0.79981643445E+02 0.  0.
          6    2    1    2  501    0 -0.15611003799E+03  0.30663417464E+02  0.10084165211E+04  0.10348637182E+04  0.16949467851E+03 0.  0.
         24    2    5    5    0    0 -0.13104852325E+03  0.84803153561E+01  0.52371261350E+03  0.54898293282E+03  0.99306232391E+02 0.  0.
          5    1    5    5  501    0 -0.25061514738E+02  0.22183102108E+02  0.48470390763E+03  0.48588078539E+03  0.47000000000E+01 0. -1.
        -13    1    6    6    0    0  0.10723250923E+02  0.71469557709E+01  0.12783906895E+03  0.12848694345E+03  0.00000000000E+00 0.  1.
         14    1    6    6    0    0 -0.14177177417E+03  0.13333595852E+01  0.39587354455E+03  0.42049598937E+03  0.00000000000E+00 0. -1.
         -5    1    3    3    0  503  0.91782196557E+02 -0.28152857242E+02  0.34020753947E+03  0.35352484338E+03  0.47000000000E+01 0.  1.
         13    1    4    4    0    0  0.58685030483E+02  0.32378393257E+02  0.64654715451E+02  0.93126394662E+02  0.00000000000E+00 0. -1.
        -14    1    4    4    0    0  0.56428109466E+01 -0.34888953479E+02  0.26542348585E+02  0.44199283464E+02  0.00000000000E+00 0.  1.
</event>
<event>
12    1  0.1615162E-001  0.1736880E+03  0.7818608E-02  0.1174454E+00
         21   -1    0    0  501  502  0.00000000000E+00  0.00000000000E+00  0.13536614836E+04  0.13536614836E+04  0.00000000000E+00 0. -1.
         21   -1    0    0  502  503 -0.00000000000E+00 -0.00000000000E+00 -0.22133831069E+02  0.22133831069E+02  0.00000000000E+00 0. -1.
         -6    2    1    2    0  503  0.15089640547E+02  0.12687881111E+02  0.63660263154E+03  0.65987152866E+03  0.17256547822E+03 0.  0.
        -24    2    3    3    0    0  0.72252718023E+02 -0.11293787439E+01  0.49966515392E+03  0.51076587191E+03  0.77425958903E+02 0.  0.
          6    2    1    2  501    0 -0.15089640547E+02 -0.12687881111E+02  0.69492502101E+03  0.71592378603E+03  0.17098948212E+03 0.  0.
         24    2    5    5    0    0  0.20846232911E+02 -0.29739482035E+01  0.65826192677E+03  0.66346408747E+03  0.80202377340E+02 0.  0.
          5    1    5    5  501    0 -0.35935873458E+02 -0.97139329073E+01  0.36663094239E+02  0.52459698559E+02  0.47000000000E+01 0. -1.
        -13    1    6    6    0    0  0.11731404787E+02 -0.40769870979E+02  0.40805995624E+03  0.41025935227E+03  0.00000000000E+00 0.  1.
         14    1    6    6    0    0  0.91148281239E+01  0.37795922776E+02  0.25020197054E+03  0.25320473521E+03  0.00000000000E+00 0. -1.
         -5    1    3    3    0  503 -0.57163077476E+02  0.13817259855E+02  0.13693747762E+03  0.14910565675E+03  0.47000000000E+01 0.  1.
         13    1    4    4    0    0  0.83702006552E+01 -0.14929459785E+02  0.30385402107E+03  0.30433569483E+03  0.00000000000E+00 0. -1.
        -14    1    4    4    0    0  0.63882517368E+02  0.13800081041E+02  0.19581113285E+03  0.20643017708E+03  0.00000000000E+00 0.  1.
</event>
<event>
12    1  0.1615162E-001  0.1825554E+03  0.7818608E-02  0.1165374E+00
         21   -1    0    0  503  502  0.00000000000E+00  0.00000000000E+00  0.20198710874E+03  0.20198710874E+03  0.00000000000E+00 0.  1.
         21   -1    0    0  501  503 -0.00000000000E+00 -0.00000000000E+00 -0.23792699992E+03  0.23792699992E+03  0.00000000000E+00 0.  1.
          6    2    1    2  501    0 -0.11958347382E+02 -0.61353771307E+02 -0.13982375418E+03  0.22995035498E+03  0.17152025011E+03 0.  0.
         24    2    3    3    0    0 -0.47230686193E+02  0.15994321664E+02 -0.94910114682E+02  0.13368930167E+03  0.79864531983E+02 0.  0.
         -6    2    1    2    0  502  0.11958347382E+02  0.61353771307E+02  0.10388386300E+03  0.20996375368E+03  0.17142238343E+03 0.  0.
        -24    2    5    5    0    0 -0.51868058107E+02  0.92133073439E+01  0.32019038136E+02  0.10051476523E+03  0.79390293752E+02 0.  0.
          5    1    3    3  501    0  0.35272338811E+02 -0.77348092971E+02 -0.44913639502E+02  0.96261053312E+02  0.47000000000E+01 0. -1.
        -11    1    4    4    0    0 -0.42621622533E+02 -0.26863332385E+02 -0.43172598495E+02  0.66348433252E+02  0.00000000000E+00 0.  1.
         12    1    4    4    0    0 -0.46090636605E+01  0.42857654049E+02 -0.51737516187E+02  0.67340868420E+02  0.00000000000E+00 0. -1.
         -5    1    5    5    0  502  0.63826405489E+02  0.52140463963E+02  0.71864824868E+02  0.10944898845E+03  0.47000000000E+01 0.  1.
         13    1    6    6    0    0 -0.60954944887E+02  0.17359036476E+02 -0.29806160211E+01  0.63448605386E+02  0.00000000000E+00 0. -1.
        -14    1    6    6    0    0  0.90868867800E+01 -0.81457291324E+01  0.34999654157E+02  0.37066159844E+02  0.00000000000E+00 0.  1.
</event>
<event>
12    1  0.1615162E-001  0.1921988E+03  0.7818608E-02  0.1156606E+00
         21   -1    0    0  503  502  0.00000000000E+00  0.00000000000E+00  0.68752376870E+02  0.68752376870E+02  0.00000000000E+00 0.  1.
         21   -1    0    0  501  503 -0.00000000000E+00 -0.00000000000E+00 -0.53607093684E+03  0.53607093684E+03  0.00000000000E+00 0.  1.
          6    2    1    2  501    0  0.42076114699E+02  0.73356759280E+02 -0.22752717943E+03  0.29751193702E+03  0.17202651462E+03 0.  0.
         24    2    3    3    0    0 -0.74462821372E+01  0.50719285340E+02 -0.41039415632E+02  0.10318052150E+03  0.79587017521E+02 0.  0.
         -6    2    1    2    0  502 -0.42076114699E+02 -0.73356759280E+02 -0.23979138055E+03  0.30731137669E+03  0.17259421340E+03 0.  0.
        -24    2    5    5    0    0  0.12212364522E+02 -0.25527380876E+02 -0.33961222815E+02  0.89084356718E+02  0.77342542854E+02 0.  0.
          5    1    3    3  501    0  0.49522396837E+02  0.22637473941E+02 -0.18648776379E+03  0.19433141552E+03  0.47000000000E+01 0. -1.
        -13    1    4    4    0    0  0.31936775440E+01  0.69640599453E+02 -0.19024124190E+02  0.72262922510E+02  0.00000000000E+00 0.  1.
         14    1    4    4    0    0 -0.10639959681E+02 -0.18921314114E+02 -0.22015291443E+02  0.30917598987E+02  0.00000000000E+00 0. -1.
         -5    1    5    5    0  502 -0.54288479222E+02 -0.47829378405E+02 -0.20583015773E+03  0.21822701997E+03  0.47000000000E+01 0.  1.
         11    1    6    6    0    0 -0.10406652437E+02  0.12044542866E+02  0.16025072069E+02  0.22586995431E+02  0.00000000000E+00 0. -1.
        -12    1    6    6    0    0  0.22619016959E+02 -0.37571923742E+02 -0.49986294884E+02  0.66497361286E+02  0.00000000000E+00 0.  1.
</event>
<event>
12    1  0.1615162E-001  0.2204847E+03  0.7818608E-02  0.1133678E+00
         21   -1    0    0  503  502  0.00000000000E+00  0.00000000000E+00  0.45733804915E+03  0.45733804915E+03  0.00000000000E+00 0. -1.
         21   -1    0    0  501  503 -0.00000000000E+00 -0.00000000000E+00 -0.11413261059E+03  0.11413261059E+03  0.00000000000E+00 0. -1.
          6    2    1    2  501    0  0.53734548731E+02  0.12574719906E+03  0.94532461314E+02  0.23912782718E+03  0.17188941703E+03 0.  0.
         24    2    3    3    0    0  0.17120300405E+01 -0.54234540764E+01  0.39504434765E+02  0.87594806344E+02  0.77973744500E+02 0.  0.
         -6    2    1    2    0  502 -0.53734548731E+02 -0.12574719906E+03  0.24867297724E+03  0.33234283256E+03  0.17295591619E+03 0.  0.
        -24    2    5    5    0    0 -0.96769932578E+02 -0.57350179452E+02  0.17541334763E+03  0.22316746957E+03  0.79877493764E+02 0.  0.
          5    1    3    3  501    0  0.52022518691E+02  0.13117065314E+03  0.55028026550E+02  0.15153302083E+03  0.47000000000E+01 0. -1.
        -13    1    4    4    0    0 -0.13097666619E+02  0.33058406485E+02  0.26541819551E+02  0.44372010268E+02  0.00000000000E+00 0.  1.
         14    1    4    4    0    0  0.14809696660E+02 -0.38481860561E+02  0.12962615214E+02  0.43222796076E+02  0.00000000000E+00 0. -1.
         -5    1    5    5    0  502  0.43035383846E+02 -0.68397019613E+02  0.73259629611E+02  0.10917536300E+03  0.47000000000E+01 0.  1.
         11    1    6    6    0    0 -0.16636542553E+02 -0.54850269668E+02  0.82333301757E+02  0.10031998410E+03  0.00000000000E+00 0. -1.
        -12    1    6    6    0    0 -0.80133390025E+02 -0.24999097834E+01  0.93080045877E+02  0.12284748547E+03  0.00000000000E+00 0.  1.
</event>
<event>
12    1  0.1615162E-001  0.2230539E+03  0.7818608E-02  0.1131806E+00
         21   -1    0    0  503  502  0.00000000000E+00  0.00000000000E+00  0.70751756729E+03  0.70751756729E+03  0.00000000000E+00 0.  1.
         21   -1    0    0  501  503 -0.00000000000E+00 -0.00000000000E+00 -0.12103703242E+03  0.12103703242E+03  0.00000000000E+00 0.  1.
          6    2    1    2  501    0 -0.77862336426E+02  0.12009403833E+03  0.23887667777E+02  0.22335729321E+03  0.16980205619E+03 0.  0.
         24    2    3    3    0    0 -0.21360240998E+02  0.16842796752E+02 -0.35617450457E+02  0.91386634466E+02  0.79642793046E+02 0.  0.
         -6    2    1    2    0  502  0.77862336426E+02 -0.12009403833E+03  0.56259286710E+03  0.60519730650E+03  0.17107870762E+03 0.  0.
        -24    2    5    5    0    0  0.44713602605E+02 -0.15152762931E+03  0.45233669997E+03  0.48575936618E+03  0.79960884120E+02 0.  0.
          5    1    3    3  501    0 -0.56502095428E+02  0.10325124157E+03  0.59505118234E+02  0.13197065875E+03  0.47000000000E+01 0. -1.
        -11    1    4    4    0    0  0.48183634204E+01  0.45257971772E+02 -0.19976269140E+02  0.49704647305E+02  0.00000000000E+00 0.  1.
         12    1    4    4    0    0 -0.26178604419E+02 -0.28415175020E+02 -0.15641181317E+02  0.41681987161E+02  0.00000000000E+00 0. -1.
         -5    1    5    5    0  502  0.33148733821E+02  0.31433590988E+02  0.11025616713E+03  0.11943794032E+03  0.47000000000E+01 0.  1.
         13    1    6    6    0    0 -0.10303646796E+02 -0.32274119530E+02  0.37067333123E+02  0.50217239208E+02  0.00000000000E+00 0. -1.
        -14    1    6    6    0    0  0.55017249400E+02 -0.11925350978E+03  0.41526936685E+03  0.43554212697E+03  0.00000000000E+00 0.  1.
</event>
<event>
12    1  0.1615162E-001  0.1823751E+03  0.7818608E-02  0.1165821E+00
         21   -1    0    0  501  502  0.00000000000E+00  0.00000000000E+00  0.19677499572E+03  0.19677499572E+03  0.00000000000E+00 0. -1.
         21   -1    0    0  502  503 -0.00000000000E+00 -0.00000000000E+00 -0.45610862392E+03  0.45610862392E+03  0.00000000000E+00 0. -1.
         -6    2    1    2    0  503 -0.13506647121E+02 -0.60072905918E+02 -0.38900610256E+03  0.42910773736E+03  0.17034235789E+03 0.  0.
        -24    2    3    3    0    0 -0.88734988600E+01 -0.24564836860E+02 -0.38344814200E+03  0.39256639151E+03  0.79960765062E+02 0.  0.
          6    2    1    2  501    0  0.13506647121E+02  0.60072905918E+02  0.12967247435E+03  0.22377588228E+03  0.17166686152E+03 0.  0.
         24    2    5    5    0    0 -0.44090250475E+02  0.83479387858E+02  0.71913845920E+02  0.13878520533E+03  0.71951189013E+02 0.  0.
          5    1    5    5  501    0  0.57596897596E+02 -0.23406481940E+02  0.57758628432E+02  0.84990676947E+02  0.47000000000E+01 0. -1.
        -11    1    6    6    0    0 -0.57963647659E+02  0.37729920331E+02  0.30713800793E+02  0.75674757332E+02  0.00000000000E+00 0.  1.
         12    1    6    6    0    0  0.13873397184E+02  0.45749467528E+02  0.41200045127E+02  0.63110448001E+02  0.00000000000E+00 0. -1.
         -5    1    3    3    0  503 -0.46331482614E+01 -0.35508069058E+02 -0.55579605635E+01  0.36541345852E+02  0.47000000000E+01 0.  1.
         13    1    4    4    0    0 -0.42526308798E+02 -0.26297496731E+02 -0.20946668130E+03  0.21535165625E+03  0.00000000000E+00 0. -1.
        -14    1    4    4    0    0  0.33652809938E+02  0.17326598710E+01 -0.17398146070E+03  0.17721473526E+03  0.00000000000E+00 0.  1.
</event>
<event>
12    1  0.1615162E-001  0.2059919E+03  0.7818608E-02  0.1145568E+00
         21   -1    0    0  501  502  0.00000000000E+00  0.00000000000E+00  0.45624660563E+03  0.45624660563E+03  0.00000000000E+00 0. -1.
         21   -1    0    0  502  503 -0.00000000000E+00 -0.00000000000E+00 -0.96348934829E+02  0.96348934829E+02  0.00000000000E+00 0.  1.
         -6    2    1    2    0  503  0.99732889697E+02 -0.42136343355E+02  0.11816504717E+03  0.23747765944E+03  0.17524422855E+03 0.  0.
        -24    2    3    3    0    0  0.55598373918E+01 -0.31513357021E+01  0.58137359768E-01  0.81401630693E+02  0.81150350530E+02 0.  0.
          6    2    1    2  501    0 -0.99732889697E+02  0.42136343355E+02  0.24173262363E+03  0.31511788103E+03  0.17071173626E+03 0.  0.
         24    2    5    5    0    0 -0.86357814099E+02 -0.51876549535E+01  0.23844481980E+03  0.26560673968E+03  0.78780862254E+02 0.  0.
          5    1    5    5  501    0 -0.13375075598E+02  0.47323998308E+02  0.32878038352E+01  0.49511141344E+02  0.47000000000E+01 0. -1.
        -11    1    6    6    0    0  0.88859429842E+01 -0.12934574420E+02  0.11779655930E+02  0.19622015493E+02  0.00000000000E+00 0.  1.
         12    1    6    6    0    0 -0.95243757083E+02  0.77469194670E+01  0.22666516387E+03  0.24598472419E+03  0.00000000000E+00 0. -1.
         -5    1    3    3    0  503  0.94173052305E+02 -0.38985007653E+02  0.11810690981E+03  0.15607602874E+03  0.47000000000E+01 0.  1.
         11    1    4    4    0    0 -0.30507965202E+02 -0.11872849269E+02  0.20902245429E+02  0.38840756359E+02  0.00000000000E+00 0. -1.
        -12    1    4    4    0    0  0.36067802594E+02  0.87215135669E+01 -0.20844108070E+02  0.42560874334E+02  0.00000000000E+00 0.  1.
</event>
<event>
12    1  0.1615162E-001  0.1766629E+03  0.7818608E-02  0.1171187E+00
         21   -1    0    0  503  502  0.00000000000E+00  0.00000000000E+00  0.56092614596E+02  0.56092614596E+02  0.00000000000E+00 0. -1.
         21   -1    0    0  501  503 -0.00000000000E+00 -0.00000000000E+00 -0.63363776001E+03  0.63363776001E+03  0.00000000000E+00 0. -1.
          6    2    1    2  501    0 -0.29663345545E+02 -0.20297531413E+02 -0.40997339118E+03  0.44623487705E+03  0.17249776859E+03 0.  0.
         24    2    3    3    0    0 -0.23705668634E+02  0.20184421248E+02 -0.98798080100E+02  0.13234565036E+03  0.82370753006E+02 0.  0.
         -6    2    1    2    0  502  0.29663345545E+02  0.20297531413E+02 -0.16757175423E+03  0.24349549755E+03  0.17296780239E+03 0.  0.
        -24    2    5    5    0    0  0.40500254268E+02  0.30150299076E+02 -0.19217166118E+03  0.21448237909E+03  0.80767768631E+02 0.  0.
          5    1    3    3  501    0 -0.59576769110E+01 -0.40481952661E+02 -0.31117531108E+03  0.31388922669E+03  0.47000000000E+01 0. -1.
        -13    1    4    4    0    0  0.20808625856E+01  0.48635786078E+02 -0.64880568310E+02  0.81112624300E+02  0.00000000000E+00 0.  1.
         14    1    4    4    0    0 -0.25786531219E+02 -0.28451364831E+02 -0.33917511790E+02  0.51233026058E+02  0.00000000000E+00 0. -1.
         -5    1    5    5    0  502 -0.10836908723E+02 -0.98527676630E+01  0.24599906948E+02  0.29013118467E+02  0.47000000000E+01 0.  1.
         11    1    6    6    0    0  0.33222956855E+02  0.34215913820E+02 -0.40460430744E+02  0.62542306295E+02  0.00000000000E+00 0. -1.
        -12    1    6    6    0    0  0.72772974132E+01 -0.40656147439E+01 -0.15171123043E+03  0.15194007279E+03  0.00000000000E+00 0.  1.
</event>
<event>
12    1  0.1615162E-001  0.1888730E+03  0.7818608E-02  0.1159736E+00
         21   -1    0    0  503  502  0.00000000000E+00  0.00000000000E+00  0.84281724219E+02  0.84281724219E+02  0.00000000000E+00 0. -1.
         21   -1    0    0  501  503 -0.00000000000E+00 -0.00000000000E+00 -0.89937766109E+03  0.89937766109E+03  0.00000000000E+00 0. -1.
          6    2    1    2  501    0 -0.38988724333E+02 -0.64192717021E+02 -0.76689641491E+03  0.78981208441E+03  0.17329798594E+03 0.  0.
         24    2    3    3    0    0 -0.67440557529E+02 -0.16816713322E+02 -0.26792615742E+03  0.28776885878E+03  0.78711241936E+02 0.  0.
         -6    2    1    2    0  502  0.38988724333E+02  0.64192717021E+02 -0.48199521956E+02  0.19384730090E+03  0.17208357448E+03 0.  0.
        -24    2    5    5    0    0 -0.11471974646E+02  0.85728692091E+02 -0.88549507262E+00  0.12124711148E+03  0.84965069825E+02 0.  0.
          5    1    3    3  501    0  0.28451833197E+02 -0.47376003700E+02 -0.49897025749E+03  0.50204322563E+03  0.47000000000E+01 0. -1.
        -13    1    4    4    0    0 -0.50146031273E+01  0.61622562106E+00 -0.17155681197E+03  0.17163119097E+03  0.00000000000E+00 0.  1.
         14    1    4    4    0    0 -0.62425954402E+02 -0.17432938943E+02 -0.96369345448E+02  0.11613766781E+03  0.00000000000E+00 0. -1.
         -5    1    5    5    0  502  0.50460698978E+02 -0.21535975069E+02 -0.47314026883E+02  0.72600189418E+02  0.47000000000E+01 0.  1.
         11    1    6    6    0    0 -0.25174107702E+02  0.51457867881E+02  0.37126655426E+02  0.68264459337E+02  0.00000000000E+00 0. -1.
        -12    1    6    6    0    0  0.13702133057E+02  0.34270824210E+02 -0.38012150499E+02  0.52982652141E+02  0.00000000000E+00 0.  1.
</event>
<event>
12    1  0.1615162E-001  0.3371404E+03  0.7818608E-02  0.1068121E+00
         21   -1    0    0  503  502  0.00000000000E+00  0.00000000000E+00  0.12864856521E+03  0.12864856521E+03  0.00000000000E+00 0. -1.
         21   -1    0    0  501  503 -0.00000000000E+00 -0.00000000000E+00 -0.88143930271E+03  0.88143930271E+03  0.00000000000E+00 0.  1.
          6    2    1    2  501    0 -0.11669099894E+03  0.26451510795E+03 -0.36579940297E+03  0.49683749826E+03  0.17161953529E+03 0.  0.
         24    2    3    3    0    0 -0.60424477150E+02  0.21689601863E+03 -0.18663723590E+03  0.30304722179E+03  0.79430223932E+02 0.  0.
         -6    2    1    2    0  502  0.11669099894E+03 -0.26451510795E+03 -0.38699133453E+03  0.51325036966E+03  0.17343188113E+03 0.  0.
        -24    2    5    5    0    0  0.11934464451E+03 -0.23379503170E+03 -0.39512245414E+03  0.48101731170E+03  0.79703446398E+02 0.  0.
          5    1    3    3  501    0 -0.56266521792E+02  0.47619089316E+02 -0.17916216707E+03  0.19379027646E+03  0.47000000000E+01 0. -1.
        -11    1    4    4    0    0 -0.28998966967E+01 -0.40196930223E+01 -0.19500406053E+02  0.20120466423E+02  0.00000000000E+00 0.  1.
         12    1    4    4    0    0 -0.57524580453E+02  0.22091571166E+03 -0.16713682985E+03  0.28292675537E+03  0.00000000000E+00 0. -1.
         -5    1    5    5    0  502 -0.26536455703E+01 -0.30720076253E+02  0.81311196108E+01  0.32233057967E+02  0.47000000000E+01 0.  1.
         13    1    6    6    0    0  0.47028629348E+02 -0.97769568858E+02 -0.97399036317E+02  0.14579832937E+03  0.00000000000E+00 0. -1.
        -14    1    6    6    0    0  0.72316015164E+02 -0.13602546284E+03 -0.29772341782E+03  0.33521898232E+03  0.00000000000E+00 0.  1.
</event>
<event>
12    1  0.1615162E-001  0.1983032E+03  0.7818608E-02  0.1155665E+00
         21   -1    0    0  503  502  0.00000000000E+00  0.00000000000E+00  0.11442492656E+03  0.11442492656E+03  0.00000000000E+00 0.  1.
         21   -1    0    0  501  503 -0.00000000000E+00 -0.00000000000E+00 -0.35108766835E+03  0.35108766835E+03  0.00000000000E+00 0. -1.
          6    2    1    2  501    0  0.84152374539E+02  0.40797905137E+02 -0.20330221384E+03  0.28399993690E+03  0.17486589949E+03 0.  0.
         24    2    3    3    0    0  0.10425786536E+03  0.33349897818E+02 -0.77611570450E+02  0.15640710243E+03  0.80359863418E+02 0.  0.
         -6    2    1    2    0  502 -0.84152374539E+02 -0.40797905137E+02 -0.33360527955E+02  0.18151265801E+03  0.15194679657E+03 0.  0.
        -24    2    5    5    0    0 -0.52296913239E+02  0.20397369619E+02 -0.52508949876E+02  0.10976041673E+03  0.78352660714E+02 0.  0.
          5    1    3    3  501    0 -0.20105490817E+02  0.74480073195E+01 -0.12569064339E+03  0.12759283448E+03  0.47000000000E+01 0. -1.
        -13    1    4    4    0    0  0.47161634863E+02  0.34119487276E+02 -0.80374124059E+02  0.99238898791E+02  0.00000000000E+00 0.  1.
         14    1    4    4    0    0  0.57096230493E+02 -0.76958945844E+00  0.27625536090E+01  0.57168203635E+02  0.00000000000E+00 0. -1.
         -5    1    5    5    0  502 -0.31855461300E+02 -0.61195274756E+02  0.19148421920E+02  0.71752241283E+02  0.47000000000E+01 0.  1.
         13    1    6    6    0    0 -0.53993018935E+02 -0.16531304222E+02 -0.18206474486E+02  0.59329636997E+02  0.00000000000E+00 0. -1.
        -14    1    6    6    0    0  0.16961056957E+01  0.36928673841E+02 -0.34302475390E+02  0.50430779728E+02  0.00000000000E+00 0.  1.
</event>
<event>
12    1  0.1615162E-001  0.2029718E+03  0.7818608E-02  0.1147572E+00
         21   -1    0    0  501  502  0.00000000000E+00  0.00000000000E+00  0.80576249437E+02  0.80576249437E+02  0.00000000000E+00 0. -1.
         21   -1    0    0  502  503 -0.00000000000E+00 -0.00000000000E+00 -0.10355739019E+04  0.10355739019E+04  0.00000000000E+00 0. -1.
         -6    2    1    2    0  503 -0.95372211669E+02  0.45439980337E+02 -0.87515223158E+03  0.89803818772E+03  0.17152407292E+03 0.  0.
        -24    2    3    3    0    0 -0.65099081322E+02 -0.14825971379E+02 -0.73591254454E+03  0.74325373177E+03  0.80007104425E+02 0.  0.
          6    2    1    2  501    0  0.95372211669E+02 -0.45439980337E+02 -0.79845420895E+02  0.21811196363E+03  0.17331153126E+03 0.  0.
         24    2    5    5    0    0  0.24724446438E+02 -0.88143189987E+02 -0.33028392358E+02  0.12309304442E+03  0.75369109658E+02 0.  0.
          5    1    5    5  501    0  0.70647765230E+02  0.42703209650E+02 -0.46817028537E+02  0.95018919208E+02  0.47000000000E+01 0. -1.
        -13    1    6    6    0    0 -0.21214770454E+02 -0.15127938261E+02 -0.25569179932E+02  0.36506218153E+02  0.00000000000E+00 0.  1.
         14    1    6    6    0    0  0.45939216893E+02 -0.73015251726E+02 -0.74592124258E+01  0.86586826269E+02  0.00000000000E+00 0. -1.
         -5    1    3    3    0  503 -0.30273130347E+02  0.60265951716E+02 -0.13923968704E+03  0.15478445595E+03  0.47000000000E+01 0.  1.
         13    1    4    4    0    0 -0.71679945962E+02  0.12794540893E+02 -0.60036184259E+03  0.60476115696E+03  0.00000000000E+00 0. -1.
        -14    1    4    4    0    0  0.65808646400E+01 -0.27620512272E+02 -0.13555070195E+03  0.13849257481E+03  0.00000000000E+00 0.  1.
</event>
<event>
12    1  0.1615162E-001  0.1720958E+03  0.7818608E-02  0.1176466E+00
         21   -1    0    0  501  502  0.00000000000E+00  0.00000000000E+00  0.48850135989E+02  0.48850135989E+02  0.00000000000E+00 0.  1.
         21   -1    0    0  502  503 -0.00000000000E+00 -0.00000000000E+00 -0.73335164566E+03  0.73335164566E+03  0.00000000000E+00 0.  1.
         -6    2    1    2    0  503 -0.21499494785E+01 -0.92983086053E+01 -0.50925587330E+03  0.53658418994E+03  0.16878971409E+03 0.  0.
        -24    2    3    3    0    0 -0.40463689502E+02  0.46589765308E+02 -0.29652667361E+03  0.31327449046E+03  0.80030755429E+02 0.  0.
          6    2    1    2  501    0  0.21499494785E+01  0.92983086053E+01 -0.17524563638E+03  0.24561759171E+03  0.17183098517E+03 0.  0.
         24    2    5    5    0    0  0.16762498772E+02  0.66534606562E+02 -0.76245376624E+02  0.13023708282E+03  0.80252757271E+02 0.  0.
          5    1    5    5  501    0 -0.14612549293E+02 -0.57236297957E+02 -0.99000259756E+02  0.11538050889E+03  0.47000000000E+01 0. -1.
        -11    1    6    6    0    0  0.11470137294E+02 -0.16998336896E+02 -0.72001614065E+01  0.21733610631E+02  0.00000000000E+00 0.  1.
         12    1    6    6    0    0  0.52923614783E+01  0.83532943458E+02 -0.69045215217E+02  0.10850347219E+03  0.00000000000E+00 0. -1.
         -5    1    3    3    0  503  0.38313740024E+02 -0.55888073914E+02 -0.21272919969E+03  0.22330969948E+03  0.47000000000E+01 0.  1.
         13    1    4    4    0    0 -0.20042887089E+02 -0.15273477121E+02 -0.31399169931E+02  0.40260455767E+02  0.00000000000E+00 0. -1.
        -14    1    4    4    0    0 -0.20420802413E+02  0.61863242430E+02 -0.26512750368E+03  0.27301403469E+03  0.00000000000E+00 0.  1.
</event>
<event>
12    1  0.1615162E-001  0.2114699E+03  0.7818608E-02  0.1140551E+00
         21   -1    0    0  501  502  0.00000000000E+00  0.00000000000E+00  0.96156696581E+03  0.96156696581E+03  0.00000000000E+00 0.  1.
         21   -1    0    0  502  503 -0.00000000000E+00 -0.00000000000E+00 -0.52888047416E+02  0.52888047416E+02  0.00000000000E+00 0.  1.
         -6    2    1    2    0  503 -0.63761653883E+01 -0.12120773702E+03  0.27663757063E+03  0.34820665675E+03  0.17316916389E+03 0.  0.
        -24    2    3    3    0    0  0.51402188821E+02 -0.77257626917E+02  0.10973013194E+03  0.16613487563E+03  0.83361676513E+02 0.  0.
          6    2    1    2  501    0  0.63761653883E+01  0.12120773702E+03  0.63204134776E+03  0.66624835647E+03  0.17227488564E+03 0.  0.
         24    2    5    5    0    0 -0.28205543247E+02  0.12462942363E+03  0.30733164053E+03  0.33965061232E+03  0.67688664319E+02 0.  0.
          5    1    5    5  501    0  0.34581708635E+02 -0.34216866135E+01  0.32470970723E+03  0.32659774415E+03  0.47000000000E+01 0. -1.
        -11    1    6    6    0    0 -0.42157187653E+02  0.45664060374E+02  0.16450417652E+03  0.17585237836E+03  0.00000000000E+00 0.  1.
         12    1    6    6    0    0  0.13951644407E+02  0.78965363257E+02  0.14282746401E+03  0.16379823397E+03  0.00000000000E+00 0. -1.
         -5    1    3    3    0  503 -0.57778354209E+02 -0.43950110101E+02  0.16690743868E+03  0.18207178112E+03  0.47000000000E+01 0.  1.
         13    1    4    4    0    0 -0.12617449199E+02  0.93896819491E+01  0.22828018091E+02  0.27721554094E+02  0.00000000000E+00 0. -1.
        -14    1    4    4    0    0  0.64019638020E+02 -0.86647308866E+02  0.86902113852E+02  0.13841332153E+03  0.00000000000E+00 0.  1.
</event>
<event>
12    1  0.1615162E-001  0.1842827E+03  0.7818608E-02  0.1164103E+00
         21   -1    0    0  503  502  0.00000000000E+00  0.00000000000E+00  0.14928398591E+03  0.14928398591E+03  0.00000000000E+00 0. -1.
         21   -1    0    0  501  503 -0.00000000000E+00 -0.00000000000E+00 -0.24074915482E+03  0.24074915482E+03  0.00000000000E+00 0. -1.
          6    2    1    2  501    0  0.59650244229E+02  0.19852830265E+02 -0.94634321788E+02  0.20572319758E+03  0.17150537209E+03 0.  0.
         24    2    3    3    0    0  0.54128773394E+02 -0.21423002477E+02  0.34721460400E+01  0.99040724609E+02  0.80050860011E+02 0.  0.
         -6    2    1    2    0  502 -0.59650244229E+02 -0.19852830265E+02  0.31691528751E+01  0.18430994316E+03  0.17322766844E+03 0.  0.
        -24    2    5    5    0    0 -0.79478706259E+02  0.11621415987E+01 -0.51280027475E+02  0.12249085072E+03  0.77821282253E+02 0.  0.
          5    1    3    3  501    0  0.55214708346E+01  0.41275832743E+02 -0.98106467828E+02  0.10668247297E+03  0.47000000000E+01 0. -1.
        -11    1    4    4    0    0 -0.43438760298E+01 -0.18510057273E+01  0.31111795068E+02  0.31468067521E+02  0.00000000000E+00 0.  1.
         12    1    4    4    0    0  0.58472649424E+02 -0.19571996750E+02 -0.27639649028E+02  0.67572657087E+02  0.00000000000E+00 0. -1.
         -5    1    5    5    0  502  0.19828462030E+02 -0.21014971864E+02  0.54449180350E+02  0.61819092437E+02  0.47000000000E+01 0.  1.
         11    1    6    6    0    0 -0.30070006389E+02 -0.34436225845E+02 -0.39601051742E+02  0.60483900616E+02  0.00000000000E+00 0. -1.
        -12    1    6    6    0    0 -0.49408699870E+02  0.35598367443E+02 -0.11678975733E+02  0.62006950108E+02  0.00000000000E+00 0.  1.
</event>
<event>
12    1  0.1615162E-001  0.1908424E+03  0.7818608E-02  0.1158062E+00
         21   -1    0    0  503  502  0.00000000000E+00  0.00000000000E+00  0.19985935309E+04  0.19985935309E+04  0.00000000000E+00 0. -1.
         21   -1    0    0  501  503 -0.00000000000E+00 -0.00000000000E+00 -0.22424869435E+02  0.22424869435E+02  0.00000000000E+00 0. -1.
          6    2    1    2  501    0  0.76798461065E+02 -0.21873301268E+02  0.54619059992E+03  0.57857151028E+03  0.17333313629E+03 0.  0.
         24    2    3    3    0    0 -0.26495290273E+02 -0.15813914792E+02  0.29076731683E+03  0.30294593314E+03  0.79237147605E+02 0.  0.
         -6    2    1    2    0  502 -0.76798461065E+02  0.21873301268E+02  0.14299780616E+04  0.14424468901E+04  0.17157892995E+03 0.  0.
        -24    2    5    5    0    0 -0.89669493496E+02  0.51829790537E+02  0.71919984659E+03  0.73090573483E+03  0.79043207313E+02 0.  0.
          5    1    3    3  501    0  0.10329375134E+03 -0.60593864757E+01  0.25542328309E+03  0.27562557714E+03  0.47000000000E+01 0. -1.
        -11    1    4    4    0    0  0.10106184070E+02 -0.38743825122E+02  0.10911463451E+03  0.11622918053E+03  0.00000000000E+00 0.  1.
         12    1    4    4    0    0 -0.36601474343E+02  0.22929910330E+02  0.18165268232E+03  0.18671675262E+03  0.00000000000E+00 0. -1.
         -5    1    5    5    0  502  0.12871032430E+02 -0.29956489269E+02  0.71077821497E+03  0.71154115524E+03  0.47000000000E+01 0.  1.
         13    1    6    6    0    0 -0.40199002568E+02 -0.24756807301E+00  0.46553039444E+03  0.46726284814E+03  0.00000000000E+00 0. -1.
        -14    1    6    6    0    0 -0.49470490927E+02  0.52077358610E+02  0.25366945215E+03  0.26364288670E+03  0.00000000000E+00 0.  1.
</event>
<event>
12    1  0.1615162E-001  0.1757893E+03  0.7818608E-02  0.1172325E+00
         21   -1    0    0  503  502  0.00000000000E+00  0.00000000000E+00  0.18948678236E+04  0.18948678236E+04  0.00000000000E+00 0. -1.
         21   -1    0    0  501  503 -0.00000000000E+00 -0.00000000000E+00 -0.16377596253E+02  0.16377596253E+02  0.00000000000E+00 0. -1.
          6    2    1    2  501    0  0.75874060446E+01  0.35832692555E+02  0.10436694153E+04  0.10581172476E+04  0.17036640137E+03 0.  0.
         24    2    3    3    0    0  0.64906154671E+02  0.97696862878E+01  0.49797023434E+03  0.50877727518E+03  0.81066058001E+02 0.  0.
         -6    2    1    2    0  502 -0.75874060446E+01 -0.35832692555E+02  0.83482081208E+03  0.85312817225E+03  0.17193120551E+03 0.  0.
        -24    2    5    5    0    0  0.48070665539E+01  0.31427268671E+02  0.65094024965E+03  0.65688425114E+03  0.82237033483E+02 0.  0.
          5    1    3    3  501    0 -0.57318748626E+02  0.26063006267E+02  0.54569918095E+03  0.54933997245E+03  0.47000000000E+01 0. -1.
        -13    1    4    4    0    0  0.80281613504E+01  0.31861927664E+02  0.29526010586E+03  0.29708275602E+03  0.00000000000E+00 0.  1.
         14    1    4    4    0    0  0.56877993321E+02 -0.22092241377E+02  0.20271012848E+03  0.21169451916E+03  0.00000000000E+00 0. -1.
         -5    1    5    5    0  502 -0.12394472598E+02 -0.67259961226E+02  0.18388056242E+03  0.19624392111E+03  0.47000000000E+01 0.  1.
         11    1    6    6    0    0  0.35000718921E+02  0.37969238849E+02  0.28487644857E+03  0.28951909155E+03  0.00000000000E+00 0. -1.
        -12    1    6    6    0    0 -0.30193652367E+02 -0.65419701783E+01  0.36606380108E+03  0.36736515959E+03  0.00000000000E+00 0.  1.
</event>
<event>
12    1  0.1615162E-001  0.1808988E+03  0.7818608E-02  0.1167097E+00
         21   -1    0    0  501  502  0.00000000000E+00  0.00000000000E+00  0.16879449537E+04  0.16879449537E+04  0.00000000000E+00 0. -1.
         21   -1    0    0  502  503 -0.00000000000E+00 -0.00000000000E+00 -0.30916731971E+02  0.30916731971E+02  0.00000000000E+00 0. -1.
         -6    2    1    2    0  503  0.55760324916E+02  0.20371750049E+02  0.30109036645E+03  0.35090999226E+03  0.17017106649E+03 0.  0.
        -24    2    3    3    0    0 -0.21637048257E+02  0.46981511718E+02  0.12832333130E+03  0.15967983977E+03  0.79720446385E+02 0.  0.
          6    2    1    2  501    0 -0.55760324916E+02 -0.20371750049E+02  0.13559378553E+04  0.13679516934E+04  0.17088050232E+03 0.  0.
         24    2    5    5    0    0  0.28084209598E+02  0.20970450293E+02  0.68686817780E+03  0.69236646057E+03  0.79717874021E+02 0.  0.
          5    1    5    5  501    0 -0.83844534514E+02 -0.41342200342E+02  0.66906967745E+03  0.67558523281E+03  0.47000000000E+01 0. -1.
        -11    1    6    6    0    0  0.53081098693E+02  0.33395631590E+01  0.52043392131E+03  0.52314455189E+03  0.00000000000E+00 0.  1.
         12    1    6    6    0    0 -0.24996889095E+02  0.17630887134E+02  0.16643425649E+03  0.16922190868E+03  0.00000000000E+00 0. -1.
         -5    1    3    3    0  503  0.77397373174E+02 -0.26609761669E+02  0.17276703515E+03  0.19123015250E+03  0.47000000000E+01 0.  1.
         11    1    4    4    0    0  0.35033465177E+01  0.89089880707E+01 -0.10109290116E+02  0.13922688387E+02  0.00000000000E+00 0. -1.
        -12    1    4    4    0    0 -0.25140394775E+02  0.38072523648E+02  0.13843262142E+03  0.14575715138E+03  0.00000000000E+00 0.  1.
</event>
<event>
12    1  0.1615162E-001  0.2708988E+03  0.7818608E-02  0.1100850E+00
         21   -1    0    0  503  502  0.00000000000E+00  0.00000000000E+00  0.33571897960E+03  0.33571897960E+03  0.00000000000E+00 0.  1.
         21   -1    0    0  501  503 -0.00000000000E+00 -0.00000000000E+00 -0.26084017745E+03  0.26084017745E+03  0.00000000000E+00 0. -1.
          6    2    1    2  501    0 -0.83260595825E+02 -0.19130955513E+03 -0.83307247977E+02  0.28285709276E+03  0.17186146939E+03 0.  0.
         24    2    3    3    0    0 -0.11703766435E+03 -0.19026477272E+03 -0.64258345279E+02  0.24378110752E+03  0.73495542928E+02 0.  0.
         -6    2    1    2    0  502  0.83260595825E+02  0.19130955513E+03  0.15818605013E+03  0.31370206430E+03  0.17278450737E+03 0.  0.
        -24    2    5    5    0    0  0.57885393179E+02  0.14852828752E+03  0.18483787744E+03  0.25707567763E+03  0.80693817354E+02 0.  0.
          5    1    3    3  501    0  0.33777068527E+02 -0.10447824036E+01 -0.19048902698E+02  0.39075985241E+02  0.47000000000E+01 0. -1.
        -13    1    4    4    0    0 -0.78503856809E+02 -0.66335739969E+02 -0.10523767996E+02  0.10331522455E+03  0.00000000000E+00 0.  1.
         14    1    4    4    0    0 -0.38533807543E+02 -0.12392903275E+03 -0.53734577283E+02  0.14046588297E+03  0.00000000000E+00 0. -1.
         -5    1    5    5    0  502  0.25375202646E+02  0.42781267608E+02 -0.26651827309E+02  0.56626386662E+02  0.47000000000E+01 0.  1.
         11    1    6    6    0    0 -0.21252973975E+01  0.66254962664E+02  0.11775663251E+03  0.13513275498E+03  0.00000000000E+00 0. -1.
        -12    1    6    6    0    0  0.60010690576E+02  0.82273324854E+02  0.67081244925E+02  0.12194292266E+03  0.00000000000E+00 0.  1.
</event>
<event>
12    1  0.1615162E-001  0.1945574E+03  0.7818608E-02  0.1155598E+00
         21   -1    0    0  501  502  0.00000000000E+00  0.00000000000E+00  0.66676807206E+03  0.66676807206E+03  0.00000000000E+00 0.  1.
         21   -1    0    0  502  503 -0.00000000000E+00 -0.00000000000E+00 -0.12453371684E+03  0.12453371684E+03  0.00000000000E+00 0. -1.
         -6    2    1    2    0  503 -0.73608782889E+02 -0.30084556504E+02 -0.22363997178E+02  0.19583856688E+03  0.17756481197E+03 0.  0.
        -24    2    3    3    0    0 -0.42445987117E+02 -0.88733287756E+02 -0.51952789596E+01  0.12708066986E+03  0.80294754186E+02 0.  0.
          6    2    1    2  501    0  0.73608782889E+02  0.30084556504E+02  0.56459835240E+03  0.59546322203E+03  0.17170269594E+03 0.  0.
         24    2    5    5    0    0  0.10169173797E+03  0.23440932045E+02  0.28029848649E+03  0.30966382757E+03  0.80210708221E+02 0.  0.
          5    1    5    5  501    0 -0.28082955081E+02  0.66436244592E+01  0.28429986591E+03  0.28579939445E+03  0.47000000000E+01 0. -1.
        -13    1    6    6    0    0  0.62995222991E+02  0.50327250750E+02  0.13872968218E+03  0.16045920043E+03  0.00000000000E+00 0.  1.
         14    1    6    6    0    0  0.38696514980E+02 -0.26886318705E+02  0.14156880431E+03  0.14920462714E+03  0.00000000000E+00 0. -1.
         -5    1    3    3    0  503 -0.31162795772E+02  0.58648731252E+02 -0.17168718218E+02  0.68757897023E+02  0.47000000000E+01 0.  1.
         13    1    4    4    0    0 -0.52686732595E+02 -0.53360065861E+02 -0.32002307404E+02  0.81531197093E+02  0.00000000000E+00 0. -1.
        -14    1    4    4    0    0  0.10240745477E+02 -0.35373221895E+02  0.26807028445E+02  0.45549472766E+02  0.00000000000E+00 0.  1.
</event>
<event>
12    1  0.1615162E-001  0.2100095E+03  0.7818608E-02  0.1141843E+00
         21   -1    0    0  503  502  0.00000000000E+00  0.00000000000E+00  0.16051701444E+04  0.16051701444E+04  0.00000000000E+00 0. -1.
         21   -1    0    0  501  503 -0.00000000000E+00 -0.00000000000E+00 -0.35256272968E+02  0.35256272968E+02  0.00000000000E+00 0.  1.
          6    2    1    2  501    0 -0.66215644307E+02 -0.10078751871E+03  0.39713324860E+03  0.44924246963E+03  0.17193412662E+03 0.  0.
         24    2    3    3    0    0 -0.85268500215E+02 -0.11624996198E+02  0.19874740296E+03  0.23085748734E+03  0.79929916884E+02 0.  0.
         -6    2    1    2    0  502  0.66215644307E+02  0.10078751871E+03  0.11727806228E+04  0.11911839478E+04  0.17018276230E+03 0.  0.
        -24    2    5    5    0    0  0.28674997809E+02  0.66308053385E+02  0.33595343052E+03  0.35279264682E+03  0.79868208490E+02 0.  0.
          5    1    3    3  501    0  0.19052855908E+02 -0.89162522509E+02  0.19838584565E+03  0.21838498229E+03  0.47000000000E+01 0. -1.
        -13    1    4    4    0    0 -0.75395009142E+02 -0.20891660134E+02  0.82028802641E+02  0.11335604673E+03  0.00000000000E+00 0.  1.
         14    1    4    4    0    0 -0.98734910729E+01  0.92666639358E+01  0.11671860032E+03  0.11750144061E+03  0.00000000000E+00 0. -1.
         -5    1    5    5    0  502  0.37540646498E+02  0.34479465322E+02  0.83682719232E+03  0.83839130093E+03  0.47000000000E+01 0.  1.
         11    1    6    6    0    0 -0.27903736087E+02  0.25218312801E+02  0.10854453448E+03  0.11487601034E+03  0.00000000000E+00 0. -1.
        -12    1    6    6    0    0  0.56578733897E+02  0.41089740585E+02  0.22740889604E+03  0.23791663647E+03  0.00000000000E+00 0.  1.
</event>
<event>
12    1  0.1615162E-001  0.1840578E+03  0.7818608E-02  0.1165157E+00
         21   -1    0    0  501  502  0.00000000000E+00  0.00000000000E+00  0.24306455944E+03  0.24306455944E+03  0.00000000000E+00 0. -1.
         21   -1    0    0  502  503 -0.00000000000E+00 -0.00000000000E+00 -0.24653157227E+03  0.24653157227E+03  0.00000000000E+00 0. -1.
         -6    2    1    2    0  503 -0.49081053609E+02 -0.67499484080E+01 -0.16600974150E+03  0.24786385631E+03  0.17726461961E+03 0.  0.
        -24    2    3    3    0    0 -0.76414288205E+02  0.18286454433E+02 -0.17629741525E+03  0.20911010279E+03  0.80453207583E+02 0.  0.
          6    2    1    2  501    0  0.49081053609E+02  0.67499484080E+01  0.16254272868E+03  0.24173227540E+03  0.17192976094E+03 0.  0.
         24    2    5    5    0    0 -0.37254298614E+02  0.20890806160E+02  0.96301664949E+02  0.13189728359E+03  0.79363557128E+02 0.  0.
          5    1    5    5  501    0  0.86335352223E+02 -0.14140857752E+02  0.66241063729E+02  0.10983499181E+03  0.47000000000E+01 0. -1.
        -11    1    6    6    0    0 -0.60025656759E+02  0.33624527166E+01  0.54335706944E+02  0.81035514478E+02  0.00000000000E+00 0.  1.
         12    1    6    6    0    0  0.22771358145E+02  0.17528353443E+02  0.41965958005E+02  0.50861769115E+02  0.00000000000E+00 0. -1.
         -5    1    3    3    0  503  0.27333234596E+02 -0.25036402841E+02  0.10287673743E+02  0.38753753518E+02  0.47000000000E+01 0.  1.
         13    1    4    4    0    0 -0.12417664731E+02  0.30737956381E+02 -0.17580987369E+02  0.37524811481E+02  0.00000000000E+00 0. -1.
        -14    1    4    4    0    0 -0.63996623474E+02 -0.12451501948E+02 -0.15871642788E+03  0.17158529131E+03  0.00000000000E+00 0.  1.
</event>
<event>
12    1  0.1615162E-001  0.1723060E+03  0.7818608E-02  0.1175672E+00
         21   -1    0    0  503  502  0.00000000000E+00  0.00000000000E+00  0.45588714176E+02  0.45588714176E+02  0.00000000000E+00 0.  1.
         21   -1    0    0  501  503 -0.00000000000E+00 -0.00000000000E+00 -0.67753066333E+03  0.67753066333E+03  0.00000000000E+00 0.  1.
          6    2    1    2  501    0 -0.27403915138E+01 -0.70874504994E+01 -0.39191625575E+03  0.42812114434E+03  0.17213837749E+03 0.  0.
         24    2    3    3    0    0  0.58440836520E+02  0.12121842661E+02 -0.30860550052E+03  0.32288373870E+03  0.73853119936E+02 0.  0.
         -6    2    1    2    0  502  0.27403915138E+01  0.70874504994E+01 -0.24002569340E+03  0.29499823317E+03  0.17132974750E+03 0.  0.
        -24    2    5    5    0    0  0.18388357735E+02  0.68005684947E+02 -0.12017786480E+03  0.15956750491E+03  0.77821363077E+02 0.  0.
          5    1    3    3  501    0 -0.61181228033E+02 -0.19209293160E+02 -0.83310755237E+02  0.10523740564E+03  0.47000000000E+01 0. -1.
        -13    1    4    4    0    0  0.17883541230E+02  0.39553858470E+02 -0.18285952360E+03  0.18794130503E+03  0.00000000000E+00 0.  1.
         14    1    4    4    0    0  0.40557295290E+02 -0.27432015809E+02 -0.12574597692E+03  0.13494243367E+03  0.00000000000E+00 0. -1.
         -5    1    5    5    0  502 -0.15647966221E+02 -0.60918234448E+02 -0.11984782860E+03  0.13543072826E+03  0.47000000000E+01 0.  1.
         11    1    6    6    0    0  0.40517175774E+02  0.65548772896E+02 -0.67749518296E+02  0.10260740904E+03  0.00000000000E+00 0. -1.
        -12    1    6    6    0    0 -0.22128818039E+02  0.24569120509E+01 -0.52428346500E+02  0.56960095869E+02  0.00000000000E+00 0.  1.
</event>
<event>
12    1  0.1615162E-001  0.1845021E+03  0.7818608E-02  0.1163526E+00
         21   -1    0    0  503  502  0.00000000000E+00  0.00000000000E+00  0.15728795782E+04  0.15728795782E+04  0.00000000000E+00 0. -1.
         21   -1    0    0  501  503 -0.00000000000E+00 -0.00000000000E+00 -0.25134692216E+02  0.25134692216E+02  0.00000000000E+00 0. -1.
          6    2    1    2  501    0 -0.36627227512E+02  0.55781018528E+02  0.47590221144E+03  0.51041545641E+03  0.17201147479E+03 0.  0.
         24    2    3    3    0    0  0.39568506628E+02  0.81261323433E+01  0.28710912850E+03  0.30127030049E+03  0.81856224826E+02 0.  0.
         -6    2    1    2    0  502  0.36627227512E+02 -0.55781018528E+02  0.10718426745E+04  0.10875988140E+04  0.17196332587E+03 0.  0.
        -24    2    5    5    0    0  0.60254246767E+02  0.16238504311E+02  0.60793593330E+03  0.61751732929E+03  0.88584929290E+02 0.  0.
          5    1    3    3  501    0 -0.76195734141E+02  0.47654886185E+02  0.18879308294E+03  0.20914515592E+03  0.47000000000E+01 0. -1.
        -13    1    4    4    0    0  0.36831457442E+02 -0.28857225037E+02  0.98479669762E+02  0.10903000069E+03  0.00000000000E+00 0.  1.
         14    1    4    4    0    0  0.27370491869E+01  0.36983357381E+02  0.18862945874E+03  0.19224029980E+03  0.00000000000E+00 0. -1.
         -5    1    5    5    0  502 -0.23627019255E+02 -0.72019522839E+02  0.46390674124E+03  0.47008148472E+03  0.47000000000E+01 0.  1.
         11    1    6    6    0    0  0.75271258214E+02  0.32914445700E+02  0.53297521456E+03  0.53926960084E+03  0.00000000000E+00 0. -1.
        -12    1    6    6    0    0 -0.15017011447E+02 -0.16675941389E+02  0.74960718740E+02  0.78247728453E+02  0.00000000000E+00 0.  1.
</event>
<event>
12    1  0.1615162E-001  0.2211459E+03  0.7818608E-02  0.1133175E+00
         21   -1    0    0  503  502  0.00000000000E+00  0.00000000000E+00  0.11000544368E+03  0.11000544368E+03  0.00000000000E+00 0. -1.
         21   -1    0    0  501  503 -0.00000000000E+00 -0.00000000000E+00 -0.45052422466E+03  0.45052422466E+03  0.00000000000E+00 0. -1.
          6    2    1    2  501    0  0.12158637892E+03  0.66609719441E+02 -0.13379457031E+03  0.25780801033E+03  0.17130055716E+03 0.  0.
         24    2    3    3    0    0  0.35587329926E+02  0.83107009547E+02 -0.11102468723E+03  0.16720693647E+03  0.86362291204E+02 0.  0.
         -6    2    1    2    0  502 -0.12158637892E+03 -0.66609719441E+02 -0.20672421066E+03  0.30272165800E+03  0.17229451729E+03 0.  0.
        -24    2    5    5    0    0 -0.56501070002E+02 -0.98825773992E+02 -0.92645071694E+02  0.16740679719E+03  0.80517215060E+02 0.  0.
          5    1    3    3  501    0  0.85999048999E+02 -0.16497290107E+02 -0.22769883085E+02  0.90601073864E+02  0.47000000000E+01 0. -1.
        -11    1    4    4    0    0 -0.24831044917E+02  0.19977385696E+02 -0.94999839564E+01  0.33255472122E+02  0.00000000000E+00 0.  1.
         12    1    4    4    0    0  0.60418374842E+02  0.63129623851E+02 -0.10152470327E+03  0.13395146435E+03  0.00000000000E+00 0. -1.
         -5    1    5    5    0  502 -0.65085308922E+02  0.32216054551E+02 -0.11407913897E+03  0.13531486081E+03  0.47000000000E+01 0.  1.
         11    1    6    6    0    0 -0.17413864717E+01 -0.42055109318E+02  0.44331685764E+01  0.42323960474E+02  0.00000000000E+00 0. -1.
        -12    1    6    6    0    0 -0.54759683531E+02 -0.56770664674E+02 -0.97078240271E+02  0.12508283672E+03  0.00000000000E+00 0.  1.
</event>
<event>
12    1  0.1615162E-001  0.1829503E+03  0.7818608E-02  0.1165033E+00
         21   -1    0    0  503  502  0.00000000000E+00  0.00000000000E+00  0.21246233222E+03  0.21246233222E+03  0.00000000000E+00 0.  1.
         21   -1    0    0  501  503 -0.00000000000E+00 -0.00000000000E+00 -0.20540013906E+03  0.20540013906E+03  0.00000000000E+00 0.  1.
          6    2    1    2  501    0  0.39847065907E+02  0.48331041608E+02 -0.97535563539E+02  0.20712209322E+03  0.17164701308E+03 0.  0.
         24    2    3    3    0    0  0.69100569904E+02  0.68197386739E+02 -0.28240982537E+02  0.12918450202E+03  0.80407152347E+02 0.  0.
         -6    2    1    2    0  502 -0.39847065907E+02 -0.48331041608E+02  0.10459775669E+03  0.21074037807E+03  0.17189280962E+03 0.  0.
        -24    2    5    5    0    0 -0.40562925569E+02  0.37284661617E+02  0.60491459185E+02  0.11431415459E+03  0.79831149203E+02 0.  0.
          5    1    3    3  501    0 -0.29253503997E+02 -0.19866345131E+02 -0.69294581001E+02  0.77937591194E+02  0.47000000000E+01 0. -1.
        -11    1    4    4    0    0  0.34066577645E+02 -0.12739253070E+02 -0.17427620598E+02  0.40330413349E+02  0.00000000000E+00 0.  1.
         12    1    4    4    0    0  0.35033992259E+02  0.80936639809E+02 -0.10813361940E+02  0.88854088671E+02  0.00000000000E+00 0. -1.
         -5    1    5    5    0  502  0.71585966261E+00 -0.85615703225E+02  0.44106297508E+02  0.96426223475E+02  0.47000000000E+01 0.  1.
         11    1    6    6    0    0  0.10025868108E+02 -0.18457435855E+02  0.76975850427E+01  0.22370690315E+02  0.00000000000E+00 0. -1.
        -12    1    6    6    0    0 -0.50588793677E+02  0.55742097472E+02  0.52793874143E+02  0.91943464277E+02  0.00000000000E+00 0.  1.
</event>
<event>
12    1  0.1615162E-001  0.2205957E+03  0.7818608E-02  0.1133440E+00
         21   -1    0    0  501  502  0.00000000000E+00  0.00000000000E+00  0.46823836427E+03  0.46823836427E+03  0.00000000000E+00 0. -1.
         21   -1    0    0  502  503 -0.00000000000E+00 -0.00000000000E+00 -0.13393232550E+03  0.13393232550E+03  0.00000000000E+00 0.  1.
         -6    2    1    2    0  503  0.10081222336E+03 -0.95255562854E+02  0.24639978049E+02  0.22196757368E+03  0.17153935004E+03 0.  0.
        -24    2    3    3    0    0  0.62420809453E+02 -0.43636308363E+01  0.50281213975E+02  0.11991461220E+03  0.89083752796E+02 0.  0.
          6    2    1    2  501    0 -0.10081222336E+03  0.95255562854E+02  0.30966606073E+03  0.38020311609E+03  0.17153604193E+03 0.  0.
         24    2    5    5    0    0 -0.11122353294E+02 -0.10798740504E+02  0.12758649629E+03  0.15114669107E+03  0.79540484333E+02 0.  0.
          5    1    5    5  501    0 -0.89689870071E+02  0.10605430336E+03  0.18207956444E+03  0.22905642502E+03  0.47000000000E+01 0. -1.
        -11    1    6    6    0    0  0.10402327350E+02 -0.10925060621E+02 -0.57052653425E+01  0.16128094013E+02  0.00000000000E+00 0.  1.
         12    1    6    6    0    0 -0.21524680644E+02  0.12632011620E+00  0.13329176163E+03  0.13501859706E+03  0.00000000000E+00 0. -1.
         -5    1    3    3    0  503  0.38391413912E+02 -0.90891932018E+02 -0.25641235926E+02  0.10205296149E+03  0.47000000000E+01 0.  1.
         11    1    4    4    0    0 -0.13674471310E+02 -0.11657114817E+00  0.40900162461E+02  0.43125723690E+02  0.00000000000E+00 0. -1.
        -12    1    4    4    0    0  0.76095280763E+02 -0.42470596881E+01  0.93810515145E+01  0.76788888506E+02  0.00000000000E+00 0.  1.
</event>
<event>
12    1  0.1615162E-001  0.1845928E+03  0.7818608E-02  0.1163516E+00
         21   -1    0    0  503  502  0.00000000000E+00  0.00000000000E+00  0.20341775958E+02  0.20341775958E+02  0.00000000000E+00 0.  1.
         21   -1    0    0  501  503 -0.00000000000E+00 -0.00000000000E+00 -0.16830636065E+04  0.16830636065E+04  0.00000000000E+00 0.  1.
          6    2    1    2  501    0 -0.17980197064E+02 -0.64185643381E+02 -0.90184922411E+03  0.92054685434E+03  0.17213774634E+03 0.  0.
         24    2    3    3    0    0 -0.21383275755E+02 -0.10838181286E+03 -0.74199432366E+03  0.75459336225E+03  0.81557980374E+02 0.  0.
         -6    2    1    2    0  502  0.17980197064E+02  0.64185643381E+02 -0.76087260641E+03  0.78285852809E+03  0.17174768562E+03 0.  0.
        -24    2    5    5    0    0 -0.55523202279E+02  0.32093761691E+02 -0.39319043448E+03  0.40650110735E+03  0.80818296109E+02 0.  0.
          5    1    3    3  501    0  0.34030786910E+01  0.44196169482E+02 -0.15985490044E+03  0.16595349209E+03  0.47000000000E+01 0. -1.
        -13    1    4    4    0    0 -0.11339839147E+02 -0.10426413048E+03 -0.73308846597E+03  0.74055269886E+03  0.00000000000E+00 0.  1.
         14    1    4    4    0    0 -0.10043436607E+02 -0.41176823831E+01 -0.89058576947E+01  0.14040663388E+02  0.00000000000E+00 0. -1.
         -5    1    5    5    0  502  0.73503399343E+02  0.32091881690E+02 -0.36768217193E+03  0.37635742073E+03  0.47000000000E+01 0.  1.
         11    1    6    6    0    0  0.41563489316E+01 -0.19407584809E+02 -0.13778915884E+03  0.13921128503E+03  0.00000000000E+00 0. -1.
        -12    1    6    6    0    0 -0.59679551210E+02  0.51501346500E+02 -0.25540127563E+03  0.26728982232E+03  0.00000000000E+00 0.  1.
</event>
<event>
12    1  0.1615162E-001  0.1857175E+03  0.7818608E-02  0.1163242E+00
         21   -1    0    0  503  502  0.00000000000E+00  0.00000000000E+00  0.18493550718E+03  0.18493550718E+03  0.00000000000E+00 0. -1.
         21   -1    0    0  501  503 -0.00000000000E+00 -0.00000000000E+00 -0.19313047244E+03  0.19313047244E+03  0.00000000000E+00 0. -1.
          6    2    1    2  501    0 -0.68079370774E+02  0.18291540064E+02 -0.47686362784E+02  0.18819617180E+03  0.16785240159E+03 0.  0.
         24    2    3    3    0    0 -0.53078664886E+02 -0.27761051590E+02  0.22577882795E+02  0.10272678206E+03  0.80343078790E+02 0.  0.
         -6    2    1    2    0  502  0.68079370774E+02 -0.18291540064E+02  0.39491397520E+02  0.18986980782E+03  0.17181848643E+03 0.  0.
        -24    2    5    5    0    0  0.56622524792E+02 -0.76864961118E+02  0.18153259338E+02  0.12631265940E+03  0.80690857841E+02 0.  0.
          5    1    3    3  501    0 -0.15000705889E+02  0.46052591654E+02 -0.70264245578E+02  0.85469389736E+02  0.47000000000E+01 0. -1.
        -13    1    4    4    0    0 -0.97059461923E+00 -0.45024084187E+02  0.63147279159E+01  0.45475114067E+02  0.00000000000E+00 0.  1.
         14    1    4    4    0    0 -0.52108070266E+02  0.17263032596E+02  0.16263154879E+02  0.57251667993E+02  0.00000000000E+00 0. -1.
         -5    1    5    5    0  502  0.11456845982E+02  0.58573421054E+02  0.21338138182E+02  0.63557148417E+02  0.47000000000E+01 0.  1.
         13    1    6    6    0    0  0.53660396683E+02 -0.23164859051E+02  0.37173116967E+02  0.69266799349E+02  0.00000000000E+00 0. -1.
        -14    1    6    6    0    0  0.29621281097E+01 -0.53700102067E+02 -0.19019857629E+02  0.57045860053E+02  0.00000000000E+00 0.  1.
</event>
<event>
12    1  0.1615162E-001  0.2175667E+03  0.7818608E-02  0.1136102E+00
         21   -1    0    0  501  502  0.00000000000E+00  0.00000000000E+00  0.39801568709E+02  0.39801568709E+02  0.00000000000E+00 0.  1.
         21   -1    0    0  502  503 -0.00000000000E+00 -0.00000000000E+00 -0.12516492693E+04  0.12516492693E+04  0.00000000000E+00 0.  1.
         -6    2    1    2    0  503  0.69630534540E+02  0.11183591413E+03 -0.76522258500E+03  0.79555068002E+03  0.17314617194E+03 0.  0.
        -24    2    3    3    0    0  0.10849785898E+03  0.11627431544E+03 -0.64249311501E+03  0.66665156785E+03  0.79595277788E+02 0.  0.
          6    2    1    2  501    0 -0.69630534540E+02 -0.11183591413E+03 -0.44662511563E+03  0.49590015803E+03  0.17054996274E+03 0.  0.
         24    2    5    5    0    0  0.10497405409E+02 -0.54690629771E+02 -0.11879793458E+03  0.15358623643E+03  0.79840605300E+02 0.  0.
          5    1    5    5  501    0 -0.80127939949E+02 -0.57145284357E+02 -0.32782718105E+03  0.34231392160E+03  0.47000000000E+01 0. -1.
        -13    1    6    6    0    0  0.52587832315E+01 -0.70295421587E+02 -0.60132921512E+02  0.92655649298E+02  0.00000000000E+00 0.  1.
         14    1    6    6    0    0  0.52386221772E+01  0.15604791816E+02 -0.58665013064E+02  0.60930587128E+02  0.00000000000E+00 0. -1.
         -5    1    3    3    0  503 -0.38867324436E+02 -0.44384013106E+01 -0.12272946999E+03  0.12889911218E+03  0.47000000000E+01 0.  1.
         11    1    4    4    0    0  0.46639347701E+02  0.10133822477E+03 -0.35133434448E+03  0.36861970398E+03  0.00000000000E+00 0. -1.
        -12    1    4    4    0    0  0.61858511275E+02  0.14936090664E+02 -0.29115877053E+03  0.29803186386E+03  0.00000000000E+00 0.  1.
</event>
<event>
12    1  0.1615162E-001  0.3752136E+03  0.7818608E-02  0.1052744E+00
         21   -1    0    0  501  502  0.00000000000E+00  0.00000000000E+00  0.47404684023E+03  0.47404684023E+03  0.00000000000E+00 0.  1.
         21   -1    0    0  502  503 -0.00000000000E+00 -0.00000000000E+00 -0.30045394816E+03  0.30045394816E+03  0.00000000000E+00 0. -1.
         -6    2    1    2    0  503 -0.32485238903E+03 -0.76874056649E+02  0.12971484242E+03  0.39673032842E+03  0.17067606132E+03 0.  0.
        -24    2    3    3    0    0 -0.21396520831E+03 -0.86196485060E+02  0.28731895513E+02  0.24638898320E+03  0.81676586721E+02 0.  0.
          6    2    1    2  501    0  0.32485238903E+03  0.76874056649E+02  0.43878049653E+02  0.37777045997E+03  0.17130832421E+03 0.  0.
         24    2    5    5    0    0  0.10767483245E+03  0.81907820982E+02  0.17337676120E+02  0.15886885813E+03  0.81461392004E+02 0.  0.
          5    1    5    5  501    0  0.21717755657E+03 -0.50337643330E+01  0.26540373533E+02  0.21890160184E+03  0.47000000000E+01 0. -1.
        -11    1    6    6    0    0 -0.67983683774E+01 -0.90329864829E+01 -0.17084676133E+01  0.11433788479E+02  0.00000000000E+00 0.  1.
         12    1    6    6    0    0  0.11447320083E+03  0.90940807465E+02  0.19046143733E+02  0.14743506965E+03  0.00000000000E+00 0. -1.
         -5    1    3    3    0  503 -0.11088718072E+03  0.93224284110E+01  0.10098294690E+03  0.15034134523E+03  0.47000000000E+01 0.  1.
         13    1    4    4    0    0 -0.47806639693E+02  0.13108281747E+02 -0.52803129274E+01  0.49851615357E+02  0.00000000000E+00 0. -1.
        -14    1    4    4    0    0 -0.16615856862E+03 -0.99304766807E+02  0.34012208440E+02  0.19653736784E+03  0.00000000000E+00 0.  1.
</event>
<event>
12    1  0.1615162E-001  0.2170321E+03  0.7818608E-02  0.1136206E+00
         21   -1    0    0  503  502  0.00000000000E+00  0.00000000000E+00  0.23934510068E+03  0.23934510068E+03  0.00000000000E+00 0. -1.
         21   -1    0    0  501  503 -0.00000000000E+00 -0.00000000000E+00 -0.24959769802E+03  0.24959769802E+03  0.00000000000E+00 0. -1.
          6    2    1    2  501    0 -0.74331074758E+01  0.13164918203E+03  0.10777921129E+03  0.24189126574E+03  0.17177970730E+03 0.  0.
         24    2    3    3    0    0 -0.52934330332E+02  0.91739037801E+02  0.12148743788E+03  0.17965633689E+03  0.79366916510E+02 0.  0.
         -6    2    1    2    0  502  0.74331074758E+01 -0.13164918203E+03 -0.11803180864E+03  0.24705153295E+03  0.17238385618E+03 0.  0.
        -24    2    5    5    0    0 -0.18671037789E+02 -0.72172563553E+02  0.42234564560E+01  0.10853317898E+03  0.78766279414E+02 0.  0.
          5    1    3    3  501    0  0.45501222856E+02  0.39910144226E+02 -0.13708226589E+02  0.62234928856E+02  0.47000000000E+01 0. -1.
        -13    1    4    4    0    0 -0.28578096050E+02  0.61341106811E+02  0.19411101581E+02  0.70400495902E+02  0.00000000000E+00 0.  1.
         14    1    4    4    0    0 -0.24356234283E+02  0.30397930989E+02  0.10207633630E+03  0.10925584098E+03  0.00000000000E+00 0. -1.
         -5    1    5    5    0  502  0.26104145264E+02 -0.59476618474E+02 -0.12225526509E+03  0.13851835398E+03  0.47000000000E+01 0.  1.
         11    1    6    6    0    0 -0.27457455421E+02 -0.86725282229E+01 -0.24951692600E+02  0.38101332885E+02  0.00000000000E+00 0. -1.
        -12    1    6    6    0    0  0.87864176325E+01 -0.63500035330E+02  0.29175149056E+02  0.70431846093E+02  0.00000000000E+00 0.  1.
</event>
<event>
12    1  0.1615162E-001  0.1898365E+03  0.7818608E-02  0.1161901E+00
         21   -1    0    0  503  502  0.00000000000E+00  0.00000000000E+00  0.11405563140E+03  0.11405563140E+03  0.00000000000E+00 0.  1.
         21   -1    0    0  501  503 -0.00000000000E+00 -0.00000000000E+00 -0.32466819284E+03  0.32466819284E+03  0.00000000000E+00 0.  1.
          6    2    1    2  501    0 -0.21405942301E+02 -0.30191944649E+02 -0.17002538320E+03  0.24459704990E+03  0.17189915067E+03 0.  0.
         24    2    3    3    0    0  0.27357699162E+02 -0.69576140149E+02 -0.13122059664E+03  0.17072615547E+03  0.79619672180E+02 0.  0.
         -6    2    1    2    0  502  0.21405942301E+02  0.30191944649E+02 -0.40587178242E+02  0.19412677433E+03  0.18619376356E+03 0.  0.
        -24    2    5    5    0    0 -0.19468423458E+02 -0.47838086093E+02 -0.41558222420E+02  0.10590867868E+03  0.82595764880E+02 0.  0.
          5    1    3    3  501    0 -0.48763641463E+02  0.39384195501E+02 -0.38804786557E+02  0.73870894429E+02  0.47000000000E+01 0. -1.
        -13    1    4    4    0    0  0.39902304979E+02 -0.33827595091E+02 -0.25052959134E+02  0.58001300792E+02  0.00000000000E+00 0.  1.
         14    1    4    4    0    0 -0.12544605816E+02 -0.35748545058E+02 -0.10616763751E+03  0.11272485468E+03  0.00000000000E+00 0. -1.
         -5    1    5    5    0  502  0.40874365760E+02  0.78030030742E+02  0.97104417818E+00  0.88218095653E+02  0.47000000000E+01 0.  1.
         11    1    6    6    0    0  0.31851412456E+02 -0.13207048091E+02 -0.22329905163E+02  0.41079961773E+02  0.00000000000E+00 0. -1.
        -12    1    6    6    0    0 -0.51319835914E+02 -0.34631038002E+02 -0.19228317258E+02  0.64828716908E+02  0.00000000000E+00 0.  1.
</event>
<event>
12    1  0.1615162E-001  0.1929643E+03  0.7818608E-02  0.1155867E+00
         21   -1    0    0  501  502  0.00000000000E+00  0.00000000000E+00  0.23607299531E+04  0.23607299531E+04  0.00000000000E+00 0. -1.
         21   -1    0    0  502  503 -0.00000000000E+00 -0.00000000000E+00 -0.19451038068E+02  0.19451038068E+02  0.00000000000E+00 0. -1.
         -6    2    1    2    0  503 -0.85786283189E+02 -0.22632530031E+02  0.65233974848E+03  0.68028110850E+03  0.17135845859E+03 0.  0.
        -24    2    3    3    0    0  0.94908464039E+01 -0.26710153254E+02  0.43124400227E+03  0.43944967901E+03  0.79631164989E+02 0.  0.
          6    2    1    2  501    0  0.85786283189E+02  0.22632530031E+02  0.16889391666E+04  0.16998998827E+04  0.17109232888E+03 0.  0.
         24    2    5    5    0    0 -0.17077895844E+02  0.47528719101E+01  0.55445562857E+03  0.56061251354E+03  0.80938878008E+02 0.  0.
          5    1    5    5  501    0  0.10286417903E+03  0.17879658121E+02  0.11344835380E+04  0.11392873692E+04  0.47000000000E+01 0. -1.
        -13    1    6    6    0    0 -0.21681504535E+01 -0.20876625664E+02  0.48016242113E+03  0.48062093696E+03  0.00000000000E+00 0.  1.
         14    1    6    6    0    0 -0.14909745391E+02  0.25629497574E+02  0.74293207438E+02  0.79991576587E+02  0.00000000000E+00 0. -1.
         -5    1    3    3    0  503 -0.95277129593E+02  0.40776232228E+01  0.22109574621E+03  0.24083142949E+03  0.47000000000E+01 0.  1.
         13    1    4    4    0    0 -0.18136743942E+01  0.26864188536E+02  0.20041275640E+03  0.20221336991E+03  0.00000000000E+00 0. -1.
        -14    1    4    4    0    0  0.11304520798E+02 -0.53574341790E+02  0.23083124587E+03  0.23723630910E+03  0.00000000000E+00 0.  1.
</event>
<event>
12    1  0.1615162E-001  0.2177623E+03  0.7818608E-02  0.1135763E+00
         21   -1    0    0  501  502  0.00000000000E+00  0.00000000000E+00  0.16991448047E+03  0.16991448047E+03  0.00000000000E+00 0.  1.
         21   -1    0    0  502  503 -0.00000000000E+00 -0.00000000000E+00 -0.37748770986E+03  0.37748770986E+03  0.00000000000E+00 0. -1.
         -6    2    1    2    0  503 -0.11247816567E+03 -0.69375169676E+02  0.36730380084E+02  0.22083830814E+03  0.17307855327E+03 0.  0.
        -24    2    3    3    0    0 -0.11400604857E+03 -0.10329960782E+03  0.43568118624E+01  0.17368600333E+03  0.80496322017E+02 0.  0.
          6    2    1    2  501    0  0.11247816567E+03  0.69375169676E+02 -0.24430360947E+03  0.32656388218E+03  0.17174243397E+03 0.  0.
         24    2    5    5    0    0  0.17135580038E+02  0.88553446469E+02 -0.13064148661E+03  0.17690031578E+03  0.78046029457E+02 0.  0.
          5    1    5    5  501    0  0.95342585632E+02 -0.19178276794E+02 -0.11366212286E+03  0.14966356640E+03  0.47000000000E+01 0. -1.
        -13    1    6    6    0    0  0.13918454110E+02 -0.10740866002E+02 -0.34137008824E+02  0.38398241349E+02  0.00000000000E+00 0.  1.
         14    1    6    6    0    0  0.32171259282E+01  0.99294312472E+02 -0.96504477789E+02  0.13850207443E+03  0.00000000000E+00 0. -1.
         -5    1    3    3    0  503  0.15278829015E+01  0.33924438142E+02  0.32373568222E+02  0.47152304809E+02  0.47000000000E+01 0.  1.
         11    1    4    4    0    0 -0.58664884889E+02 -0.85101286363E+02  0.33355359588E+02  0.10861113052E+03  0.00000000000E+00 0. -1.
        -12    1    4    4    0    0 -0.55341163682E+02 -0.18198321455E+02 -0.28998547725E+02  0.65074872813E+02  0.00000000000E+00 0.  1.
</event>
<event>
12    1  0.1615162E-001  0.2210798E+03  0.7818608E-02  0.1133228E+00
         21   -1    0    0  501  502  0.00000000000E+00  0.00000000000E+00  0.36985089589E+02  0.36985089589E+02  0.00000000000E+00 0.  1.
         21   -1    0    0  502  503 -0.00000000000E+00 -0.00000000000E+00 -0.16125515142E+04  0.16125515142E+04  0.00000000000E+00 0.  1.
         -6    2    1    2    0  503  0.13853636020E+03  0.62876899043E+00 -0.43340420501E+03  0.48617474067E+03  0.17127158285E+03 0.  0.
        -24    2    3    3    0    0  0.12433145178E+03 -0.16676232238E+02 -0.19054362959E+03  0.24223911067E+03  0.81464749024E+02 0.  0.
          6    2    1    2  501    0 -0.13853636020E+03 -0.62876899043E+00 -0.11421622196E+04  0.11633618631E+04  0.17228920524E+03 0.  0.
         24    2    5    5    0    0 -0.46440101628E+02 -0.11333662131E+02 -0.25848220466E+03  0.27481880036E+03  0.80169744726E+02 0.  0.
          5    1    5    5  501    0 -0.92096258569E+02  0.10704893141E+02 -0.88368001490E+03  0.88854306272E+03  0.47000000000E+01 0. -1.
        -11    1    6    6    0    0  0.46942055350E+01  0.40119676266E+01 -0.17879043941E+03  0.17889704491E+03  0.00000000000E+00 0.  1.
         12    1    6    6    0    0 -0.51134307163E+02 -0.15345629758E+02 -0.79691765243E+02  0.95921755453E+02  0.00000000000E+00 0. -1.
         -5    1    3    3    0  503  0.14204908415E+02  0.17305001229E+02 -0.24286057542E+03  0.24393563000E+03  0.47000000000E+01 0.  1.
         13    1    4    4    0    0  0.23230453067E+02 -0.94601244001E+01 -0.10986447710E+03  0.11269139822E+03  0.00000000000E+00 0. -1.
        -14    1    4    4    0    0  0.10110099872E+03 -0.72161078383E+01 -0.80679152489E+02  0.12954771245E+03  0.00000000000E+00 0.  1.
</event>
<event>
12    1  0.1615162E-001  0.1774884E+03  0.7818608E-02  0.1170913E+00
         21   -1    0    0  503  502  0.00000000000E+00  0.00000000000E+00  0.12274728783E+03  0.12274728783E+03  0.00000000000E+00 0. -1.
         21   -1    0    0  501  503 -0.00000000000E+00 -0.00000000000E+00 -0.31696726006E+03  0.31696726006E+03  0.00000000000E+00 0. -1.
          6    2    1    2  501    0 -0.38328307338E+02 -0.22360898281E+02 -0.19542141969E+03  0.26222212971E+03  0.16912080038E+03 0.  0.
         24    2    3    3    0    0 -0.12822781699E+02  0.83454695058E+00 -0.21699225020E+02  0.85049751960E+02  0.81224896078E+02 0.  0.
         -6    2    1    2    0  502  0.38328307338E+02  0.22360898281E+02  0.12014474604E+01  0.17749241817E+03  0.17185181442E+03 0.  0.
        -24    2    5    5    0    0  0.79049837866E+02 -0.18222814801E+02  0.22832552918E+02  0.11588661050E+03  0.79545164367E+02 0.  0.
          5    1    3    3  501    0 -0.25505525639E+02 -0.23195445232E+02 -0.17372219467E+03  0.17717237775E+03  0.47000000000E+01 0. -1.
        -11    1    4    4    0    0 -0.27776649018E+02  0.15756336348E+02 -0.43976761826E+02  0.54348504547E+02  0.00000000000E+00 0.  1.
         12    1    4    4    0    0  0.14953867319E+02 -0.14921789397E+02  0.22277536806E+02  0.30701247414E+02  0.00000000000E+00 0. -1.
         -5    1    5    5    0  502 -0.40721530528E+02  0.40583713082E+02 -0.21631105458E+02  0.61605807676E+02  0.47000000000E+01 0.  1.
         13    1    6    6    0    0  0.43528546358E+02  0.30263978029E+02  0.53223293301E+01  0.53281984795E+02  0.00000000000E+00 0. -1.
        -14    1    6    6    0    0  0.35521291507E+02 -0.48486792830E+02  0.17510223588E+02  0.62604625703E+02  0.00000000000E+00 0.  1.
</event>
<event>
12    1  0.1615162E-001  0.2655137E+03  0.7818608E-02  0.1104050E+00
         21   -1    0    0  501  502  0.00000000000E+00  0.00000000000E+00  0.12860845799E+03  0.12860845799E+03  0.00000000000E+00 0.  1.
         21   -1    0    0  502  503 -0.00000000000E+00 -0.00000000000E+00 -0.65454400262E+03  0.65454400262E+03  0.00000000000E+00 0.  1.
         -6    2    1    2    0  503 -0.19422174643E+03 -0.52825335576E+02 -0.42314779948E+03  0.49955137816E+03  0.17316153254E+03 0.  0.
        -24    2    3    3    0    0 -0.65504464581E+02 -0.76426240082E+02 -0.15679608010E+03  0.20275099110E+03  0.79944659641E+02 0.  0.
          6    2    1    2  501    0  0.19422174643E+03  0.52825335576E+02 -0.10278774515E+03  0.28360108245E+03  0.17132323412E+03 0.  0.
         24    2    5    5    0    0  0.18847098145E+03  0.75029047969E+02 -0.12682852409E+03  0.25004329358E+03  0.72701480405E+02 0.  0.
          5    1    5    5  501    0  0.57507649767E+01 -0.22203712392E+02  0.24040778938E+02  0.33557788869E+02  0.47000000000E+01 0. -1.
        -11    1    6    6    0    0  0.53459842906E+02  0.55991607111E+02 -0.31006832581E+02  0.83393276330E+02  0.00000000000E+00 0.  1.
         12    1    6    6    0    0  0.13501113855E+03  0.19037440858E+02 -0.95821691507E+02  0.16665001725E+03  0.00000000000E+00 0. -1.
         -5    1    3    3    0  503 -0.12871728185E+03  0.23600904505E+02 -0.26635171938E+03  0.29680038706E+03  0.47000000000E+01 0.  1.
         13    1    4    4    0    0 -0.41661826719E+02 -0.47274520642E+02 -0.28713121394E+02  0.69246165581E+02  0.00000000000E+00 0. -1.
        -14    1    4    4    0    0 -0.23842637861E+02 -0.29151719440E+02 -0.12808295870E+03  0.13350482552E+03  0.00000000000E+00 0.  1.
</event>
<event>
12    1  0.1615162E-001  0.1885190E+03  0.7818608E-02  0.1161410E+00
         21   -1    0    0  501  502  0.00000000000E+00  0.00000000000E+00  0.80480190061E+03  0.80480190061E+03  0.00000000000E+00 0.  1.
         21   -1    0    0  502  503 -0.00000000000E+00 -0.00000000000E+00 -0.42623204493E+02  0.42623204493E+02  0.00000000000E+00 0. -1.
         -6    2    1    2    0  503 -0.29669722518E+02 -0.50424092477E+02  0.39091347312E+03  0.43103914616E+03  0.17192591579E+03 0.  0.
        -24    2    3    3    0    0 -0.25133000002E+02  0.36408569755E+02  0.24002392641E+03  0.25682594807E+03  0.79942671424E+02 0.  0.
          6    2    1    2  501    0  0.29669722518E+02  0.50424092477E+02  0.37126522299E+03  0.41638595894E+03  0.17921082406E+03 0.  0.
         24    2    5    5    0    0 -0.67524543579E+01  0.97740946670E+02  0.22659496363E+03  0.25980679812E+03  0.80965464917E+02 0.  0.
          5    1    5    5  501    0  0.36422176876E+02 -0.47316854193E+02  0.14467025936E+03  0.15657916082E+03  0.47000000000E+01 0. -1.
        -13    1    6    6    0    0 -0.27320186583E+02  0.62724333167E+02  0.19970960749E+03  0.21110343884E+03  0.00000000000E+00 0.  1.
         14    1    6    6    0    0  0.20567732225E+02  0.35016613504E+02  0.26885356141E+02  0.48703359278E+02  0.00000000000E+00 0. -1.
         -5    1    3    3    0  503 -0.45367225166E+01 -0.86832662233E+02  0.15088954672E+03  0.17421319809E+03  0.47000000000E+01 0.  1.
         11    1    4    4    0    0  0.28244299609E+02  0.32534794219E+01  0.69291980942E+02  0.74897958661E+02  0.00000000000E+00 0. -1.
        -12    1    4    4    0    0 -0.53377299610E+02  0.33155090333E+02  0.17073194546E+03  0.18192798941E+03  0.00000000000E+00 0.  1.
</event>
<event>
12    1  0.1615162E-001  0.1878824E+03  0.7818608E-02  0.1160662E+00
         21   -1    0    0  501  502  0.00000000000E+00  0.00000000000E+00  0.36524431027E+03  0.36524431027E+03  0.00000000000E+00 0.  1.
         21   -1    0    0  502  503 -0.00000000000E+00 -0.00000000000E+00 -0.11901079838E+03  0.11901079838E+03  0.00000000000E+00 0.  1.
         -6    2    1    2    0  503 -0.30060575329E+02  0.69167929806E+02  0.16395052365E+02  0.18739567686E+03  0.17076446135E+03 0.  0.
        -24    2    3    3    0    0  0.41567784179E+02  0.39558354434E+01  0.74482892942E+01  0.90002793612E+02  0.79381966018E+02 0.  0.
          6    2    1    2  501    0  0.30060575329E+02 -0.69167929806E+02  0.22983845952E+03  0.29685943179E+03  0.17208127168E+03 0.  0.
         24    2    5    5    0    0  0.62511827142E+02 -0.18137070203E+02  0.20850492512E+03  0.23255980453E+03  0.79831554122E+02 0.  0.
          5    1    5    5  501    0 -0.32451251812E+02 -0.51030859603E+02  0.21333534403E+02  0.64299627263E+02  0.47000000000E+01 0. -1.
        -13    1    6    6    0    0  0.48374599798E+02 -0.20278243426E+02  0.47019126250E+02  0.70442226650E+02  0.00000000000E+00 0.  1.
         14    1    6    6    0    0  0.14137227344E+02  0.21411732225E+01  0.16148579887E+03  0.16211757788E+03  0.00000000000E+00 0. -1.
         -5    1    3    3    0  503 -0.71628359508E+02  0.65212094363E+02  0.89467630709E+01  0.97392883243E+02  0.47000000000E+01 0.  1.
         11    1    4    4    0    0  0.56079960925E+02  0.14982452193E+02  0.26347818649E+02  0.63746713160E+02  0.00000000000E+00 0. -1.
        -12    1    4    4    0    0 -0.14512176746E+02 -0.11026616749E+02 -0.18899529355E+02  0.26256080452E+02  0.00000000000E+00 0.  1.
</event>
<event>
12    1  0.1615162E-001  0.1799246E+03  0.7818608E-02  0.1168689E+00
         21   -1    0    0  501  502  0.00000000000E+00  0.00000000000E+00  0.11578444735E+03  0.11578444735E+03  0.00000000000E+00 0.  1.
         21   -1    0    0  502  503 -0.00000000000E+00 -0.00000000000E+00 -0.29019482670E+03  0.29019482670E+03  0.00000000000E+00 0.  1.
         -6    2    1    2    0  503 -0.25752189082E+02  0.43353750044E+02 -0.13371336937E+03  0.22150944901E+03  0.16924670741E+03 0.  0.
        -24    2    3    3    0    0 -0.57492657020E+02  0.76618359382E+02 -0.11931947607E+03  0.17310215924E+03  0.80940975767E+02 0.  0.
          6    2    1    2  501    0  0.25752189082E+02 -0.43353750044E+02 -0.40697009987E+02  0.18446982503E+03  0.17271406092E+03 0.  0.
         24    2    5    5    0    0  0.45483218464E+02 -0.77315695031E+02 -0.66143111967E+02  0.13743450496E+03  0.80416988466E+02 0.  0.
          5    1    5    5  501    0 -0.19731029382E+02  0.33961944987E+02  0.25446101980E+02  0.47035320067E+02  0.47000000000E+01 0. -1.
        -13    1    6    6    0    0  0.43675855094E+01 -0.22368774886E+02 -0.64911635343E+02  0.68796499155E+02  0.00000000000E+00 0.  1.
         14    1    6    6    0    0  0.41115632955E+02 -0.54946920145E+02 -0.12314766240E+01  0.68638005809E+02  0.00000000000E+00 0. -1.
         -5    1    3    3    0  503  0.31740467938E+02 -0.33264609338E+02 -0.14393893300E+02  0.48407289778E+02  0.47000000000E+01 0.  1.
         13    1    4    4    0    0  0.14329861784E+00  0.30469177194E+02 -0.87589249120E+02  0.92737629120E+02  0.00000000000E+00 0. -1.
        -14    1    4    4    0    0 -0.57635955638E+02  0.46149182187E+02 -0.31730226946E+02  0.80364530117E+02  0.00000000000E+00 0.  1.
</event>
<event>
12    1  0.1615162E-001  0.1947699E+03  0.7818608E-02  0.1154413E+00
         21   -1    0    0  503  502  0.00000000000E+00  0.00000000000E+00  0.40820069060E+03  0.40820069060E+03  0.00000000000E+00 0.  1.
         21   -1    0    0  501  503 -0.00000000000E+00 -0.00000000000E+00 -0.95373958574E+02  0.95373958574E+02  0.00000000000E+00 0.  1.
          6    2    1    2  501    0 -0.41109302152E+02  0.79238615291E+02  0.20022277568E+03  0.27932860639E+03  0.17310857162E+03 0.  0.
         24    2    3    3    0    0 -0.35400772734E+02  0.28171015850E+02  0.20836592530E+03  0.22708984772E+03  0.78144860792E+02 0.  0.
         -6    2    1    2    0  502  0.41109302152E+02 -0.79238615291E+02  0.11260395634E+03  0.22424604279E+03  0.17215662591E+03 0.  0.
        -24    2    5    5    0    0  0.81634638066E+02 -0.54501323990E+02  0.12159056671E+03  0.17569621686E+03  0.80313674152E+02 0.  0.
          5    1    3    3  501    0 -0.57085294182E+01  0.51067599442E+02 -0.81431496208E+01  0.52238758662E+02  0.47000000000E+01 0. -1.
        -11    1    4    4    0    0  0.15413743529E+02  0.25449569797E+02  0.13207392920E+03  0.13538385010E+03  0.00000000000E+00 0.  1.
         12    1    4    4    0    0 -0.50814516263E+02  0.27214460527E+01  0.76291996098E+02  0.91705997624E+02  0.00000000000E+00 0. -1.
         -5    1    5    5    0  502 -0.40525335914E+02 -0.24737291301E+02 -0.89866103675E+01  0.48549825930E+02  0.47000000000E+01 0. -1.
         11    1    6    6    0    0  0.26783014627E+02  0.11062585108E+02  0.70222622532E+02  0.75966620150E+02  0.00000000000E+00 0. -1.
        -12    1    6    6    0    0  0.54851623439E+02 -0.65563909097E+02  0.51367944180E+02  0.99729596707E+02  0.00000000000E+00 0.  1.
</event>
<event>
12    1  0.1615162E-001  0.2296364E+03  0.7818608E-02  0.1126995E+00
         21   -1    0    0  503  502  0.00000000000E+00  0.00000000000E+00  0.24127432336E+03  0.24127432336E+03  0.00000000000E+00 0. -1.
         21   -1    0    0  501  503 -0.00000000000E+00 -0.00000000000E+00 -0.22174471643E+03  0.22174471643E+03  0.00000000000E+00 0.  1.
          6    2    1    2  501    0 -0.12564624879E+03  0.85995664963E+02  0.39738837467E+02  0.23249514303E+03  0.17115075840E+03 0.  0.
         24    2    3    3    0    0 -0.11233464165E+03  0.19580980183E+02 -0.21656057115E+02  0.14095535758E+03  0.79980882222E+02 0.  0.
         -6    2    1    2    0  502  0.12564624879E+03 -0.85995664963E+02 -0.20209230536E+02  0.23052389676E+03  0.17190293701E+03 0.  0.
        -24    2    5    5    0    0  0.44377625877E+02 -0.45474954844E+01  0.42158029459E+02  0.99565283065E+02  0.78395744466E+02 0.  0.
          5    1    3    3  501    0 -0.13311607138E+02  0.66414684780E+02  0.61394894582E+02  0.91539785448E+02  0.47000000000E+01 0. -1.
        -13    1    4    4    0    0 -0.11894854295E+03  0.31835404818E+02 -0.26963859555E+02  0.12605276115E+03  0.00000000000E+00 0.  1.
         14    1    4    4    0    0  0.66139013056E+01 -0.12254424635E+02  0.53078024407E+01  0.14902596430E+02  0.00000000000E+00 0. -1.
         -5    1    5    5    0  502  0.81268622910E+02 -0.81448169479E+02 -0.62367259996E+02  0.13095861369E+03  0.47000000000E+01 0.  1.
         13    1    6    6    0    0  0.60996526426E+02  0.10179950149E+02  0.13474922268E+02  0.63291240715E+02  0.00000000000E+00 0. -1.
        -14    1    6    6    0    0 -0.16618900549E+02 -0.14727445633E+02  0.28683107191E+02  0.36274042351E+02  0.00000000000E+00 0.  1.
</event>
<event>
12    1  0.1615162E-001  0.1752072E+03  0.7818608E-02  0.1172535E+00
         21   -1    0    0  503  502  0.00000000000E+00  0.00000000000E+00  0.17959071941E+03  0.17959071941E+03  0.00000000000E+00 0.  1.
         21   -1    0    0  501  503 -0.00000000000E+00 -0.00000000000E+00 -0.24643694117E+03  0.24643694117E+03  0.00000000000E+00 0.  1.
          6    2    1    2  501    0 -0.24942274454E+02 -0.15003005943E+02 -0.15136348679E+03  0.23150067722E+03  0.17272652134E+03 0.  0.
         24    2    3    3    0    0 -0.48824346373E+02 -0.58472695327E+02 -0.14353323485E+03  0.18106884104E+03  0.79882806619E+02 0.  0.
         -6    2    1    2    0  502  0.24942274454E+02  0.15003005943E+02  0.84517265030E+02  0.19452698337E+03  0.17277260178E+03 0.  0.
        -24    2    5    5    0    0  0.69643781841E+02  0.26210399933E+02  0.13930764326E+02  0.11009728170E+03  0.79938124998E+02 0.  0.
          5    1    3    3  501    0  0.23882071919E+02  0.43469689383E+02 -0.78302519432E+01  0.50431836172E+02  0.47000000000E+01 0. -1.
        -11    1    4    4    0    0 -0.11000872270E+02 -0.56122259774E+02 -0.12784435316E+03  0.14005322513E+03  0.00000000000E+00 0.  1.
         12    1    4    4    0    0 -0.37823474103E+02 -0.23504355525E+01 -0.15688881686E+02  0.41015615917E+02  0.00000000000E+00 0. -1.
         -5    1    5    5    0  502 -0.44701507387E+02 -0.11207393989E+02  0.70586500703E+02  0.84429701671E+02  0.47000000000E+01 0.  1.
         13    1    6    6    0    0  0.43252815945E+01 -0.24836846957E+02  0.99472668040E+01  0.27102124354E+02  0.00000000000E+00 0. -1.
        -14    1    6    6    0    0  0.65318500247E+02  0.51047246890E+02  0.39834975225E+01  0.82995157341E+02  0.00000000000E+00 0.  1.
</event>
<event>
12    1  0.1615162E-001  0.2470230E+03  0.7818608E-02  0.1115293E+00
         21   -1    0    0  503  502  0.00000000000E+00  0.00000000000E+00  0.50366076935E+02  0.50366076935E+02  0.00000000000E+00 0. -1.
         21   -1    0    0  501  503 -0.00000000000E+00 -0.00000000000E+00 -0.31165253153E+04  0.31165253153E+04  0.00000000000E+00 0. -1.
          6    2    1    2  501    0  0.13170583679E+03  0.11901525321E+03 -0.27712832548E+04  0.27822198254E+04  0.17095385483E+03 0.  0.
         24    2    3    3    0    0  0.14078792527E+03  0.11853332168E+03 -0.18448814569E+04  0.18557614627E+04  0.79947659566E+02 0.  0.
         -6    2    1    2    0  502 -0.13170583679E+03 -0.11901525321E+03 -0.29487598357E+03  0.38467156686E+03  0.17178274278E+03 0.  0.
        -24    2    5    5    0    0 -0.13494338721E+03 -0.51314861876E+02 -0.14152992270E+03  0.21694879230E+03  0.78696420878E+02 0.  0.
          5    1    3    3  501    0 -0.90820884737E+01  0.48193153000E+00 -0.92640179792E+03  0.92645836268E+03  0.47000000000E+01 0. -1.
        -11    1    4    4    0    0  0.62122387421E+02  0.35785239006E+02 -0.39982808090E+03  0.40620471271E+03  0.00000000000E+00 0.  1.
         12    1    4    4    0    0  0.78665537847E+02  0.82748082676E+02 -0.14450533760E+04  0.14495567500E+04  0.00000000000E+00 0. -1.
         -5    1    5    5    0  502  0.32375504211E+01 -0.67700391336E+02 -0.15334606087E+03  0.16772277455E+03  0.47000000000E+01 0.  1.
         11    1    6    6    0    0 -0.29093003725E+02 -0.49719250196E+02 -0.38937443756E+02  0.69530793409E+02  0.00000000000E+00 0. -1.
        -12    1    6    6    0    0 -0.10585038349E+03 -0.15956116805E+01 -0.10259247894E+03  0.14741799889E+03  0.00000000000E+00 0.  1.
</event>
<event>
12    1  0.1615162E-001  0.2252066E+03  0.7818608E-02  0.1130203E+00
         21   -1    0    0  503  502  0.00000000000E+00  0.00000000000E+00  0.59676442423E+03  0.59676442423E+03  0.00000000000E+00 0. -1.
         21   -1    0    0  501  503 -0.00000000000E+00 -0.00000000000E+00 -0.88845002863E+02  0.88845002863E+02  0.00000000000E+00 0. -1.
          6    2    1    2  501    0  0.14328888538E+03 -0.21195082706E+02  0.18024968097E+03  0.28845793607E+03  0.17244447567E+03 0.  0.
         24    2    3    3    0    0  0.79391948807E+02  0.53948970691E+02  0.77361629739E+02  0.14584836995E+03  0.77931715534E+02 0.  0.
         -6    2    1    2    0  502 -0.14328888538E+03  0.21195082706E+02  0.32766974040E+03  0.39715149102E+03  0.17140861076E+03 0.  0.
        -24    2    5    5    0    0 -0.14945827753E+03  0.20826063631E+02  0.17473186650E+03  0.24401664571E+03  0.79002509872E+02 0.  0.
          5    1    3    3  501    0  0.63896936577E+02 -0.75144053397E+02  0.10288805123E+03  0.14260956613E+03  0.47000000000E+01 0. -1.
        -13    1    4    4    0    0  0.16183186118E+02 -0.56796135458E+01  0.52847271094E+02  0.55560665808E+02  0.00000000000E+00 0.  1.
         14    1    4    4    0    0  0.63208762689E+02  0.59628584237E+02  0.24514358646E+02  0.90287704138E+02  0.00000000000E+00 0. -1.
         -5    1    5    5    0  502  0.61693921479E+01  0.36901907446E+00  0.15293787390E+03  0.15313484531E+03  0.47000000000E+01 0.  1.
         13    1    6    6    0    0 -0.69842503158E+02 -0.22932294843E+02  0.11064311450E+03  0.13283735988E+03  0.00000000000E+00 0. -1.
        -14    1    6    6    0    0 -0.79615774373E+02  0.43758358474E+02  0.64088752001E+02  0.11117928583E+03  0.00000000000E+00 0.  1.
</event>
<event>
12    1  0.1615162E-001  0.1878171E+03  0.7818608E-02  0.1160467E+00
         21   -1    0    0  503  502  0.00000000000E+00  0.00000000000E+00  0.21813928963E+02  0.21813928963E+02  0.00000000000E+00 0. -1.
         21   -1    0    0  501  503 -0.00000000000E+00 -0.00000000000E+00 -0.16169365329E+04  0.16169365329E+04  0.00000000000E+00 0.  1.
          6    2    1    2  501    0  0.75153637978E+02 -0.12070538960E+02 -0.81445015362E+03  0.83582553799E+03  0.17170180551E+03 0.  0.
         24    2    3    3    0    0  0.83232784223E+02  0.23612473772E+02 -0.76682707253E+03  0.77558769396E+03  0.77635472316E+02 0.  0.
         -6    2    1    2    0  502 -0.75153637978E+02  0.12070538960E+02 -0.78067245028E+03  0.80292492384E+03  0.17159601241E+03 0.  0.
        -24    2    5    5    0    0 -0.14429454530E+02  0.63763035762E+02 -0.31428403218E+03  0.32974442211E+03  0.75385656044E+02 0.  0.
          5    1    3    3  501    0 -0.80791462454E+01 -0.35683012732E+02 -0.47623081089E+02  0.60237844036E+02  0.47000000000E+01 0. -1.
        -11    1    4    4    0    0  0.73190332527E+02  0.16743106560E+00 -0.70380165180E+03  0.70759707312E+03  0.00000000000E+00 0.  1.
         12    1    4    4    0    0  0.10042451696E+02  0.23445042706E+02 -0.63025420730E+02  0.67990620837E+02  0.00000000000E+00 0. -1.
         -5    1    5    5    0  502 -0.60724183448E+02 -0.51692496802E+02 -0.46638841810E+03  0.47318050173E+03  0.47000000000E+01 0.  1.
         13    1    6    6    0    0 -0.24969830708E+02  0.48479456066E+02 -0.30331984462E+03  0.30818286494E+03  0.00000000000E+00 0. -1.
        -14    1    6    6    0    0  0.10540376178E+02  0.15283579696E+02 -0.10964187566E+02  0.21561557163E+02  0.00000000000E+00 0.  1.
</event>
<event>
12    1  0.1615162E-001  0.1912506E+03  0.7818608E-02  0.1158299E+00
         21   -1    0    0  501  502  0.00000000000E+00  0.00000000000E+00  0.44146889117E+02  0.44146889117E+02  0.00000000000E+00 0. -1.
         21   -1    0    0  502  503 -0.00000000000E+00 -0.00000000000E+00 -0.81059012722E+03  0.81059012722E+03  0.00000000000E+00 0. -1.
         -6    2    1    2    0  503  0.58170604027E+02  0.57497994944E+02 -0.36986375468E+03  0.41445066405E+03  0.16816752752E+03 0.  0.
        -24    2    3    3    0    0  0.36505242024E+02  0.36195234164E+02 -0.37142718869E+03  0.38366544270E+03  0.81229845215E+02 0.  0.
          6    2    1    2  501    0 -0.58170604027E+02 -0.57497994944E+02 -0.39657948342E+03  0.44028635228E+03  0.17287841607E+03 0.  0.
         24    2    5    5    0    0  0.12269334556E+01 -0.44642672498E+02 -0.35502385039E+03  0.36651449172E+03  0.79350266049E+02 0.  0.
          5    1    5    5  501    0 -0.59397537483E+02 -0.12855322446E+02 -0.41555633026E+02  0.73771860559E+02  0.47000000000E+01 0. -1.
        -13    1    6    6    0    0 -0.53987302661E+01 -0.55139917044E+02 -0.13213444261E+03  0.14327968336E+03  0.00000000000E+00 0.  1.
         14    1    6    6    0    0  0.66256637218E+01  0.10497244547E+02 -0.22288940779E+03  0.22323480837E+03  0.00000000000E+00 0. -1.
         -5    1    3    3    0  503  0.21665362003E+02  0.21302760780E+02  0.15634340113E+01  0.30785221349E+02  0.47000000000E+01 0.  1.
         11    1    4    4    0    0 -0.16651575202E+02  0.25748867231E+02 -0.23310304842E+03  0.23511127218E+03  0.00000000000E+00 0. -1.
        -12    1    4    4    0    0  0.53156817226E+02  0.10446366933E+02 -0.13832414027E+03  0.14855417053E+03  0.00000000000E+00 0.  1.
</event>
<event>
12    1  0.1615162E-001  0.2301204E+03  0.7818608E-02  0.1129490E+00
         21   -1    0    0  503  502  0.00000000000E+00  0.00000000000E+00  0.53934833998E+03  0.53934833998E+03  0.00000000000E+00 0. -1.
         21   -1    0    0  501  503 -0.00000000000E+00 -0.00000000000E+00 -0.21263074610E+03  0.21263074610E+03  0.00000000000E+00 0. -1.
          6    2    1    2  501    0 -0.10764670782E+03 -0.65922311557E+02 -0.12294437773E+03  0.24685408099E+03  0.17288161389E+03 0.  0.
         24    2    3    3    0    0  0.47876011894E+01 -0.18887795134E+02 -0.84660549706E+02  0.11902035671E+03  0.81355803134E+02 0.  0.
         -6    2    1    2    0  502  0.10764670782E+03  0.65922311557E+02  0.44966197161E+03  0.50512500509E+03  0.19241054333E+03 0.  0.
        -24    2    5    5    0    0  0.19404386331E+02  0.37254322267E+02  0.37568032354E+03  0.38636501535E+03  0.79861159840E+02 0.  0.
          5    1    3    3  501    0 -0.11243430901E+03 -0.47034516422E+02 -0.38283828028E+02  0.12783372429E+03  0.47000000000E+01 0. -1.
        -13    1    4    4    0    0 -0.22895373549E+01 -0.48853751364E+02 -0.33402652158E+02  0.59225570279E+02  0.00000000000E+00 0.  1.
         14    1    4    4    0    0  0.70771385443E+01  0.29965956230E+02 -0.51257897548E+02  0.59794786426E+02  0.00000000000E+00 0. -1.
         -5    1    5    5    0  502  0.88242321488E+02  0.28667989289E+02  0.73981648070E+02  0.11875998974E+03  0.47000000000E+01 0.  1.
         13    1    6    6    0    0  0.40334942107E+02  0.46517450320E+02  0.32464877925E+03  0.33043548630E+03  0.00000000000E+00 0. -1.
        -14    1    6    6    0    0 -0.20930555776E+02 -0.92631280526E+01  0.51031544296E+02  0.55929529049E+02  0.00000000000E+00 0.  1.
</event>
