<event>
12    1  0.1050869E+000  0.2426561E+03  0.7818608E-02  0.1119175E+00
         21   -1    0    0  501  502  0.00000000000E+00  0.00000000000E+00  0.44107357894E+03  0.44107357894E+03  0.00000000000E+00 0.  1.
         21   -1    0    0  502  503 -0.00000000000E+00 -0.00000000000E+00 -0.13128697643E+03  0.13128697643E+03  0.00000000000E+00 0.  1.
         -6    2    1    2    0  503  0.14275886932E+03 -0.86324793048E+02  0.18352753241E+03  0.29882199859E+03  0.16667383425E+03 0.  0.
        -24    2    3    3    0    0  0.16712173211E+03 -0.50258373557E+02  0.14864168816E+03  0.24284479048E+03  0.80147759462E+02 0.  0.
          6    2    1    2  501    0 -0.14275886932E+03  0.86324793048E+02  0.12625907010E+03  0.27353855679E+03  0.17620988793E+03 0.  0.
         24    2    5    5    0    0 -0.95071487167E+02  0.39420122607E+02  0.15268302488E+01  0.13192515282E+03  0.82518973568E+02 0.  0.
          5    1    5    5  501    0 -0.47687382151E+02  0.46904670441E+02  0.12473223985E+03  0.14161340397E+03  0.47000000000E+01 0. -1.
        -13    1    6    6    0    0 -0.79702172094E+02  0.63945065937E+02 -0.48114023487E+01  0.10229641874E+03  0.00000000000E+00 0.  1.
         14    1    6    6    0    0 -0.15369315073E+02 -0.24524943329E+02  0.63382325975E+01  0.29628734087E+02  0.00000000000E+00 0. -1.
         -5    1    3    3    0  503 -0.24362862794E+02 -0.36066419491E+02  0.34885844258E+02  0.55977208112E+02  0.47000000000E+01 0.  1.
         13    1    4    4    0    0  0.17275729789E+02 -0.10840261447E+02  0.62115676503E+02  0.65378279080E+02  0.00000000000E+00 0. -1.
        -14    1    4    4    0    0  0.14984600232E+03 -0.39418112109E+02  0.86526011653E+02  0.17746651140E+03  0.00000000000E+00 0.  1.
</event>
<event>
12    1  0.1050869E+000  0.1765913E+03  0.7818608E-02  0.1171324E+00
         21   -1    0    0  501  502  0.00000000000E+00  0.00000000000E+00  0.28524457254E+02  0.28524457254E+02  0.00000000000E+00 0.  1.
         21   -1    0    0  502  503 -0.00000000000E+00 -0.00000000000E+00 -0.10894341185E+04  0.10894341185E+04  0.00000000000E+00 0.  1.
         -6    2    1    2    0  503  0.37752631397E+02 -0.89755139835E+01 -0.51760085063E+03  0.54689591260E+03  0.17227500579E+03 0.  0.
        -24    2    3    3    0    0 -0.95430214796E+01 -0.63620119873E+02 -0.27265787631E+03  0.29147065465E+03  0.80462637874E+02 0.  0.
          6    2    1    2  501    0 -0.37752631397E+02  0.89755139835E+01 -0.54330881065E+03  0.57106266318E+03  0.17152924102E+03 0.  0.
         24    2    5    5    0    0 -0.18651487105E+02 -0.37758207091E+02 -0.48702856691E+03  0.49531010393E+03  0.79760352880E+02 0.  0.
          5    1    5    5  501    0 -0.19101144291E+02  0.46733721075E+02 -0.56280243735E+02  0.75752559254E+02  0.47000000000E+01 0. -1.
        -13    1    6    6    0    0  0.25041973791E+02 -0.38991558024E+02 -0.26460409368E+03  0.26863128716E+03  0.00000000000E+00 0.  1.
         14    1    6    6    0    0 -0.43693460896E+02  0.12333509324E+01 -0.22242447323E+03  0.22667881677E+03  0.00000000000E+00 0. -1.
         -5    1    3    3    0  503  0.47295652876E+02  0.54644605890E+02 -0.24494297432E+03  0.25542525795E+03  0.47000000000E+01 0.  1.
         13    1    4    4    0    0  0.30792515873E+02 -0.53972325565E+01 -0.10244692213E+03  0.10711060175E+03  0.00000000000E+00 0. -1.
        -14    1    4    4    0    0 -0.40335537352E+02 -0.58222887317E+02 -0.17021095418E+03  0.18436005289E+03  0.00000000000E+00 0.  1.
</event>
<event>
12    1  0.1050869E+000  0.1787706E+03  0.7818608E-02  0.1169502E+00
         21   -1    0    0  501  502  0.00000000000E+00  0.00000000000E+00  0.66089379918E+02  0.66089379918E+02  0.00000000000E+00 0. -1.
         21   -1    0    0  502  503 -0.00000000000E+00 -0.00000000000E+00 -0.48076135429E+03  0.48076135429E+03  0.00000000000E+00 0. -1.
         -6    2    1    2    0  503 -0.38225470763E+02 -0.19231096299E+02 -0.22673191449E+03  0.28746607985E+03  0.17145951223E+03 0.  0.
        -24    2    3    3    0    0 -0.55523496833E+02  0.44965796771E+02 -0.10078426577E+03  0.14496919215E+03  0.75853917932E+02 0.  0.
          6    2    1    2  501    0  0.38225470763E+02  0.19231096299E+02 -0.18794005988E+03  0.25938465435E+03  0.17357393562E+03 0.  0.
         24    2    5    5    0    0 -0.34211475443E+02 -0.17710320078E+02 -0.59065105491E+02  0.10692933865E+03  0.80381069210E+02 0.  0.
          5    1    5    5  501    0  0.72436946206E+02  0.36941416378E+02 -0.12887495439E+03  0.15245531571E+03  0.47000000000E+01 0. -1.
        -13    1    6    6    0    0  0.82723947810E+01 -0.68575484799E+01  0.16425644718E+02  0.19628048578E+02  0.00000000000E+00 0.  1.
         14    1    6    6    0    0 -0.42483870224E+02 -0.10852771599E+02 -0.75490750209E+02  0.87301290069E+02  0.00000000000E+00 0. -1.
         -5    1    3    3    0  503  0.17298026070E+02 -0.64196893071E+02 -0.12594764873E+03  0.14249688770E+03  0.47000000000E+01 0.  1.
         11    1    4    4    0    0 -0.49680229841E+02 -0.78085439087E+01 -0.39986510146E+02  0.64249666059E+02  0.00000000000E+00 0. -1.
        -12    1    4    4    0    0 -0.58432669928E+01  0.52774340680E+02 -0.60797755623E+02  0.80719526090E+02  0.00000000000E+00 0.  1.
</event>
<event>
12    1  0.1050869E+000  0.1894718E+03  0.7818608E-02  0.1159234E+00
         21   -1    0    0  501  502  0.00000000000E+00  0.00000000000E+00  0.63961063521E+02  0.63961063521E+02  0.00000000000E+00 0. -1.
         21   -1    0    0  502  503 -0.00000000000E+00 -0.00000000000E+00 -0.55823634625E+03  0.55823634625E+03  0.00000000000E+00 0. -1.
         -6    2    1    2    0  503  0.37841503592E+02 -0.69381151883E+02 -0.23448068282E+03  0.30064991943E+03  0.17077312378E+03 0.  0.
        -24    2    3    3    0    0  0.67533627493E+02 -0.63986469411E+02 -0.88715291681E+02  0.15171918360E+03  0.80580696097E+02 0.  0.
          6    2    1    2  501    0 -0.37841503592E+02  0.69381151883E+02 -0.25979459991E+03  0.32154749035E+03  0.17220287679E+03 0.  0.
         24    2    5    5    0    0  0.28911580326E+01  0.13721108892E+02 -0.40090097190E+02  0.91223048255E+02  0.80732899219E+02 0.  0.
          5    1    5    5  501    0 -0.40732661625E+02  0.55660042990E+02 -0.21970450272E+03  0.23032444209E+03  0.47000000000E+01 0. -1.
        -13    1    6    6    0    0 -0.37914752485E+02  0.95935690907E+01 -0.10037927914E+02  0.40377283474E+02  0.00000000000E+00 0.  1.
         14    1    6    6    0    0  0.40805910518E+02  0.41275398018E+01 -0.30052169276E+02  0.50845764781E+02  0.00000000000E+00 0. -1.
         -5    1    3    3    0  503 -0.29692123900E+02 -0.53946824713E+01 -0.14576539114E+03  0.14893073583E+03  0.47000000000E+01 0.  1.
         13    1    4    4    0    0  0.16131074682E+02 -0.65185521358E+02 -0.70001481617E+02  0.97002944253E+02  0.00000000000E+00 0. -1.
        -14    1    4    4    0    0  0.51402552810E+02  0.11990519465E+01 -0.18713810064E+02  0.54716239345E+02  0.00000000000E+00 0.  1.
</event>
<event>
12    1  0.1050869E+000  0.1890176E+03  0.7818608E-02  0.1159583E+00
         21   -1    0    0  501  502  0.00000000000E+00  0.00000000000E+00  0.13213311676E+03  0.13213311676E+03  0.00000000000E+00 0. -1.
         21   -1    0    0  502  503 -0.00000000000E+00 -0.00000000000E+00 -0.28133388044E+03  0.28133388044E+03  0.00000000000E+00 0. -1.
         -6    2    1    2    0  503 -0.59599130071E+02 -0.63391701520E+02 -0.11819753015E+03  0.22293118188E+03  0.16780074968E+03 0.  0.
        -24    2    3    3    0    0 -0.51407327779E+01 -0.15085169783E+02 -0.12540295079E+03  0.14962875265E+03  0.80055443750E+02 0.  0.
          6    2    1    2  501    0  0.59599130071E+02  0.63391701520E+02 -0.31003233531E+02  0.19053581532E+03  0.16664972938E+03 0.  0.
         24    2    5    5    0    0  0.82160893501E+02  0.80049912813E+02  0.11755099368E+02  0.13918511713E+03  0.77948146262E+02 0.  0.
          5    1    5    5  501    0 -0.22561763431E+02 -0.16658211293E+02 -0.42758332898E+02  0.51350698192E+02  0.47000000000E+01 0. -1.
        -13    1    6    6    0    0  0.13204748961E+02  0.25109998899E+02 -0.30294345960E+02  0.41504515862E+02  0.00000000000E+00 0.  1.
         14    1    6    6    0    0  0.68956144540E+02  0.54939913914E+02  0.42049445327E+02  0.97680601263E+02  0.00000000000E+00 0. -1.
         -5    1    3    3    0  503 -0.54458397293E+02 -0.48306531737E+02  0.72054206355E+01  0.73302429228E+02  0.47000000000E+01 0.  1.
         13    1    4    4    0    0 -0.62030831499E+01 -0.73524648406E+01  0.10072807037E+02  0.13928331609E+02  0.00000000000E+00 0. -1.
        -14    1    4    4    0    0  0.10623503721E+01 -0.77327049423E+01 -0.13547575782E+03  0.13570042105E+03  0.00000000000E+00 0.  1.
</event>
<event>
12    1  0.1050869E+000  0.2011607E+03  0.7818608E-02  0.1148964E+00
         21   -1    0    0  503  502  0.00000000000E+00  0.00000000000E+00  0.44969769681E+02  0.44969769681E+02  0.00000000000E+00 0. -1.
         21   -1    0    0  501  503 -0.00000000000E+00 -0.00000000000E+00 -0.13627399853E+04  0.13627399853E+04  0.00000000000E+00 0. -1.
          6    2    1    2  501    0 -0.67830812000E+02 -0.77924188535E+02 -0.24780582584E+03  0.31917606340E+03  0.17260484903E+03 0.  0.
         24    2    3    3    0    0 -0.93514367798E+02 -0.10757355896E+03 -0.20381908844E+03  0.26005201353E+03  0.75946174097E+02 0.  0.
         -6    2    1    2    0  502  0.67830812000E+02  0.77924188535E+02 -0.10699643898E+04  0.10885336916E+04  0.17148937024E+03 0.  0.
        -24    2    5    5    0    0  0.11982655893E+02 -0.23411154761E+02 -0.43749918096E+03  0.44555453274E+03  0.80135148945E+02 0.  0.
          5    1    3    3  501    0  0.25683555798E+02  0.29649370423E+02 -0.43986737408E+02  0.59124049867E+02  0.47000000000E+01 0. -1.
        -11    1    4    4    0    0 -0.26339564249E+02 -0.38303887394E+02 -0.16476032038E+02  0.49319570822E+02  0.00000000000E+00 0.  1.
         12    1    4    4    0    0 -0.67174803549E+02 -0.69269671564E+02 -0.18734305640E+03  0.21073244271E+03  0.00000000000E+00 0. -1.
         -5    1    5    5    0  502  0.55848156108E+02  0.10133534330E+03 -0.63246520880E+03  0.64297915882E+03  0.47000000000E+01 0.  1.
         11    1    6    6    0    0 -0.22213680648E+02  0.19031367954E+02 -0.17868499639E+03  0.18106343781E+03  0.00000000000E+00 0. -1.
        -12    1    6    6    0    0  0.34196336540E+02 -0.42442522715E+02 -0.25881418456E+03  0.26449109493E+03  0.00000000000E+00 0.  1.
</event>
<event>
12    1  0.1050869E+000  0.1833572E+03  0.7818608E-02  0.1165296E+00
         21   -1    0    0  501  502  0.00000000000E+00  0.00000000000E+00  0.18114976846E+03  0.18114976846E+03  0.00000000000E+00 0. -1.
         21   -1    0    0  502  503 -0.00000000000E+00 -0.00000000000E+00 -0.22399902560E+03  0.22399902560E+03  0.00000000000E+00 0. -1.
         -6    2    1    2    0  503  0.12799898351E+02  0.61451609510E+02  0.65783995237E+02  0.19202665639E+03  0.16913475405E+03 0.  0.
        -24    2    3    3    0    0  0.70629370844E+02  0.23787682963E+02  0.53712481008E+02  0.12180820648E+03  0.79986540517E+02 0.  0.
          6    2    1    2  501    0 -0.12799898351E+02 -0.61451609510E+02 -0.10863325238E+03  0.21312213768E+03  0.17227804369E+03 0.  0.
         24    2    5    5    0    0 -0.65144158865E+02 -0.58728746069E+02 -0.35062983942E+02  0.12266767404E+03  0.78263135399E+02 0.  0.
          5    1    5    5  501    0  0.52344260514E+02 -0.27228634416E+01 -0.73570268435E+02  0.90454463636E+02  0.47000000000E+01 0. -1.
        -13    1    6    6    0    0 -0.64638208480E+01 -0.22686654171E+02 -0.47176226542E+02  0.52745251997E+02  0.00000000000E+00 0.  1.
         14    1    6    6    0    0 -0.58680338017E+02 -0.36042091898E+02  0.12113242601E+02  0.69922422043E+02  0.00000000000E+00 0. -1.
         -5    1    3    3    0  503 -0.57829472494E+02  0.37663926547E+02  0.12071514228E+02  0.70218449909E+02  0.47000000000E+01 0.  1.
         11    1    4    4    0    0  0.60062438164E+02  0.45103932053E+02  0.61176462412E+02  0.96873219819E+02  0.00000000000E+00 0. -1.
        -12    1    4    4    0    0  0.10566932680E+02 -0.21316249090E+02 -0.74639814038E+01  0.24934986663E+02  0.00000000000E+00 0.  1.
</event>
<event>
12    1  0.1050869E+000  0.2559168E+03  0.7818608E-02  0.1109774E+00
         21   -1    0    0  501  502  0.00000000000E+00  0.00000000000E+00  0.20840111585E+03  0.20840111585E+03  0.00000000000E+00 0.  1.
         21   -1    0    0  502  503 -0.00000000000E+00 -0.00000000000E+00 -0.13324994965E+04  0.13324994965E+04  0.00000000000E+00 0.  1.
         -6    2    1    2    0  503  0.70481391531E+02  0.17600521216E+03 -0.12362038680E+04  0.12624157137E+04  0.17189522872E+03 0.  0.
        -24    2    3    3    0    0  0.16283496538E+02  0.18300939907E+03 -0.92160027757E+03  0.94306640719E+03  0.79180706815E+02 0.  0.
          6    2    1    2  501    0 -0.70481391531E+02 -0.17600521216E+03  0.11210548735E+03  0.27848489867E+03  0.17041343033E+03 0.  0.
         24    2    5    5    0    0 -0.65387078994E+02 -0.14065627387E+03  0.14716784138E+03  0.22821604023E+03  0.79778004529E+02 0.  0.
          5    1    5    5  501    0 -0.50943125373E+01 -0.35348938285E+02 -0.35062354030E+02  0.50268858434E+02  0.47000000000E+01 0. -1.
        -11    1    6    6    0    0 -0.91301233254E+01  0.10037671796E+02  0.11037789029E+02  0.17491334817E+02  0.00000000000E+00 0.  1.
         12    1    6    6    0    0 -0.56256955669E+02 -0.15069394567E+03  0.13613005235E+03  0.21072470542E+03  0.00000000000E+00 0. -1.
         -5    1    3    3    0  503  0.54197894993E+02 -0.70041869104E+01 -0.31460359041E+03  0.31934930649E+03  0.47000000000E+01 0.  1.
         13    1    4    4    0    0  0.16846128409E+02  0.17551806549E+03 -0.71821880051E+03  0.73954623166E+03  0.00000000000E+00 0. -1.
        -14    1    4    4    0    0 -0.56263187123E+00  0.74913335755E+01 -0.20338147707E+03  0.20352017553E+03  0.00000000000E+00 0.  1.
</event>
<event>
12    1  0.1050869E+000  0.1739090E+03  0.7818608E-02  0.1173917E+00
         21   -1    0    0  501  502  0.00000000000E+00  0.00000000000E+00  0.96763366957E+02  0.96763366957E+02  0.00000000000E+00 0. -1.
         21   -1    0    0  502  503 -0.00000000000E+00 -0.00000000000E+00 -0.17067817162E+04  0.17067817162E+04  0.00000000000E+00 0. -1.
         -6    2    1    2    0  503  0.40091345498E+01  0.59915139918E+01 -0.16200741734E+04  0.16293456410E+04  0.17342121841E+03 0.  0.
        -24    2    3    3    0    0 -0.69515250934E+01 -0.50847001863E+02 -0.13379877996E+04  0.13413429236E+04  0.79722929038E+02 0.  0.
          6    2    1    2  501    0 -0.40091345498E+01 -0.59915139918E+01  0.10055824178E+02  0.17419944218E+03  0.17375947357E+03 0.  0.
         24    2    5    5    0    0 -0.26924745464E+01 -0.70462997564E+02  0.15904055323E+02  0.10927950999E+03  0.81956017978E+02 0.  0.
          5    1    5    5  501    0 -0.13166600034E+01  0.64471483572E+02 -0.58482311445E+01  0.64919932186E+02  0.47000000000E+01 0. -1.
        -13    1    6    6    0    0 -0.38663119332E+02 -0.18010214607E+02 -0.34682432931E+01  0.42792912243E+02  0.00000000000E+00 0.  1.
         14    1    6    6    0    0  0.35970644786E+02 -0.52452782957E+02  0.19372298616E+02  0.66486597746E+02  0.00000000000E+00 0. -1.
         -5    1    3    3    0  503  0.10960659643E+02  0.56838515855E+02 -0.28208637382E+03  0.28800271742E+03  0.47000000000E+01 0.  1.
         13    1    4    4    0    0 -0.13844573716E+02 -0.48591353285E+02 -0.38191299748E+03  0.38524061245E+03  0.00000000000E+00 0. -1.
        -14    1    4    4    0    0  0.68930486226E+01 -0.22556485776E+01 -0.95607480212E+03  0.95610231111E+03  0.00000000000E+00 0.  1.
</event>
<event>
12    1  0.1050869E+000  0.1878992E+03  0.7818608E-02  0.1161250E+00
         21   -1    0    0  501  502  0.00000000000E+00  0.00000000000E+00  0.68633121646E+02  0.68633121646E+02  0.00000000000E+00 0.  1.
         21   -1    0    0  502  503 -0.00000000000E+00 -0.00000000000E+00 -0.51261584372E+03  0.51261584372E+03  0.00000000000E+00 0.  1.
         -6    2    1    2    0  503  0.42900588383E+02  0.57044393191E+02 -0.18219828352E+03  0.25901115178E+03  0.16969395673E+03 0.  0.
        -24    2    3    3    0    0 -0.33776453349E+02  0.30362191525E+02 -0.14012136533E+03  0.16744770023E+03  0.79636824496E+02 0.  0.
          6    2    1    2  501    0 -0.42900588383E+02 -0.57044393191E+02 -0.26178443855E+03  0.32223781359E+03  0.17381482376E+03 0.  0.
         24    2    5    5    0    0  0.20885812371E+02 -0.84211496043E+02 -0.17853736994E+03  0.21379925573E+03  0.79414961181E+02 0.  0.
          5    1    5    5  501    0 -0.63786400753E+02  0.27167102852E+02 -0.83247068615E+02  0.10843855786E+03  0.47000000000E+01 0. -1.
        -11    1    6    6    0    0  0.40655924728E+02 -0.34730404128E+02 -0.44522376644E+02  0.69579790229E+02  0.00000000000E+00 0.  1.
         12    1    6    6    0    0 -0.19770112357E+02 -0.49481091916E+02 -0.13401499330E+03  0.14421946550E+03  0.00000000000E+00 0. -1.
         -5    1    3    3    0  503  0.76677041731E+02  0.26682201666E+02 -0.42076918186E+02  0.91563451543E+02  0.47000000000E+01 0.  1.
         13    1    4    4    0    0 -0.17261807860E+01  0.15953994220E+02  0.60213804803E+01  0.17139622358E+02  0.00000000000E+00 0. -1.
        -14    1    4    4    0    0 -0.32050272563E+02  0.14408197305E+02 -0.14614274581E+03  0.15030807788E+03  0.00000000000E+00 0.  1.
</event>
<event>
12    1  0.1050869E+000  0.1816041E+03  0.7818608E-02  0.1166269E+00
         21   -1    0    0  501  502  0.00000000000E+00  0.00000000000E+00  0.17446539413E+04  0.17446539413E+04  0.00000000000E+00 0. -1.
         21   -1    0    0  502  503 -0.00000000000E+00 -0.00000000000E+00 -0.21110282627E+02  0.21110282627E+02  0.00000000000E+00 0. -1.
         -6    2    1    2    0  503  0.57942546508E+02 -0.98104799399E+01  0.11475860304E+04  0.11618664870E+04  0.17183262828E+03 0.  0.
        -24    2    3    3    0    0 -0.94213828173E+01 -0.51349526197E+02  0.76832141504E+03  0.77440406324E+03  0.81598529677E+02 0.  0.
          6    2    1    2  501    0 -0.57942546508E+02  0.98104799399E+01  0.57595762822E+03  0.60389773692E+03  0.17178970555E+03 0.  0.
         24    2    5    5    0    0 -0.57218641442E+02  0.20573842208E+02  0.58334323016E+03  0.59000489265E+03  0.64180941631E+02 0.  0.
          5    1    5    5  501    0 -0.72390506581E+00 -0.10763362268E+02 -0.73856019356E+01  0.13892844266E+02  0.47000000000E+01 0. -1.
        -11    1    6    6    0    0 -0.46882488946E+02  0.21003986935E+02  0.19905063079E+03  0.20557307425E+03  0.00000000000E+00 0.  1.
         12    1    6    6    0    0 -0.10336152496E+02 -0.43014472755E+00  0.38429259937E+03  0.38443181840E+03  0.00000000000E+00 0. -1.
         -5    1    3    3    0  503  0.67363929325E+02  0.41539046257E+02  0.37926461540E+03  0.38746242377E+03  0.47000000000E+01 0.  1.
         11    1    4    4    0    0  0.73013075516E+01  0.19024090695E+02  0.92225663078E+02  0.94449976437E+02  0.00000000000E+00 0. -1.
        -12    1    4    4    0    0 -0.16722690369E+02 -0.70373616892E+02  0.67609575197E+03  0.67995408680E+03  0.00000000000E+00 0.  1.
</event>
<event>
12    1  0.1050869E+000  0.3020820E+03  0.7818608E-02  0.1084776E+00
         21   -1    0    0  501  502  0.00000000000E+00  0.00000000000E+00  0.27005606786E+03  0.27005606786E+03  0.00000000000E+00 0.  1.
         21   -1    0    0  502  503 -0.00000000000E+00 -0.00000000000E+00 -0.33281918297E+03  0.33281918297E+03  0.00000000000E+00 0.  1.
         -6    2    1    2    0  503 -0.16534409794E+03  0.18447021362E+03 -0.29439243954E+02  0.30351311746E+03  0.17287455842E+03 0.  0.
        -24    2    3    3    0    0 -0.15148327697E+03  0.12689879022E+03  0.24560628104E+02  0.22323443204E+03  0.10089549562E+03 0.  0.
          6    2    1    2  501    0  0.16534409794E+03 -0.18447021362E+03 -0.33323871156E+02  0.29936213336E+03  0.16474002570E+03 0.  0.
         24    2    5    5    0    0  0.56679603073E+02 -0.30168397864E+02  0.21087513030E+02  0.10289404049E+03  0.77587310356E+02 0.  0.
          5    1    5    5  501    0  0.10866449487E+03 -0.15430181575E+03 -0.54411384186E+02  0.19646809288E+03  0.47000000000E+01 0. -1.
        -11    1    6    6    0    0 -0.20112719420E+01 -0.10090663383E+02 -0.24063863367E+02  0.26171286221E+02  0.00000000000E+00 0.  1.
         12    1    6    6    0    0  0.58690875015E+02 -0.20077734482E+02  0.45151376397E+02  0.76722754268E+02  0.00000000000E+00 0. -1.
         -5    1    3    3    0  503 -0.13860820970E+02  0.57571423396E+02 -0.53999872058E+02  0.80278685416E+02  0.47000000000E+01 0.  1.
         11    1    4    4    0    0 -0.96718306307E+02  0.82934754294E+02 -0.33919754741E+02  0.13184518955E+03  0.00000000000E+00 0. -1.
        -12    1    4    4    0    0 -0.54764970661E+02  0.43964035927E+02  0.58480382845E+02  0.91389242497E+02  0.00000000000E+00 0.  1.
</event>
<event>
12    1  0.1050869E+000  0.1997465E+03  0.7818608E-02  0.1150433E+00
         21   -1    0    0  503  502  0.00000000000E+00  0.00000000000E+00  0.16712621212E+03  0.16712621212E+03  0.00000000000E+00 0. -1.
         21   -1    0    0  501  503 -0.00000000000E+00 -0.00000000000E+00 -0.23615202824E+03  0.23615202824E+03  0.00000000000E+00 0. -1.
          6    2    1    2  501    0  0.95786439581E+02  0.17762801559E+02 -0.38704090162E+02  0.20124342464E+03  0.17178576844E+03 0.  0.
         24    2    3    3    0    0  0.80354409654E+02 -0.45905188990E+02  0.13467241416E+01  0.12431541742E+03  0.82996336158E+02 0.  0.
         -6    2    1    2    0  502 -0.95786439581E+02 -0.17762801559E+02 -0.30321725956E+02  0.20203481572E+03  0.17437918618E+03 0.  0.
        -24    2    5    5    0    0  0.18495497678E+02 -0.16317752019E+02 -0.14560631759E+02  0.86566415536E+02  0.81690757348E+02 0.  0.
          5    1    3    3  501    0  0.15432029927E+02  0.63667990549E+02 -0.40050814303E+02  0.76928007218E+02  0.47000000000E+01 0. -1.
        -13    1    4    4    0    0  0.68069463488E+02 -0.16013649212E+02 -0.32853975065E+02  0.77261067157E+02  0.00000000000E+00 0.  1.
         14    1    4    4    0    0  0.12284946166E+02 -0.29891539778E+02  0.34200699206E+02  0.47054350264E+02  0.00000000000E+00 0. -1.
         -5    1    5    5    0  502 -0.11428193726E+03 -0.14450495393E+01 -0.15761094196E+02  0.11546840019E+03  0.47000000000E+01 0.  1.
         11    1    6    6    0    0 -0.18822275212E+02 -0.20336678179E+02  0.21072364097E+02  0.34812397966E+02  0.00000000000E+00 0. -1.
        -12    1    6    6    0    0  0.37317772890E+02  0.40189261597E+01 -0.35632995856E+02  0.51754017570E+02  0.00000000000E+00 0.  1.
</event>
<event>
12    1  0.1050869E+000  0.2360037E+03  0.7818608E-02  0.1122613E+00
         21   -1    0    0  501  502  0.00000000000E+00  0.00000000000E+00  0.48202448655E+03  0.48202448655E+03  0.00000000000E+00 0.  1.
         21   -1    0    0  502  503 -0.00000000000E+00 -0.00000000000E+00 -0.11671768096E+03  0.11671768096E+03  0.00000000000E+00 0.  1.
         -6    2    1    2    0  503 -0.11619233689E+02  0.16087696467E+03  0.14799357024E+03  0.27792637556E+03  0.17124417960E+03 0.  0.
        -24    2    3    3    0    0  0.14453477112E+02  0.42719396539E+02  0.69846985755E+01  0.92059248171E+02  0.79951668641E+02 0.  0.
          6    2    1    2  501    0  0.11619233689E+02 -0.16087696467E+03  0.21731323536E+03  0.32081579196E+03  0.17228269139E+03 0.  0.
         24    2    5    5    0    0 -0.23659607760E+02 -0.62963760317E+02  0.18148922158E+03  0.21064754697E+03  0.83125443399E+02 0.  0.
          5    1    5    5  501    0  0.35278841449E+02 -0.97913204354E+02  0.35824013776E+02  0.11016824499E+03  0.47000000000E+01 0. -1.
        -13    1    6    6    0    0 -0.43854326415E+02 -0.29068702668E+02  0.47201386143E+02  0.70683536088E+02  0.00000000000E+00 0.  1.
         14    1    6    6    0    0  0.20194718655E+02 -0.33895057649E+02  0.13428783544E+03  0.13996401088E+03  0.00000000000E+00 0. -1.
         -5    1    3    3    0  503 -0.26072710801E+02  0.11815756813E+03  0.14100887166E+03  0.18586712739E+03  0.47000000000E+01 0.  1.
         13    1    4    4    0    0  0.40043253150E+02  0.35188935454E+02  0.25990424572E+02  0.59306200946E+02  0.00000000000E+00 0. -1.
        -14    1    4    4    0    0 -0.25589776039E+02  0.75304610844E+01 -0.19005725997E+02  0.32753047225E+02  0.00000000000E+00 0.  1.
</event>
<event>
12    1  0.1050869E+000  0.1771802E+03  0.7818608E-02  0.1171601E+00
         21   -1    0    0  503  502  0.00000000000E+00  0.00000000000E+00  0.19724454912E+03  0.19724454912E+03  0.00000000000E+00 0.  1.
         21   -1    0    0  501  503 -0.00000000000E+00 -0.00000000000E+00 -0.15545838949E+03  0.15545838949E+03  0.00000000000E+00 0.  1.
          6    2    1    2  501    0 -0.50877881876E+01  0.12423454501E+02  0.18824789047E+02  0.17404115898E+03  0.17249847688E+03 0.  0.
         24    2    3    3    0    0  0.37651210862E+02  0.50712342758E+02  0.44789766374E+02  0.11088317412E+03  0.79370017913E+02 0.  0.
         -6    2    1    2    0  502  0.50877881876E+01 -0.12423454501E+02  0.22961370576E+02  0.17866177963E+03  0.17667082145E+03 0.  0.
        -24    2    5    5    0    0  0.50166707353E+01  0.57557371090E+02  0.39349460879E+02  0.10663414249E+03  0.80526035056E+02 0.  0.
          5    1    3    3  501    0 -0.42738999050E+02 -0.38288888257E+02 -0.25964977327E+02  0.63157984858E+02  0.47000000000E+01 0. -1.
        -11    1    4    4    0    0 -0.41606096090E+01 -0.37102259552E+01  0.41819233336E+02  0.42189154125E+02  0.00000000000E+00 0.  1.
         12    1    4    4    0    0  0.41811820471E+02  0.54422568713E+02  0.29705330381E+01  0.68694019994E+02  0.00000000000E+00 0. -1.
         -5    1    5    5    0  502  0.71117452296E-01 -0.69980825591E+02 -0.16388090303E+02  0.72027637140E+02  0.47000000000E+01 0.  1.
         11    1    6    6    0    0  0.16712925558E+02  0.45498410607E+02  0.61833487575E+02  0.78567216027E+02  0.00000000000E+00 0. -1.
        -12    1    6    6    0    0 -0.11696254823E+02  0.12058960483E+02 -0.22484026696E+02  0.28066926467E+02  0.00000000000E+00 0.  1.
</event>
<event>
12    1  0.1050869E+000  0.2870067E+03  0.7818608E-02  0.1092140E+00
         21   -1    0    0  501  502  0.00000000000E+00  0.00000000000E+00  0.20817792348E+03  0.20817792348E+03  0.00000000000E+00 0.  1.
         21   -1    0    0  502  503 -0.00000000000E+00 -0.00000000000E+00 -0.42366450368E+03  0.42366450368E+03  0.00000000000E+00 0.  1.
         -6    2    1    2    0  503  0.22923436490E+03  0.11699835914E+01 -0.19184951422E+03  0.34386398435E+03  0.16996011507E+03 0.  0.
        -24    2    3    3    0    0  0.71814765587E+02  0.44416057220E+02 -0.41452102485E+02  0.12184456045E+03  0.77444647431E+02 0.  0.
          6    2    1    2  501    0 -0.22923436490E+03 -0.11699835914E+01 -0.23637065977E+02  0.28797844281E+03  0.17269368757E+03 0.  0.
         24    2    5    5    0    0 -0.24606419745E+03 -0.14330815466E+02 -0.37919779833E+02  0.26185303996E+03  0.79850756398E+02 0.  0.
          5    1    5    5  501    0  0.16829832546E+02  0.13160831874E+02  0.14282713856E+02  0.26125402853E+02  0.47000000000E+01 0. -1.
        -11    1    6    6    0    0 -0.17629727435E+03 -0.23889205750E+02 -0.60481975226E+02  0.18790820211E+03  0.00000000000E+00 0.  1.
         12    1    6    6    0    0 -0.69766923101E+02  0.95583902845E+01  0.22562195393E+02  0.73944837851E+02  0.00000000000E+00 0. -1.
         -5    1    3    3    0  503  0.15741959931E+03 -0.43246073629E+02 -0.15039741174E+03  0.22201942390E+03  0.47000000000E+01 0.  1.
         11    1    4    4    0    0  0.11671496223E+02 -0.18729040592E+02 -0.24562868710E+02  0.33020225693E+02  0.00000000000E+00 0. -1.
        -12    1    4    4    0    0  0.60143269365E+02  0.63145097813E+02 -0.16889233775E+02  0.88824334758E+02  0.00000000000E+00 0.  1.
</event>
<event>
12    1  0.1050869E+000  0.2273438E+03  0.7818608E-02  0.1128599E+00
         21   -1    0    0  503  502  0.00000000000E+00  0.00000000000E+00  0.72450076348E+03  0.72450076348E+03  0.00000000000E+00 0.  1.
         21   -1    0    0  501  503 -0.00000000000E+00 -0.00000000000E+00 -0.76832499213E+02  0.76832499213E+02  0.00000000000E+00 0.  1.
          6    2    1    2  501    0 -0.95325117409E+02  0.11371019719E+03  0.43197129994E+03  0.48794793506E+03  0.17168895248E+03 0.  0.
         24    2    3    3    0    0 -0.50421038279E+02  0.93031713567E+02  0.14348006325E+03  0.19521382421E+03  0.79528157166E+02 0.  0.
         -6    2    1    2    0  502  0.95325117409E+02 -0.11371019719E+03  0.21569696432E+03  0.31338532763E+03  0.17224487278E+03 0.  0.
        -24    2    5    5    0    0  0.48145836930E+02 -0.14280186767E+03  0.16005830817E+03  0.23470902970E+03  0.82214789337E+02 0.  0.
          5    1    3    3  501    0 -0.44904079130E+02  0.20678483625E+02  0.28849123670E+03  0.29273411086E+03  0.47000000000E+01 0. -1.
        -11    1    4    4    0    0 -0.31990464724E+02 -0.51397761070E+01  0.38161974240E+02  0.50061396400E+02  0.00000000000E+00 0.  1.
         12    1    4    4    0    0 -0.18430573556E+02  0.98171489674E+02  0.10531808901E+03  0.14515242781E+03  0.00000000000E+00 0. -1.
         -5    1    5    5    0  502  0.47179280479E+02  0.29091670472E+02  0.55638656149E+02  0.78676297927E+02  0.47000000000E+01 0.  1.
         11    1    6    6    0    0 -0.64444532462E+01 -0.64187421051E+02  0.25018968260E+02  0.69191796997E+02  0.00000000000E+00 0. -1.
        -12    1    6    6    0    0  0.54590290176E+02 -0.78614446614E+02  0.13503933991E+03  0.16551723270E+03  0.00000000000E+00 0.  1.
</event>
<event>
12    1  0.1050869E+000  0.1777423E+03  0.7818608E-02  0.1170013E+00
         21   -1    0    0  501  502  0.00000000000E+00  0.00000000000E+00  0.57999078048E+02  0.57999078048E+02  0.00000000000E+00 0.  1.
         21   -1    0    0  502  503 -0.00000000000E+00 -0.00000000000E+00 -0.54463120342E+03  0.54463120342E+03  0.00000000000E+00 0.  1.
         -6    2    1    2    0  503  0.46388524457E+02  0.13225200873E+02 -0.24456582622E+03  0.30231642689E+03  0.17104378818E+03 0.  0.
        -24    2    3    3    0    0  0.18912196000E+02  0.55070143960E+02 -0.22926044840E+03  0.24975891099E+03  0.80179601554E+02 0.  0.
          6    2    1    2  501    0 -0.46388524457E+02 -0.13225200873E+02 -0.24206629915E+03  0.30031385458E+03  0.17107167190E+03 0.  0.
         24    2    5    5    0    0  0.17860688262E+01  0.49552494036E+02 -0.16644774677E+03  0.19075982279E+03  0.78903852123E+02 0.  0.
          5    1    5    5  501    0 -0.48174593283E+02 -0.62777694910E+02 -0.75618552385E+02  0.10955403179E+03  0.47000000000E+01 0. -1.
        -11    1    6    6    0    0  0.36069062221E+02  0.44092754964E+02 -0.86171919607E+02  0.10329931277E+03  0.00000000000E+00 0.  1.
         12    1    6    6    0    0 -0.34282993395E+02  0.54597390723E+01 -0.80275827159E+02  0.87460510020E+02  0.00000000000E+00 0. -1.
         -5    1    3    3    0  503  0.27476328457E+02 -0.41844943086E+02 -0.15305377819E+02  0.52557515900E+02  0.47000000000E+01 0.  1.
         13    1    4    4    0    0  0.48575285382E+02  0.26719844571E+02 -0.15908062455E+03  0.16846410167E+03  0.00000000000E+00 0. -1.
        -14    1    4    4    0    0 -0.29663089381E+02  0.28350299388E+02 -0.70179823849E+02  0.81294809321E+02  0.00000000000E+00 0.  1.
</event>
<event>
12    1  0.1050869E+000  0.1989725E+03  0.7818608E-02  0.1152837E+00
         21   -1    0    0  503  502  0.00000000000E+00  0.00000000000E+00  0.34506939078E+03  0.34506939078E+03  0.00000000000E+00 0.  1.
         21   -1    0    0  501  503 -0.00000000000E+00 -0.00000000000E+00 -0.34764912334E+03  0.34764912334E+03  0.00000000000E+00 0.  1.
          6    2    1    2  501    0  0.55990875069E+02 -0.49615351126E+02  0.28570600980E+03  0.34243474000E+03  0.17331175945E+03 0.  0.
         24    2    3    3    0    0  0.44240500173E+02 -0.50741806646E+02  0.70219743300E+02  0.12657422656E+03  0.80983144436E+02 0.  0.
         -6    2    1    2    0  502 -0.55990875069E+02  0.49615351126E+02 -0.28828574236E+03  0.35028377412E+03  0.18437296983E+03 0.  0.
        -24    2    5    5    0    0 -0.22875248412E+00 -0.41720539225E+02 -0.11085783702E+03  0.14302931512E+03  0.80170251553E+02 0.  0.
          5    1    3    3  501    0  0.11750374896E+02  0.11264555199E+01  0.21548626650E+03  0.21586051344E+03  0.47000000000E+01 0. -1.
        -13    1    4    4    0    0  0.15354599283E+02  0.71582839801E+01 -0.12860211159E+02  0.21269456498E+02  0.00000000000E+00 0.  1.
         14    1    4    4    0    0  0.28885900890E+02 -0.57900090626E+02  0.83079954459E+02  0.10530477006E+03  0.00000000000E+00 0. -1.
         -5    1    5    5    0  502 -0.55762122585E+02  0.91335890351E+02 -0.17742790534E+03  0.20725445899E+03  0.47000000000E+01 0.  1.
         13    1    6    6    0    0  0.27322793886E+01  0.24174503218E+02 -0.27141008114E+02  0.36448680057E+02  0.00000000000E+00 0. -1.
        -14    1    6    6    0    0 -0.29610318727E+01 -0.65895042442E+02 -0.83716828909E+02  0.10658063506E+03  0.00000000000E+00 0.  1.
</event>
<event>
12    1  0.1050869E+000  0.2211728E+03  0.7818608E-02  0.1133204E+00
         21   -1    0    0  503  502  0.00000000000E+00  0.00000000000E+00  0.17351952284E+03  0.17351952284E+03  0.00000000000E+00 0.  1.
         21   -1    0    0  501  503 -0.00000000000E+00 -0.00000000000E+00 -0.37742198296E+03  0.37742198296E+03  0.00000000000E+00 0.  1.
          6    2    1    2  501    0  0.62884620939E+02  0.12635913466E+03  0.37753344221E+02  0.22335189496E+03  0.16893681517E+03 0.  0.
         24    2    3    3    0    0  0.17291880061E+02  0.11322026440E+03  0.79260265084E+02  0.16013605508E+03  0.79016005513E+02 0.  0.
         -6    2    1    2    0  502 -0.62884620939E+02 -0.12635913466E+03 -0.24165580435E+03  0.32758961084E+03  0.17028305523E+03 0.  0.
        -24    2    5    5    0    0  0.62465090839E+01 -0.10302751130E+03 -0.87276613127E+02  0.15677244991E+03  0.79414777550E+02 0.  0.
          5    1    3    3  501    0  0.45592740878E+02  0.13138870255E+02 -0.41506920863E+02  0.63215839881E+02  0.47000000000E+01 0. -1.
        -13    1    4    4    0    0  0.45733026920E+02  0.61048210422E+02  0.61890989621E+02  0.98228755175E+02  0.00000000000E+00 0.  1.
         14    1    4    4    0    0 -0.28441146859E+02  0.52172053979E+02  0.17369275463E+02  0.61907299902E+02  0.00000000000E+00 0. -1.
         -5    1    5    5    0  502 -0.69131130023E+02 -0.23331623359E+02 -0.15437919122E+03  0.17081716093E+03  0.47000000000E+01 0.  1.
         11    1    6    6    0    0 -0.27981156498E+02 -0.88868284551E+02 -0.61141513274E+02  0.11143967769E+03  0.00000000000E+00 0. -1.
        -12    1    6    6    0    0  0.34227665582E+02 -0.14159226746E+02 -0.26135099853E+02  0.45332772225E+02  0.00000000000E+00 0.  1.
</event>
<event>
12    1  0.1050869E+000  0.2094597E+03  0.7818608E-02  0.1142159E+00
         21   -1    0    0  503  502  0.00000000000E+00  0.00000000000E+00  0.22915440530E+03  0.22915440530E+03  0.00000000000E+00 0. -1.
         21   -1    0    0  501  503 -0.00000000000E+00 -0.00000000000E+00 -0.22885698858E+03  0.22885698858E+03  0.00000000000E+00 0. -1.
          6    2    1    2  501    0 -0.92326727472E+02 -0.74963155942E+02  0.93651710433E+02  0.22944284649E+03  0.17242296130E+03 0.  0.
         24    2    3    3    0    0 -0.13139577651E+03 -0.59541021646E+02  0.60224005674E+02  0.17555653779E+03  0.79894829361E+02 0.  0.
         -6    2    1    2    0  502  0.92326727472E+02  0.74963155942E+02 -0.93354293707E+02  0.22856854739E+03  0.17142011943E+03 0.  0.
        -24    2    5    5    0    0  0.65689298101E+01  0.49960954040E+02  0.69520651669E+01  0.94170014693E+02  0.79249054820E+02 0.  0.
          5    1    3    3  501    0  0.39069049042E+02 -0.15422134296E+02  0.33427704759E+02  0.53886308695E+02  0.47000000000E+01 0. -1.
        -11    1    4    4    0    0 -0.26836831746E+02  0.78426664589E+01  0.41093357613E+02  0.49702987790E+02  0.00000000000E+00 0.  1.
         12    1    4    4    0    0 -0.10455894477E+03 -0.67383688105E+02  0.19130648062E+02  0.12585355000E+03  0.00000000000E+00 0. -1.
         -5    1    5    5    0  502  0.85757797662E+02  0.25002201902E+02 -0.10030635887E+03  0.13439853269E+03  0.47000000000E+01 0.  1.
         13    1    6    6    0    0 -0.97708607043E+01  0.65337813602E+02  0.18946985167E+02  0.68727635287E+02  0.00000000000E+00 0. -1.
        -14    1    6    6    0    0  0.16339790514E+02 -0.15376859563E+02 -0.11994920000E+02  0.25442379406E+02  0.00000000000E+00 0.  1.
</event>
<event>
12    1  0.1050869E+000  0.1792862E+03  0.7818608E-02  0.1168678E+00
         21   -1    0    0  503  502  0.00000000000E+00  0.00000000000E+00  0.34710497845E+02  0.34710497845E+02  0.00000000000E+00 0.  1.
         21   -1    0    0  501  503 -0.00000000000E+00 -0.00000000000E+00 -0.10355708627E+04  0.10355708627E+04  0.00000000000E+00 0.  1.
          6    2    1    2  501    0  0.49154026784E+02  0.18758308162E+02 -0.32428418947E+03  0.37054524400E+03  0.17139296903E+03 0.  0.
         24    2    3    3    0    0 -0.18255775810E+01  0.66087561272E+02 -0.23671240373E+03  0.25860827102E+03  0.80464757943E+02 0.  0.
         -6    2    1    2    0  502 -0.49154026784E+02 -0.18758308162E+02 -0.67657617543E+03  0.69973611660E+03  0.17060867280E+03 0.  0.
        -24    2    5    5    0    0 -0.77312296843E+02  0.33645213380E+02 -0.52482213314E+03  0.53667049608E+03  0.73944291895E+02 0.  0.
          5    1    3    3  501    0  0.50979604365E+02 -0.47329253111E+02 -0.87571785737E+02  0.11193697297E+03  0.47000000000E+01 0. -1.
        -13    1    4    4    0    0  0.21140970039E+02  0.76168462345E+02 -0.17799711791E+03  0.19476023530E+03  0.00000000000E+00 0.  1.
         14    1    4    4    0    0 -0.22966547620E+02 -0.10080901073E+02 -0.58715285828E+02  0.63848035724E+02  0.00000000000E+00 0. -1.
         -5    1    5    5    0  502  0.28158270059E+02 -0.52403521542E+02 -0.15175404230E+03  0.16306562052E+03  0.47000000000E+01 0.  1.
         13    1    6    6    0    0 -0.85612547108E+02  0.42582354399E+02 -0.40070097431E+03  0.41195149707E+03  0.00000000000E+00 0. -1.
        -14    1    6    6    0    0  0.83002502653E+01 -0.89371410189E+01 -0.12412115883E+03  0.12471899901E+03  0.00000000000E+00 0.  1.
</event>
<event>
12    1  0.1050869E+000  0.1741394E+03  0.7818608E-02  0.1173931E+00
         21   -1    0    0  503  502  0.00000000000E+00  0.00000000000E+00  0.17618924687E+03  0.17618924687E+03  0.00000000000E+00 0. -1.
         21   -1    0    0  501  503 -0.00000000000E+00 -0.00000000000E+00 -0.17117299787E+03  0.17117299787E+03  0.00000000000E+00 0. -1.
          6    2    1    2  501    0 -0.16279930128E+02  0.10491566016E+02 -0.53648979716E+01  0.17422204157E+03  0.17305903199E+03 0.  0.
         24    2    3    3    0    0  0.12004565902E+02  0.68925951095E+02 -0.18000924503E+02  0.10791707009E+03  0.80169597714E+02 0.  0.
         -6    2    1    2    0  502  0.16279930128E+02 -0.10491566016E+02  0.10381146972E+02  0.17314020317E+03  0.17174007296E+03 0.  0.
        -24    2    5    5    0    0 -0.15746539572E+02 -0.66036189816E+02 -0.88992961404E+01  0.10602295143E+03  0.80950212378E+02 0.  0.
          5    1    3    3  501    0 -0.28284496031E+02 -0.58434385080E+02  0.12636026532E+02  0.66304971472E+02  0.47000000000E+01 0. -1.
        -13    1    4    4    0    0  0.93945225249E+01 -0.16989961543E+02 -0.92861042228E+01  0.21520863791E+02  0.00000000000E+00 0.  1.
         14    1    4    4    0    0  0.26100433773E+01  0.85915912638E+02 -0.87148202805E+01  0.86396206302E+02  0.00000000000E+00 0. -1.
         -5    1    5    5    0  502  0.32026469700E+02  0.55544623801E+02  0.19280443113E+02  0.67117251741E+02  0.47000000000E+01 0.  1.
         11    1    6    6    0    0 -0.33505989219E+02 -0.42429984095E+02  0.26257134489E+02  0.60103177748E+02  0.00000000000E+00 0. -1.
        -12    1    6    6    0    0  0.17759449647E+02 -0.23606205722E+02 -0.35156430629E+02  0.45919773681E+02  0.00000000000E+00 0.  1.
</event>
<event>
12    1  0.1050869E+000  0.2637073E+03  0.7818608E-02  0.1105014E+00
         21   -1    0    0  501  502  0.00000000000E+00  0.00000000000E+00  0.13387377689E+04  0.13387377689E+04  0.00000000000E+00 0. -1.
         21   -1    0    0  502  503 -0.00000000000E+00 -0.00000000000E+00 -0.61305695788E+02  0.61305695788E+02  0.00000000000E+00 0.  1.
         -6    2    1    2    0  503  0.15637170610E+03 -0.12158944751E+03  0.91322008989E+03  0.95038593329E+03  0.17328123213E+03 0.  0.
        -24    2    3    3    0    0  0.65403827227E+02 -0.13539355504E+03  0.63334643643E+03  0.65573858429E+03  0.79096820604E+02 0.  0.
          6    2    1    2  501    0 -0.15637170610E+03  0.12158944751E+03  0.36421198321E+03  0.44965753138E+03  0.17408452718E+03 0.  0.
         24    2    5    5    0    0 -0.87398099420E+02  0.11281811578E+03  0.14240071722E+03  0.21715673053E+03  0.80701464160E+02 0.  0.
          5    1    5    5  501    0 -0.68973606680E+02  0.87713317224E+01  0.22181126599E+03  0.23250080085E+03  0.47000000000E+01 0. -1.
        -11    1    6    6    0    0 -0.92839239911E+02  0.11081362869E+03  0.10342314635E+03  0.17775019542E+03  0.00000000000E+00 0.  1.
         12    1    6    6    0    0  0.54411404915E+01  0.20044870947E+01  0.38977570869E+02  0.39406535108E+02  0.00000000000E+00 0. -1.
         -5    1    3    3    0  503  0.90967878873E+02  0.13804107531E+02  0.27987365346E+03  0.29464734900E+03  0.47000000000E+01 0.  1.
         11    1    4    4    0    0  0.74156013378E+02 -0.85801780587E+02  0.51101348126E+03  0.52344611748E+03  0.00000000000E+00 0. -1.
        -12    1    4    4    0    0 -0.87521861504E+01 -0.49591774450E+02  0.12233295517E+03  0.13229246681E+03  0.00000000000E+00 0.  1.
</event>
<event>
12    1  0.1050869E+000  0.1796030E+03  0.7818608E-02  0.1168340E+00
         21   -1    0    0  501  502  0.00000000000E+00  0.00000000000E+00  0.10953064175E+03  0.10953064175E+03  0.00000000000E+00 0. -1.
         21   -1    0    0  502  503 -0.00000000000E+00 -0.00000000000E+00 -0.30057806074E+03  0.30057806074E+03  0.00000000000E+00 0. -1.
         -6    2    1    2    0  503 -0.81131027739E+01 -0.49742669712E+02 -0.64176332805E+02  0.19072450842E+03  0.17238642867E+03 0.  0.
        -24    2    3    3    0    0  0.42675342925E+02 -0.78777017981E+01 -0.78025963672E+02  0.12330015058E+03  0.85039008964E+02 0.  0.
          6    2    1    2  501    0  0.81131027739E+01  0.49742669712E+02 -0.12687108619E+03  0.21938419407E+03  0.17173525111E+03 0.  0.
         24    2    5    5    0    0 -0.50867391511E+02  0.51188043323E+02 -0.11776684801E+03  0.15950293687E+03  0.79777497351E+02 0.  0.
          5    1    5    5  501    0  0.58980494285E+02 -0.14453736103E+01 -0.91042381796E+01  0.59881257200E+02  0.47000000000E+01 0. -1.
        -11    1    6    6    0    0  0.21715562703E+02  0.14647134424E+02 -0.25561311275E+02  0.36598973270E+02  0.00000000000E+00 0.  1.
         12    1    6    6    0    0 -0.72582954214E+02  0.36540908899E+02 -0.92205536731E+02  0.12290396360E+03  0.00000000000E+00 0. -1.
         -5    1    3    3    0  503 -0.50788445699E+02 -0.41864967914E+02  0.13849630868E+02  0.67424357840E+02  0.47000000000E+01 0.  1.
         11    1    4    4    0    0  0.62276288961E+02  0.11403449373E+02 -0.35287810326E+02  0.72481752062E+02  0.00000000000E+00 0. -1.
        -12    1    4    4    0    0 -0.19600946036E+02 -0.19281151172E+02 -0.42738153347E+02  0.50818398514E+02  0.00000000000E+00 0.  1.
</event>
<event>
12    1  0.1050869E+000  0.2845796E+03  0.7818608E-02  0.1093269E+00
         21   -1    0    0  503  502  0.00000000000E+00  0.00000000000E+00  0.11108704364E+04  0.11108704364E+04  0.00000000000E+00 0. -1.
         21   -1    0    0  501  503 -0.00000000000E+00 -0.00000000000E+00 -0.85618069789E+02  0.85618069789E+02  0.00000000000E+00 0.  1.
          6    2    1    2  501    0  0.22096261277E+03 -0.50311305131E+02  0.74381567129E+03  0.79624835105E+03  0.17144672653E+03 0.  0.
         24    2    3    3    0    0  0.13890261914E+03  0.39649525689E+02  0.47912395053E+03  0.50485413238E+03  0.66722653751E+02 0.  0.
         -6    2    1    2    0  502 -0.22096261277E+03  0.50311305131E+02  0.28143669531E+03  0.40024015512E+03  0.17213327580E+03 0.  0.
        -24    2    5    5    0    0 -0.69233368705E+02  0.48285163170E+02  0.57043272815E+02  0.12931513447E+03  0.79647678592E+02 0.  0.
          5    1    3    3  501    0  0.82059993626E+02 -0.89960830820E+02  0.26469172076E+03  0.29139421867E+03  0.47000000000E+01 0. -1.
        -13    1    4    4    0    0  0.24402850440E+02 -0.18561354072E+02  0.94465180891E+02  0.99316128475E+02  0.00000000000E+00 0.  1.
         14    1    4    4    0    0  0.11449976870E+03  0.58210879761E+02  0.38465876964E+03  0.40553800391E+03  0.00000000000E+00 0. -1.
         -5    1    5    5    0  502 -0.15172924406E+03  0.20261419604E+01  0.22439342249E+03  0.27092502065E+03  0.47000000000E+01 0.  1.
         11    1    6    6    0    0 -0.58493635584E+02  0.16260081902E+02  0.70426320861E+02  0.92982591583E+02  0.00000000000E+00 0. -1.
        -12    1    6    6    0    0 -0.10739733121E+02  0.32025081268E+02 -0.13383048046E+02  0.36332542888E+02  0.00000000000E+00 0.  1.
</event>
<event>
12    1  0.1050869E+000  0.1763490E+03  0.7818608E-02  0.1171827E+00
         21   -1    0    0  501  502  0.00000000000E+00  0.00000000000E+00  0.36754773363E+02  0.36754773363E+02  0.00000000000E+00 0.  1.
         21   -1    0    0  502  503 -0.00000000000E+00 -0.00000000000E+00 -0.11085956901E+04  0.11085956901E+04  0.00000000000E+00 0.  1.
         -6    2    1    2    0  503 -0.22792748974E+02  0.23455188088E+02 -0.25484842987E+03  0.30991401493E+03  0.17328969731E+03 0.  0.
        -24    2    3    3    0    0 -0.67606686935E+02  0.21620587492E+02 -0.92253977485E+02  0.14118138401E+03  0.79895387264E+02 0.  0.
          6    2    1    2  501    0  0.22792748974E+02 -0.23455188088E+02 -0.81699248686E+03  0.83543644852E+03  0.17148667783E+03 0.  0.
         24    2    5    5    0    0  0.53067637761E+02  0.11071550749E+02 -0.73512561646E+03  0.74145273156E+03  0.80023294961E+02 0.  0.
          5    1    5    5  501    0 -0.30274888787E+02 -0.34526738836E+02 -0.81866870397E+02  0.93983716964E+02  0.47000000000E+01 0. -1.
        -11    1    6    6    0    0  0.11021544885E+02  0.36112219853E+02 -0.16660408160E+03  0.17082882333E+03  0.00000000000E+00 0.  1.
         12    1    6    6    0    0  0.42046092875E+02 -0.25040669104E+02 -0.56852153486E+03  0.57062390823E+03  0.00000000000E+00 0. -1.
         -5    1    3    3    0  503  0.44813937961E+02  0.18346005957E+01 -0.16259445238E+03  0.16873263093E+03  0.47000000000E+01 0.  1.
         11    1    4    4    0    0 -0.62247201596E+02  0.27236697918E+02 -0.10570047635E+03  0.12565485474E+03  0.00000000000E+00 0. -1.
        -12    1    4    4    0    0 -0.53594853392E+01 -0.56161104259E+01  0.13446498861E+02  0.15526529265E+02  0.00000000000E+00 0.  1.
</event>
<event>
12    1  0.1050869E+000  0.3101463E+03  0.7818608E-02  0.1080790E+00
         21   -1    0    0  501  502  0.00000000000E+00  0.00000000000E+00  0.84683634659E+03  0.84683634659E+03  0.00000000000E+00 0.  1.
         21   -1    0    0  502  503 -0.00000000000E+00 -0.00000000000E+00 -0.11872920159E+03  0.11872920159E+03  0.00000000000E+00 0.  1.
         -6    2    1    2    0  503 -0.17754855034E+03 -0.18551687808E+03  0.25178545898E+03  0.39948294597E+03  0.17392730373E+03 0.  0.
        -24    2    3    3    0    0 -0.16611241946E+03 -0.89132602098E+02  0.12266495995E+03  0.23788187228E+03  0.77479907750E+02 0.  0.
          6    2    1    2  501    0  0.17754855034E+03  0.18551687808E+03  0.47632168602E+03  0.56608260221E+03  0.16621421171E+03 0.  0.
         24    2    5    5    0    0  0.19198844951E+03  0.17823837608E+03  0.38012889952E+03  0.46842693441E+03  0.79355712959E+02 0.  0.
          5    1    5    5  501    0 -0.14439899169E+02  0.72785020056E+01  0.96192786499E+02  0.97655667803E+02  0.47000000000E+01 0. -1.
        -11    1    6    6    0    0 -0.52472046758E+01  0.19794756875E+02  0.23453616540E+02  0.31135794280E+02  0.00000000000E+00 0.  1.
         12    1    6    6    0    0  0.19723565418E+03  0.15844361920E+03  0.35667528298E+03  0.43729114013E+03  0.00000000000E+00 0. -1.
         -5    1    3    3    0  503 -0.11436130882E+02 -0.96384275985E+02  0.12912049903E+03  0.16160107369E+03  0.47000000000E+01 0.  1.
         13    1    4    4    0    0 -0.61363437596E+02  0.27306391988E+01  0.19244865607E+02  0.64368413964E+02  0.00000000000E+00 0. -1.
        -14    1    4    4    0    0 -0.10474898186E+03 -0.91863241297E+02  0.10342009435E+03  0.17351345832E+03  0.00000000000E+00 0.  1.
</event>
<event>
12    1  0.1050869E+000  0.1748358E+03  0.7818608E-02  0.1173049E+00
         21   -1    0    0  503  502  0.00000000000E+00  0.00000000000E+00  0.59741676453E+02  0.59741676453E+02  0.00000000000E+00 0.  1.
         21   -1    0    0  501  503 -0.00000000000E+00 -0.00000000000E+00 -0.52556119589E+03  0.52556119589E+03  0.00000000000E+00 0.  1.
          6    2    1    2  501    0  0.31098562292E+02  0.99289710451E+01 -0.18277625663E+03  0.25293224241E+03  0.17176103814E+03 0.  0.
         24    2    3    3    0    0  0.87016584236E+02  0.46811294240E+01 -0.94800627597E+02  0.14845178336E+03  0.73871334668E+02 0.  0.
         -6    2    1    2    0  502 -0.31098562292E+02 -0.99289710451E+01 -0.28304326281E+03  0.33237062993E+03  0.17114625902E+03 0.  0.
        -24    2    5    5    0    0  0.11152148699E+02 -0.63748226423E+02 -0.19887315466E+03  0.22379654493E+03  0.79662758455E+02 0.  0.
          5    1    3    3  501    0 -0.55918021944E+02  0.52478416211E+01 -0.87975629033E+02  0.10448045905E+03  0.47000000000E+01 0. -1.
        -13    1    4    4    0    0  0.31524780753E+02  0.38105362559E+02 -0.40419250415E+02  0.63871325815E+02  0.00000000000E+00 0.  1.
         14    1    4    4    0    0  0.55491803483E+02 -0.33424233136E+02 -0.54381377182E+02  0.84580457546E+02  0.00000000000E+00 0. -1.
         -5    1    5    5    0  502 -0.42250710991E+02  0.53819255377E+02 -0.84170108148E+02  0.10857408500E+03  0.47000000000E+01 0.  1.
         13    1    6    6    0    0 -0.23916085799E+02  0.51062190633E+01 -0.35963910032E+02  0.43490866373E+02  0.00000000000E+00 0. -1.
        -14    1    6    6    0    0  0.35068234498E+02 -0.68854445486E+02 -0.16290924463E+03  0.18030567855E+03  0.00000000000E+00 0.  1.
</event>
<event>
12    1  0.1050869E+000  0.2063345E+03  0.7818608E-02  0.1144510E+00
         21   -1    0    0  503  502  0.00000000000E+00  0.00000000000E+00  0.52961588726E+03  0.52961588726E+03  0.00000000000E+00 0.  1.
         21   -1    0    0  501  503 -0.00000000000E+00 -0.00000000000E+00 -0.80566815550E+02  0.80566815550E+02  0.00000000000E+00 0.  1.
          6    2    1    2  501    0 -0.82597586635E+02 -0.84733872096E+02  0.23956534746E+03  0.31617315057E+03  0.16903169832E+03 0.  0.
         24    2    3    3    0    0 -0.74067530199E+01 -0.83264703789E+02  0.83243349273E+02  0.14263791774E+03  0.80176364914E+02 0.  0.
         -6    2    1    2    0  502  0.82597586635E+02  0.84733872096E+02  0.20948372425E+03  0.29400955225E+03  0.16898519369E+03 0.  0.
        -24    2    5    5    0    0  0.55562594385E+00  0.30988706143E+02  0.41630163524E+02  0.99545329249E+02  0.84944649223E+02 0.  0.
          5    1    3    3  501    0 -0.75190833615E+02 -0.14691683064E+01  0.15632199819E+03  0.17353523283E+03  0.47000000000E+01 0. -1.
        -11    1    4    4    0    0  0.89016440806E+01  0.34578326621E+01 -0.10296805172E+02  0.14043506357E+02  0.00000000000E+00 0.  1.
         12    1    4    4    0    0 -0.16308397101E+02 -0.86722536451E+02  0.93540154445E+02  0.12859441138E+03  0.00000000000E+00 0. -1.
         -5    1    5    5    0  502  0.82041960691E+02  0.53745165952E+02  0.16785356073E+03  0.19446422300E+03  0.47000000000E+01 0.  1.
         13    1    6    6    0    0  0.26886548237E+02  0.50707437888E+02  0.29032776010E+02  0.64319770026E+02  0.00000000000E+00 0. -1.
        -14    1    6    6    0    0 -0.26330922293E+02 -0.19718731745E+02  0.12597387514E+02  0.35225559224E+02  0.00000000000E+00 0.  1.
</event>
<event>
12    1  0.1050869E+000  0.2145235E+03  0.7818608E-02  0.1138365E+00
         21   -1    0    0  501  502  0.00000000000E+00  0.00000000000E+00  0.72423393186E+02  0.72423393186E+02  0.00000000000E+00 0. -1.
         21   -1    0    0  502  503 -0.00000000000E+00 -0.00000000000E+00 -0.82834548508E+03  0.82834548508E+03  0.00000000000E+00 0.  1.
         -6    2    1    2    0  503 -0.74547432317E+02 -0.10489432814E+03 -0.59699167833E+03  0.63378723432E+03  0.16949057391E+03 0.  0.
        -24    2    3    3    0    0 -0.44977479575E+02  0.12970916356E+02 -0.27989418980E+03  0.29417053096E+03  0.77487582632E+02 0.  0.
          6    2    1    2  501    0  0.74547432317E+02  0.10489432814E+03 -0.15893041356E+03  0.26698164395E+03  0.17163968687E+03 0.  0.
         24    2    5    5    0    0  0.45453396104E+02 -0.12082583185E+02 -0.88718689460E+02  0.12740429289E+03  0.78414590185E+02 0.  0.
          5    1    5    5  501    0  0.29094036212E+02  0.11697691133E+03 -0.70211724102E+02  0.13957735106E+03  0.47000000000E+01 0. -1.
        -11    1    6    6    0    0 -0.39137330847E+01 -0.36178062903E+02 -0.32248168965E+02  0.48622154864E+02  0.00000000000E+00 0.  1.
         12    1    6    6    0    0  0.49367129189E+02  0.24095479718E+02 -0.56470520494E+02  0.78782138027E+02  0.00000000000E+00 0. -1.
         -5    1    3    3    0  503 -0.29569952742E+02 -0.11786524450E+03 -0.31709748853E+03  0.33961670335E+03  0.47000000000E+01 0.  1.
         11    1    4    4    0    0 -0.49694190545E+02 -0.22549259858E+02 -0.17647576115E+03  0.18472053478E+03  0.00000000000E+00 0. -1.
        -12    1    4    4    0    0  0.47167109708E+01  0.35520176214E+02 -0.10341842865E+03  0.10944999619E+03  0.00000000000E+00 0.  1.
</event>
<event>
12    1  0.1050869E+000  0.1767825E+03  0.7818608E-02  0.1171487E+00
         21   -1    0    0  503  502  0.00000000000E+00  0.00000000000E+00  0.30607162917E+03  0.30607162917E+03  0.00000000000E+00 0.  1.
         21   -1    0    0  501  503 -0.00000000000E+00 -0.00000000000E+00 -0.10088550467E+03  0.10088550467E+03  0.00000000000E+00 0.  1.
          6    2    1    2  501    0 -0.28202509957E+02  0.73543328690E+01  0.99864102815E+02  0.20117866083E+03  0.17219334122E+03 0.  0.
         24    2    3    3    0    0 -0.42465882502E+02  0.62888298834E+02  0.39912641639E+02  0.11808995600E+03  0.81203013733E+02 0.  0.
         -6    2    1    2    0  502  0.28202509957E+02 -0.73543328690E+01  0.10532202169E+03  0.20577847301E+03  0.17436336749E+03 0.  0.
        -24    2    5    5    0    0  0.81349356417E+02  0.19649452707E+02  0.88283292431E+02  0.14359969835E+03  0.76309336659E+02 0.  0.
          5    1    3    3  501    0  0.14263372545E+02 -0.55533965965E+02  0.59951461176E+02  0.83088704824E+02  0.47000000000E+01 0. -1.
        -13    1    4    4    0    0 -0.98496154722E+01 -0.30726147015E+01 -0.20456136695E+02  0.22910901653E+02  0.00000000000E+00 0.  1.
         14    1    4    4    0    0 -0.32616267030E+02  0.65960913536E+02  0.60368778334E+02  0.95179054350E+02  0.00000000000E+00 0. -1.
         -5    1    5    5    0  502 -0.53146846460E+02 -0.27003785576E+02  0.17038729255E+02  0.62178774664E+02  0.47000000000E+01 0.  1.
         13    1    6    6    0    0  0.53919681215E+02  0.41591011565E+02  0.27587212531E+02  0.73472434018E+02  0.00000000000E+00 0. -1.
        -14    1    6    6    0    0  0.27429675202E+02 -0.21941558858E+02  0.60696079900E+02  0.70127264327E+02  0.00000000000E+00 0.  1.
</event>
<event>
12    1  0.1050869E+000  0.1933781E+03  0.7818608E-02  0.1155786E+00
         21   -1    0    0  501  502  0.00000000000E+00  0.00000000000E+00  0.38336649904E+03  0.38336649904E+03  0.00000000000E+00 0. -1.
         21   -1    0    0  502  503 -0.00000000000E+00 -0.00000000000E+00 -0.18129973924E+03  0.18129973924E+03  0.00000000000E+00 0. -1.
         -6    2    1    2    0  503  0.64011863685E+01  0.85406534348E+02  0.29359379916E+03  0.35072165552E+03  0.17167734109E+03 0.  0.
        -24    2    3    3    0    0 -0.50055376573E+02  0.10010023983E+02  0.17471790714E+03  0.19897995071E+03  0.80379925377E+02 0.  0.
          6    2    1    2  501    0 -0.64011863685E+01 -0.85406534348E+02 -0.91527039361E+02  0.21394458277E+03  0.17337772136E+03 0.  0.
         24    2    5    5    0    0  0.52741498795E+02 -0.43051973366E+02 -0.10773081117E+02  0.10515553085E+03  0.79413401174E+02 0.  0.
          5    1    5    5  501    0 -0.59142685163E+02 -0.42354560983E+02 -0.80753958244E+02  0.10878905191E+03  0.47000000000E+01 0. -1.
        -13    1    6    6    0    0  0.22149929237E+02 -0.48997655349E+02  0.23631178321E+02  0.58735186930E+02  0.00000000000E+00 0.  1.
         14    1    6    6    0    0  0.30591569558E+02  0.59456819835E+01 -0.34404259438E+02  0.46420343921E+02  0.00000000000E+00 0. -1.
         -5    1    3    3    0  503  0.56456562941E+02  0.75396510365E+02  0.11887589202E+03  0.15174170481E+03  0.47000000000E+01 0.  1.
         13    1    4    4    0    0 -0.60726621296E+01 -0.31852679312E+02  0.42254399291E+02  0.53262600989E+02  0.00000000000E+00 0. -1.
        -14    1    4    4    0    0 -0.43982714443E+02  0.41862703295E+02  0.13246350785E+03  0.14571734972E+03  0.00000000000E+00 0.  1.
</event>
<event>
12    1  0.1050869E+000  0.2398840E+03  0.7818608E-02  0.1120129E+00
         21   -1    0    0  503  502  0.00000000000E+00  0.00000000000E+00  0.59236238366E+03  0.59236238366E+03  0.00000000000E+00 0.  1.
         21   -1    0    0  501  503 -0.00000000000E+00 -0.00000000000E+00 -0.97618784286E+02  0.97618784286E+02  0.00000000000E+00 0.  1.
          6    2    1    2  501    0  0.16375145441E+03  0.17907169873E+02  0.28320207267E+03  0.37014661939E+03  0.17224952925E+03 0.  0.
         24    2    3    3    0    0  0.24997965794E+02  0.32930762466E+02  0.16264416841E+03  0.18566210184E+03  0.79422648725E+02 0.  0.
         -6    2    1    2    0  502 -0.16375145441E+03 -0.17907169873E+02  0.21154152671E+03  0.31983454856E+03  0.17438209592E+03 0.  0.
        -24    2    5    5    0    0 -0.14460450826E+03  0.44839353794E+02  0.13226548950E+03  0.21682720972E+03  0.81233291854E+02 0.  0.
          5    1    3    3  501    0  0.13875348861E+03 -0.15023592593E+02  0.12055790425E+03  0.18448451755E+03  0.47000000000E+01 0. -1.
        -11    1    4    4    0    0  0.34261736244E+02  0.36228996396E+02  0.16745036013E+03  0.17471699934E+03  0.00000000000E+00 0.  1.
         12    1    4    4    0    0 -0.92637704499E+01 -0.32982339300E+01 -0.48061917148E+01  0.10945102503E+02  0.00000000000E+00 0. -1.
         -5    1    5    5    0  502 -0.19146946149E+02 -0.62746523666E+02  0.79276037203E+02  0.10300733883E+03  0.47000000000E+01 0.  1.
         11    1    6    6    0    0 -0.85238624619E+02 -0.35241436817E+01  0.10557704342E+03  0.13573707973E+03  0.00000000000E+00 0. -1.
        -12    1    6    6    0    0 -0.59365883639E+02  0.48363497476E+02  0.26688446082E+02  0.81090129995E+02  0.00000000000E+00 0.  1.
</event>
<event>
12    1  0.1050869E+000  0.2569255E+03  0.7818608E-02  0.1109430E+00
         21   -1    0    0  503  502  0.00000000000E+00  0.00000000000E+00  0.65905329204E+03  0.65905329204E+03  0.00000000000E+00 0.  1.
         21   -1    0    0  501  503 -0.00000000000E+00 -0.00000000000E+00 -0.11038853634E+03  0.11038853634E+03  0.00000000000E+00 0.  1.
          6    2    1    2  501    0  0.39496272576E+02 -0.18254105799E+03  0.15254565605E+03  0.29879904803E+03  0.17643554213E+03 0.  0.
         24    2    3    3    0    0 -0.57407555839E+01 -0.10406459093E+03  0.11331850118E+02  0.13096468449E+03  0.78491670875E+02 0.  0.
         -6    2    1    2    0  502 -0.39496272576E+02  0.18254105799E+03  0.39611909964E+03  0.47064278035E+03  0.17237485951E+03 0.  0.
        -24    2    5    5    0    0 -0.22058718225E+02  0.16514380046E+03  0.20231243808E+03  0.27522055813E+03  0.84005780369E+02 0.  0.
          5    1    3    3  501    0  0.45237028160E+02 -0.78476467056E+02  0.14121380593E+03  0.16783436354E+03  0.47000000000E+01 0. -1.
        -11    1    4    4    0    0 -0.29940183040E+01 -0.65686019799E+02  0.45129961600E+02  0.79751681968E+02  0.00000000000E+00 0.  1.
         12    1    4    4    0    0 -0.27467372798E+01 -0.38378571136E+02 -0.33798111482E+02  0.51213002527E+02  0.00000000000E+00 0. -1.
         -5    1    5    5    0  502 -0.17437554351E+02  0.17397257534E+02  0.19380666156E+03  0.19542222222E+03  0.47000000000E+01 0.  1.
         13    1    6    6    0    0 -0.48710119651E+02  0.90351748195E+02  0.14340852821E+03  0.17635793183E+03  0.00000000000E+00 0. -1.
        -14    1    6    6    0    0  0.26651401426E+02  0.74792052261E+02  0.58903909874E+02  0.98862626295E+02  0.00000000000E+00 0.  1.
</event>
<event>
12    1  0.1050869E+000  0.2670550E+03  0.7818608E-02  0.1103026E+00
         21   -1    0    0  503  502  0.00000000000E+00  0.00000000000E+00  0.72533393758E+03  0.72533393758E+03  0.00000000000E+00 0.  1.
         21   -1    0    0  501  503 -0.00000000000E+00 -0.00000000000E+00 -0.98201278729E+02  0.98201278729E+02  0.00000000000E+00 0.  1.
          6    2    1    2  501    0 -0.11025252858E+03  0.17190888758E+03  0.31305991574E+03  0.41149103335E+03  0.17207577982E+03 0.  0.
         24    2    3    3    0    0 -0.86372349292E+02  0.16743412368E+03  0.32424106677E+03  0.38433602253E+03  0.84187530764E+02 0.  0.
         -6    2    1    2    0  502  0.11025252858E+03 -0.17190888758E+03  0.31407274310E+03  0.41204418295E+03  0.17155300947E+03 0.  0.
        -24    2    5    5    0    0  0.82181692404E+02 -0.17651673068E+03  0.31968691755E+03  0.38267050398E+03  0.79529884871E+02 0.  0.
          5    1    3    3  501    0 -0.23880179286E+02  0.44747638988E+01 -0.11181151029E+02  0.27155010827E+02  0.47000000000E+01 0. -1.
        -13    1    4    4    0    0 -0.49457005069E+01  0.98597027199E+02  0.13698363132E+03  0.16885007840E+03  0.00000000000E+00 0.  1.
         14    1    4    4    0    0 -0.81426648785E+02  0.68837096478E+02  0.18725743546E+03  0.21548594413E+03  0.00000000000E+00 0. -1.
         -5    1    5    5    0  502  0.28070836173E+02  0.46078431037E+01 -0.56141744487E+01  0.29373678970E+02  0.47000000000E+01 0.  1.
         13    1    6    6    0    0 -0.15972654897E+02 -0.23085820335E+02  0.38563324660E+02  0.47699169949E+02  0.00000000000E+00 0. -1.
        -14    1    6    6    0    0  0.98154347301E+02 -0.15343091034E+03  0.28112359289E+03  0.33497133403E+03  0.00000000000E+00 0.  1.
</event>
<event>
12    1  0.1050869E+000  0.4798687E+03  0.7818608E-02  0.1019183E+00
         21   -1    0    0  503  502  0.00000000000E+00  0.00000000000E+00  0.65965153541E+03  0.65965153541E+03  0.00000000000E+00 0.  1.
         21   -1    0    0  501  503 -0.00000000000E+00 -0.00000000000E+00 -0.53348740734E+03  0.53348740734E+03  0.00000000000E+00 0. -1.
          6    2    1    2  501    0  0.43657194856E+03  0.10082001896E+03  0.41393392114E+03  0.63359858561E+03  0.17130713388E+03 0.  0.
         24    2    3    3    0    0  0.23986194537E+03 -0.11012420811E+02  0.22029462245E+03  0.33574025025E+03  0.80850285785E+02 0.  0.
         -6    2    1    2    0  502 -0.43657194856E+03 -0.10082001896E+03 -0.28776979307E+03  0.55954035714E+03  0.17179701675E+03 0.  0.
        -24    2    5    5    0    0 -0.43805242581E+03 -0.72909446902E+02 -0.26693591600E+03  0.52436462289E+03  0.80608679989E+02 0.  0.
          5    1    3    3  501    0  0.19671000319E+03  0.11183243977E+03  0.19363929870E+03  0.29785833535E+03  0.47000000000E+01 0. -1.
        -13    1    4    4    0    0  0.22563113214E+02 -0.20935138181E+02  0.53132680469E+02  0.61404037509E+02  0.00000000000E+00 0.  1.
         14    1    4    4    0    0  0.21729883216E+03  0.99227173701E+01  0.16716194198E+03  0.27433621275E+03  0.00000000000E+00 0. -1.
         -5    1    5    5    0  502  0.14804772422E+01 -0.27910572062E+02 -0.20833877072E+02  0.35175734243E+02  0.47000000000E+01 0.  1.
         11    1    6    6    0    0 -0.38086952005E+03 -0.77313439434E+02 -0.20295103337E+03  0.43843822959E+03  0.00000000000E+00 0. -1.
        -12    1    6    6    0    0 -0.57182905754E+02  0.44039925324E+01 -0.63984882629E+02  0.85926393301E+02  0.00000000000E+00 0.  1.
</event>
<event>
12    1  0.1050869E+000  0.2584221E+03  0.7818608E-02  0.1109405E+00
         21   -1    0    0  503  502  0.00000000000E+00  0.00000000000E+00  0.34398683838E+03  0.34398683838E+03  0.00000000000E+00 0. -1.
         21   -1    0    0  501  503 -0.00000000000E+00 -0.00000000000E+00 -0.34521683249E+03  0.34521683249E+03  0.00000000000E+00 0. -1.
          6    2    1    2  501    0 -0.10102260666E+03  0.15063563182E+03  0.23206641746E+03  0.34105258051E+03  0.17194586338E+03 0.  0.
         24    2    3    3    0    0 -0.88196064927E+01  0.12862248124E+03  0.10609383217E+03  0.18332764817E+03  0.75707312864E+02 0.  0.
         -6    2    1    2    0  502  0.10102260666E+03 -0.15063563182E+03 -0.23329641157E+03  0.34815109036E+03  0.18407961712E+03 0.  0.
        -24    2    5    5    0    0  0.48540955834E+02 -0.14748339712E+03 -0.91923285096E+02  0.19724479113E+03  0.79674591104E+02 0.  0.
          5    1    3    3  501    0 -0.92203000163E+02  0.22013150581E+02  0.12597258529E+03  0.15772493234E+03  0.47000000000E+01 0. -1.
        -11    1    4    4    0    0 -0.25912945903E+02  0.12834851333E+03  0.10136858079E+03  0.16559109520E+03  0.00000000000E+00 0.  1.
         12    1    4    4    0    0  0.17093339411E+02  0.27396790849E+00  0.47252513815E+01  0.17736552969E+02  0.00000000000E+00 0. -1.
         -5    1    5    5    0  502  0.52481650822E+02 -0.31522346995E+01 -0.14137312648E+03  0.15090629923E+03  0.47000000000E+01 0.  1.
         13    1    6    6    0    0 -0.56801397941E+01 -0.35561744352E+01  0.10502459994E+02  0.12458412042E+02  0.00000000000E+00 0. -1.
        -14    1    6    6    0    0  0.54221095628E+02 -0.14392722268E+03 -0.10242574509E+03  0.18478637909E+03  0.00000000000E+00 0.  1.
</event>
<event>
12    1  0.1050869E+000  0.2229642E+03  0.7818608E-02  0.1131849E+00
         21   -1    0    0  503  502  0.00000000000E+00  0.00000000000E+00  0.78714958920E+03  0.78714958920E+03  0.00000000000E+00 0. -1.
         21   -1    0    0  501  503 -0.00000000000E+00 -0.00000000000E+00 -0.91296472683E+02  0.91296472683E+02  0.00000000000E+00 0. -1.
          6    2    1    2  501    0 -0.12441445308E+03 -0.63982063844E+02  0.59328271715E+03  0.63379605437E+03  0.17360989442E+03 0.  0.
         24    2    3    3    0    0 -0.11372396232E+03 -0.21926243884E+02  0.56317085398E+03  0.58076971291E+03  0.81964314686E+02 0.  0.
         -6    2    1    2    0  502  0.12441445308E+03  0.63982063844E+02  0.10257039937E+03  0.24465000752E+03  0.17251167706E+03 0.  0.
        -24    2    5    5    0    0  0.32159956811E+02  0.36864128289E+02 -0.11742129046E+02  0.95198615208E+02  0.80818759990E+02 0.  0.
          5    1    3    3  501    0 -0.10690490754E+02 -0.42055819960E+02  0.30111863162E+02  0.53026341455E+02  0.47000000000E+01 0. -1.
        -11    1    4    4    0    0 -0.53235726188E+02 -0.32817185763E+01  0.10038037993E+03  0.11367072136E+03  0.00000000000E+00 0.  1.
         12    1    4    4    0    0 -0.60488236134E+02 -0.18644525308E+02  0.46279047405E+03  0.46709899155E+03  0.00000000000E+00 0. -1.
         -5    1    5    5    0  502  0.92254496265E+02  0.27117935556E+02  0.11431252842E+03  0.14945139231E+03  0.47000000000E+01 0.  1.
         11    1    6    6    0    0  0.40241678288E+02  0.58377018655E+02 -0.13398831713E+02  0.72158143475E+02  0.00000000000E+00 0. -1.
        -12    1    6    6    0    0 -0.80817214770E+01 -0.21512890366E+02  0.16567026670E+01  0.23040471733E+02  0.00000000000E+00 0.  1.
</event>
<event>
12    1  0.1050869E+000  0.1866254E+03  0.7818608E-02  0.1161774E+00
         21   -1    0    0  501  502  0.00000000000E+00  0.00000000000E+00  0.68251521246E+03  0.68251521246E+03  0.00000000000E+00 0.  1.
         21   -1    0    0  502  503 -0.00000000000E+00 -0.00000000000E+00 -0.17222510125E+03  0.17222510125E+03  0.00000000000E+00 0.  1.
         -6    2    1    2    0  503 -0.54837155993E+02  0.45995520485E+02  0.61385463318E+03  0.64130493294E+03  0.17126530518E+03 0.  0.
        -24    2    3    3    0    0 -0.44464161194E+02 -0.16499839801E+02  0.24209534211E+03  0.26415730989E+03  0.94443757617E+02 0.  0.
          6    2    1    2  501    0  0.54837155993E+02 -0.45995520485E+02 -0.10356452196E+03  0.21343538077E+03  0.17235530155E+03 0.  0.
         24    2    5    5    0    0  0.86485346734E+01 -0.49654976810E+01 -0.12421082369E+03  0.14812679568E+03  0.80085988518E+02 0.  0.
          5    1    5    5  501    0  0.46188621320E+02 -0.41030022804E+02  0.20646301733E+02  0.65308585086E+02  0.47000000000E+01 0. -1.
        -13    1    6    6    0    0  0.43827925586E+02  0.49500579026E+01 -0.65377729934E+02  0.78864679710E+02  0.00000000000E+00 0.  1.
         14    1    6    6    0    0 -0.35179390913E+02 -0.99155555837E+01 -0.58833093760E+02  0.69262115972E+02  0.00000000000E+00 0. -1.
         -5    1    3    3    0  503 -0.10372994799E+02  0.62495360286E+02  0.37175929106E+03  0.37714762305E+03  0.47000000000E+01 0.  1.
         13    1    4    4    0    0 -0.31432415293E+02  0.21888559978E+02  0.20706898709E+03  0.21058174471E+03  0.00000000000E+00 0. -1.
        -14    1    4    4    0    0 -0.13031745901E+02 -0.38388399779E+02  0.35026355021E+02  0.53575565185E+02  0.00000000000E+00 0.  1.
</event>
<event>
12    1  0.1050869E+000  0.3457942E+03  0.7818608E-02  0.1064372E+00
         21   -1    0    0  501  502  0.00000000000E+00  0.00000000000E+00  0.26436569153E+03  0.26436569153E+03  0.00000000000E+00 0.  1.
         21   -1    0    0  502  503 -0.00000000000E+00 -0.00000000000E+00 -0.67831024556E+03  0.67831024556E+03  0.00000000000E+00 0.  1.
         -6    2    1    2    0  503 -0.28705929969E+03 -0.87607318369E+02  0.65193265769E+02  0.35188608715E+03  0.17174275139E+03 0.  0.
        -24    2    3    3    0    0 -0.27741449469E+03 -0.88275811206E+02  0.16644243902E+02  0.30216117719E+03  0.79201801997E+02 0.  0.
          6    2    1    2  501    0  0.28705929969E+03  0.87607318369E+02 -0.47913781981E+03  0.59078984993E+03  0.17141036329E+03 0.  0.
         24    2    5    5    0    0  0.10944486219E+03 -0.14617915528E+02 -0.23664624030E+03  0.27326639728E+03  0.80506021634E+02 0.  0.
          5    1    5    5  501    0  0.17761443750E+03  0.10222523390E+03 -0.24249157950E+03  0.31752345265E+03  0.47000000000E+01 0. -1.
        -11    1    6    6    0    0  0.12212761906E+03 -0.10128054750E+02 -0.22034408914E+03  0.25212943194E+03  0.00000000000E+00 0.  1.
         12    1    6    6    0    0 -0.12682756864E+02 -0.44898607782E+01 -0.16302151160E+02  0.21136965343E+02  0.00000000000E+00 0. -1.
         -5    1    3    3    0  503 -0.96448050073E+01  0.66849283680E+00  0.48549021867E+02  0.49724909960E+02  0.47000000000E+01 0.  1.
         11    1    4    4    0    0 -0.77134858690E+02 -0.58607456831E+02 -0.12245955924E+02  0.97645193727E+02  0.00000000000E+00 0. -1.
        -12    1    4    4    0    0 -0.20027963600E+03 -0.29668354375E+02  0.28890199826E+02  0.20451598346E+03  0.00000000000E+00 0.  1.
</event>
<event>
12    1  0.1050869E+000  0.2132862E+03  0.7818608E-02  0.1140556E+00
         21   -1    0    0  503  502  0.00000000000E+00  0.00000000000E+00  0.40523506567E+03  0.40523506567E+03  0.00000000000E+00 0.  1.
         21   -1    0    0  501  503 -0.00000000000E+00 -0.00000000000E+00 -0.10952458716E+03  0.10952458716E+03  0.00000000000E+00 0.  1.
          6    2    1    2  501    0 -0.97948205202E+02 -0.59759643509E+02  0.17962188056E+03  0.27884589692E+03  0.17979418332E+03 0.  0.
         24    2    3    3    0    0 -0.10619384464E+02 -0.64378774985E+02  0.15781487547E+03  0.18859461007E+03  0.80031206608E+02 0.  0.
         -6    2    1    2    0  502  0.97948205202E+02  0.59759643509E+02  0.11608859795E+03  0.23591375591E+03  0.17033400060E+03 0.  0.
        -24    2    5    5    0    0 -0.14950691600E+02  0.25994924635E+02  0.32951793388E+02  0.91622261317E+02  0.80059720179E+02 0.  0.
          5    1    3    3  501    0 -0.87328820738E+02  0.46191314762E+01  0.21807005093E+02  0.90251286850E+02  0.47000000000E+01 0. -1.
        -11    1    4    4    0    0  0.17579639308E+02 -0.27457432138E+01  0.10716521084E+01  0.17825017875E+02  0.00000000000E+00 0.  1.
         12    1    4    4    0    0 -0.28199023772E+02 -0.61633031771E+02  0.15674322336E+03  0.17076959219E+03  0.00000000000E+00 0. -1.
         -5    1    5    5    0  502  0.11289889680E+03  0.33764718873E+02  0.83136804564E+02  0.14429149460E+03  0.47000000000E+01 0.  1.
         13    1    6    6    0    0  0.14100197011E+02  0.14710888702E+02 -0.21034463628E+02  0.29286079667E+02  0.00000000000E+00 0. -1.
        -14    1    6    6    0    0 -0.29050888611E+02  0.11284035933E+02  0.53986257016E+02  0.62336181650E+02  0.00000000000E+00 0.  1.
</event>
<event>
12    1  0.1050869E+000  0.1927546E+03  0.7818608E-02  0.1156024E+00
         21   -1    0    0  501  502  0.00000000000E+00  0.00000000000E+00  0.30543443549E+03  0.30543443549E+03  0.00000000000E+00 0.  1.
         21   -1    0    0  502  503 -0.00000000000E+00 -0.00000000000E+00 -0.22660206883E+03  0.22660206883E+03  0.00000000000E+00 0.  1.
         -6    2    1    2    0  503  0.56205539222E+02 -0.54518480224E+02 -0.14169384721E+03  0.23914375869E+03  0.17601495294E+03 0.  0.
        -24    2    3    3    0    0  0.67210404328E+02  0.23127944100E+02 -0.11481707402E+03  0.15611048100E+03  0.78328676382E+02 0.  0.
          6    2    1    2  501    0 -0.56205539222E+02  0.54518480224E+02  0.22052621387E+03  0.29289274562E+03  0.17613353489E+03 0.  0.
         24    2    5    5    0    0 -0.66276804854E+02  0.66538317388E+02  0.23840033571E+03  0.26865473604E+03  0.80750755948E+02 0.  0.
          5    1    5    5  501    0  0.10071265632E+02 -0.12019837163E+02 -0.17874121846E+02  0.24238009584E+02  0.47000000000E+01 0. -1.
        -13    1    6    6    0    0 -0.13893485215E+02 -0.13179151064E+02  0.91637048200E+02  0.93616598726E+02  0.00000000000E+00 0.  1.
         14    1    6    6    0    0 -0.52383319638E+02  0.79717468452E+02  0.14676328751E+03  0.17503813731E+03  0.00000000000E+00 0. -1.
         -5    1    3    3    0  503 -0.11004865106E+02 -0.77646424325E+02 -0.26876773188E+02  0.83033277687E+02  0.47000000000E+01 0.  1.
         11    1    4    4    0    0  0.16084000380E+02 -0.98790267794E+01  0.68440572083E+01  0.20078131323E+02  0.00000000000E+00 0. -1.
        -12    1    4    4    0    0  0.51126403948E+02  0.33006970880E+02 -0.12166113123E+03  0.13603234968E+03  0.00000000000E+00 0.  1.
</event>
<event>
12    1  0.1050869E+000  0.2036746E+03  0.7818608E-02  0.1147603E+00
         21   -1    0    0  501  502  0.00000000000E+00  0.00000000000E+00  0.62150809985E+02  0.62150809985E+02  0.00000000000E+00 0. -1.
         21   -1    0    0  502  503 -0.00000000000E+00 -0.00000000000E+00 -0.68194921637E+03  0.68194921637E+03  0.00000000000E+00 0. -1.
         -6    2    1    2    0  503 -0.10025890358E+03  0.42695989415E+02 -0.38989309432E+03  0.43988630632E+03  0.17207132889E+03 0.  0.
        -24    2    3    3    0    0 -0.11303970965E+02  0.13339396210E+02 -0.29641665858E+03  0.30746756278E+03  0.79798166811E+02 0.  0.
          6    2    1    2  501    0  0.10025890358E+03 -0.42695989415E+02 -0.22990531207E+03  0.30421372004E+03  0.16677751553E+03 0.  0.
         24    2    5    5    0    0 -0.68975352724E+01 -0.12227110420E+02 -0.14401739650E+03  0.16346685857E+03  0.76048176394E+02 0.  0.
          5    1    5    5  501    0  0.10715643885E+03 -0.30468878994E+02 -0.85887915565E+02  0.14074686147E+03  0.47000000000E+01 0. -1.
        -11    1    6    6    0    0  0.25426185949E+02 -0.29636205148E+02 -0.57756842915E+02  0.69718351178E+02  0.00000000000E+00 0.  1.
         12    1    6    6    0    0 -0.32323721221E+02  0.17409094727E+02 -0.86260553586E+02  0.93748507390E+02  0.00000000000E+00 0. -1.
         -5    1    3    3    0  503 -0.88954932616E+02  0.29356593204E+02 -0.93476435744E+02  0.13241874354E+03  0.47000000000E+01 0.  1.
         11    1    4    4    0    0  0.11423808791E+02  0.40448549006E+02 -0.11067846829E+03  0.11839050581E+03  0.00000000000E+00 0. -1.
        -12    1    4    4    0    0 -0.22727779755E+02 -0.27109152796E+02 -0.18573819029E+03  0.18907705696E+03  0.00000000000E+00 0.  1.
</event>
<event>
12    1  0.1050869E+000  0.1741279E+03  0.7818608E-02  0.1174625E+00
         21   -1    0    0  503  502  0.00000000000E+00  0.00000000000E+00  0.85299991198E+02  0.85299991198E+02  0.00000000000E+00 0.  1.
         21   -1    0    0  501  503 -0.00000000000E+00 -0.00000000000E+00 -0.37684767948E+03  0.37684767948E+03  0.00000000000E+00 0.  1.
          6    2    1    2  501    0 -0.57560658282E+01  0.22797084759E+02 -0.21190906550E+03  0.27427354944E+03  0.17253315194E+03 0.  0.
         24    2    3    3    0    0  0.12274007797E+02 -0.29082200469E+02 -0.20248814648E+03  0.21835049958E+03  0.75359575041E+02 0.  0.
         -6    2    1    2    0  502  0.57560658282E+01 -0.22797084759E+02 -0.79638622785E+02  0.18787412123E+03  0.16852755212E+03 0.  0.
        -24    2    5    5    0    0  0.86648436308E+01  0.18377128020E+02  0.14946852458E+02  0.84567398737E+02  0.80718264236E+02 0.  0.
          5    1    3    3  501    0 -0.18030073625E+02  0.51879285228E+02 -0.94209190155E+01  0.55923049862E+02  0.47000000000E+01 0. -1.
        -11    1    4    4    0    0 -0.18312963921E+02 -0.21565661718E+02 -0.23987711203E+02  0.37092488480E+02  0.00000000000E+00 0.  1.
         12    1    4    4    0    0  0.30586971718E+02 -0.75165387510E+01 -0.17850043528E+03  0.18125801110E+03  0.00000000000E+00 0. -1.
         -5    1    5    5    0  502 -0.29087778026E+01 -0.41174212779E+02 -0.94585475242E+02  0.10330672250E+03  0.47000000000E+01 0.  1.
         11    1    6    6    0    0  0.10969244832E+02 -0.12009639683E+02  0.41231538215E+02  0.44323757976E+02  0.00000000000E+00 0. -1.
        -12    1    6    6    0    0 -0.23044012016E+01  0.30386767702E+02 -0.26284685758E+02  0.40243640761E+02  0.00000000000E+00 0.  1.
</event>
<event>
12    1  0.1050869E+000  0.2255460E+03  0.7818608E-02  0.1131209E+00
         21   -1    0    0  501  502  0.00000000000E+00  0.00000000000E+00  0.73695055016E+02  0.73695055016E+02  0.00000000000E+00 0. -1.
         21   -1    0    0  502  503 -0.00000000000E+00 -0.00000000000E+00 -0.67406287971E+03  0.67406287971E+03  0.00000000000E+00 0. -1.
         -6    2    1    2    0  503  0.11614636981E+03  0.65579899581E+02 -0.26774541363E+03  0.35008369003E+03  0.18187985337E+03 0.  0.
        -24    2    3    3    0    0  0.73692870040E+02 -0.28824944649E+02 -0.92257574515E+02  0.14628809162E+03  0.81407795483E+02 0.  0.
          6    2    1    2  501    0 -0.11614636981E+03 -0.65579899581E+02 -0.33262241106E+03  0.39767424469E+03  0.17238455296E+03 0.  0.
         24    2    5    5    0    0 -0.14024597983E+03 -0.30056399383E+02 -0.20297401691E+03  0.26102320599E+03  0.79764281005E+02 0.  0.
          5    1    5    5  501    0  0.24099610027E+02 -0.35523500199E+02 -0.12964839415E+03  0.13665103870E+03  0.47000000000E+01 0. -1.
        -11    1    6    6    0    0 -0.59402583248E+02 -0.36236678139E+02 -0.14658839067E+03  0.16226496855E+03  0.00000000000E+00 0.  1.
         12    1    6    6    0    0 -0.80843396586E+02  0.61802787559E+01 -0.56385626239E+02  0.98758237445E+02  0.00000000000E+00 0. -1.
         -5    1    3    3    0  503  0.42453499768E+02  0.94404844230E+02 -0.17548783911E+03  0.20379559842E+03  0.47000000000E+01 0.  1.
         11    1    4    4    0    0  0.73360868751E+02 -0.44960948119E+02 -0.96808743423E+02  0.12951925232E+03  0.00000000000E+00 0. -1.
        -12    1    4    4    0    0  0.33200128859E+00  0.16136003470E+02  0.45511689075E+01  0.16768839294E+02  0.00000000000E+00 0.  1.
</event>
<event>
12    1  0.1050869E+000  0.1822154E+03  0.7818608E-02  0.1166075E+00
         21   -1    0    0  501  502  0.00000000000E+00  0.00000000000E+00  0.39429997085E+03  0.39429997085E+03  0.00000000000E+00 0. -1.
         21   -1    0    0  502  503 -0.00000000000E+00 -0.00000000000E+00 -0.88264703869E+02  0.88264703869E+02  0.00000000000E+00 0. -1.
         -6    2    1    2    0  503 -0.50627411764E+02 -0.21368662887E+02  0.95931569332E+02  0.20445313403E+03  0.17198390461E+03 0.  0.
        -24    2    3    3    0    0 -0.80132902304E+01 -0.65274737907E+02  0.17802228745E+02  0.10510530749E+03  0.80032506425E+02 0.  0.
          6    2    1    2  501    0  0.50627411764E+02  0.21368662887E+02  0.21010369765E+03  0.27811154069E+03  0.17373172055E+03 0.  0.
         24    2    5    5    0    0  0.96718829212E+02  0.24681423122E+02  0.11471308632E+03  0.17201322839E+03  0.80409912307E+02 0.  0.
          5    1    5    5  501    0 -0.46091417447E+02 -0.33127602350E+01  0.95390611339E+02  0.10609831231E+03  0.47000000000E+01 0. -1.
        -13    1    6    6    0    0  0.86676612043E+02 -0.57090386267E+01  0.51043685604E+02  0.10075160563E+03  0.00000000000E+00 0.  1.
         14    1    6    6    0    0  0.10042217169E+02  0.30390461749E+02  0.63669400712E+02  0.71261622757E+02  0.00000000000E+00 0. -1.
         -5    1    3    3    0  503 -0.42614121534E+02  0.43906075020E+02  0.78129340587E+02  0.99347826540E+02  0.47000000000E+01 0.  1.
         13    1    4    4    0    0 -0.41352377212E+02 -0.27886952389E+02 -0.48819003559E+01  0.50115208927E+02  0.00000000000E+00 0. -1.
        -14    1    4    4    0    0  0.33339086982E+02 -0.37387785518E+02  0.22684129101E+02  0.54990098561E+02  0.00000000000E+00 0.  1.
</event>
<event>
12    1  0.1050869E+000  0.3403616E+03  0.7818608E-02  0.1066766E+00
         21   -1    0    0  503  502  0.00000000000E+00  0.00000000000E+00  0.13127254682E+03  0.13127254682E+03  0.00000000000E+00 0.  1.
         21   -1    0    0  501  503 -0.00000000000E+00 -0.00000000000E+00 -0.97716113783E+03  0.97716113783E+03  0.00000000000E+00 0. -1.
          6    2    1    2  501    0  0.56960204668E+02  0.28672351616E+03 -0.24835495795E+03  0.42133856158E+03  0.17433060173E+03 0.  0.
         24    2    3    3    0    0  0.10255716043E+03  0.19378081069E+03 -0.20478828530E+03  0.30892159737E+03  0.73656892264E+02 0.  0.
         -6    2    1    2    0  502 -0.56960204668E+02 -0.28672351616E+03 -0.59753363306E+03  0.68709512306E+03  0.17204193053E+03 0.  0.
        -24    2    5    5    0    0 -0.16249180993E+02 -0.72316958786E+02 -0.27374294326E+03  0.29659536622E+03  0.86832216750E+02 0.  0.
          5    1    3    3  501    0 -0.45596955763E+02  0.92942705477E+02 -0.43566672643E+02  0.11241696421E+03  0.47000000000E+01 0. -1.
        -13    1    4    4    0    0  0.31072705621E+02  0.10198447855E+03 -0.13928009242E+03  0.17540037356E+03  0.00000000000E+00 0.  1.
         14    1    4    4    0    0  0.71484454811E+02  0.91796332139E+02 -0.65508192883E+02  0.13352122381E+03  0.00000000000E+00 0. -1.
         -5    1    5    5    0  502 -0.40711023675E+02 -0.21440655738E+03 -0.32379068980E+03  0.39049975684E+03  0.47000000000E+01 0.  1.
         13    1    6    6    0    0 -0.21861894656E+02 -0.31449026024E+02 -0.28076850474E+02  0.47489927441E+02  0.00000000000E+00 0. -1.
        -14    1    6    6    0    0  0.56127136627E+01 -0.40867932762E+02 -0.24566609279E+03  0.24910543878E+03  0.00000000000E+00 0.  1.
</event>
<event>
12    1  0.1050869E+000  0.2633135E+03  0.7818608E-02  0.1105214E+00
         21   -1    0    0  501  502  0.00000000000E+00  0.00000000000E+00  0.20187222477E+03  0.20187222477E+03  0.00000000000E+00 0. -1.
         21   -1    0    0  502  503 -0.00000000000E+00 -0.00000000000E+00 -0.35806815958E+03  0.35806815958E+03  0.00000000000E+00 0. -1.
         -6    2    1    2    0  503 -0.14170602334E+03 -0.14018014200E+03 -0.20820412588E+02  0.26413538071E+03  0.17205505077E+03 0.  0.
        -24    2    3    3    0    0 -0.10965572744E+03 -0.10788388618E+03  0.50128186499E+02  0.17971936730E+03  0.78248990035E+02 0.  0.
          6    2    1    2  501    0  0.14170602334E+03  0.14018014200E+03 -0.13537552222E+03  0.29580500364E+03  0.17158962351E+03 0.  0.
         24    2    5    5    0    0  0.67022506518E+02  0.14356400326E+03 -0.48682676651E+02  0.18123267855E+03  0.73298303918E+02 0.  0.
          5    1    5    5  501    0  0.74683516826E+02 -0.33838612567E+01 -0.86692845572E+02  0.11457232509E+03  0.47000000000E+01 0. -1.
        -11    1    6    6    0    0  0.32839714246E+02  0.29547636041E+02  0.14471801588E+02  0.46485940547E+02  0.00000000000E+00 0.  1.
         12    1    6    6    0    0  0.34182792272E+02  0.11401636722E+03 -0.63154478238E+02  0.13474673800E+03  0.00000000000E+00 0. -1.
         -5    1    3    3    0  503 -0.32050295902E+02 -0.32296255823E+02 -0.70948599086E+02  0.84416013409E+02  0.47000000000E+01 0.  1.
         13    1    4    4    0    0 -0.17462064396E+02 -0.47894883781E+02  0.47525777627E+02  0.69696076822E+02  0.00000000000E+00 0. -1.
        -14    1    4    4    0    0 -0.92193663046E+02 -0.59989002398E+02  0.26024088714E+01  0.11002329047E+03  0.00000000000E+00 0.  1.
</event>
<event>
12    1  0.1050869E+000  0.2502427E+03  0.7818608E-02  0.1113760E+00
         21   -1    0    0  501  502  0.00000000000E+00  0.00000000000E+00  0.10709052344E+04  0.10709052344E+04  0.00000000000E+00 0.  1.
         21   -1    0    0  502  503 -0.00000000000E+00 -0.00000000000E+00 -0.57765081784E+02  0.57765081784E+02  0.00000000000E+00 0.  1.
         -6    2    1    2    0  503  0.13558475837E+03 -0.12213528831E+03  0.47899107404E+03  0.54042009260E+03  0.17123426096E+03 0.  0.
        -24    2    3    3    0    0  0.34896955196E+02 -0.67693712397E+02  0.11702560689E+03  0.16075839016E+03  0.79674532681E+02 0.  0.
          6    2    1    2  501    0 -0.13558475837E+03  0.12213528831E+03  0.53414907856E+03  0.58825022356E+03  0.16559840592E+03 0.  0.
         24    2    5    5    0    0 -0.34545407034E+02  0.78418074000E+01  0.26524590497E+03  0.27905294501E+03  0.79121911788E+02 0.  0.
          5    1    5    5  501    0 -0.10103935134E+03  0.11429348091E+03  0.26890317358E+03  0.30919727855E+03  0.47000000000E+01 0. -1.
        -13    1    6    6    0    0 -0.87354313684E+01  0.28072531784E+02  0.31774515959E+02  0.43289660041E+02  0.00000000000E+00 0.  1.
         14    1    6    6    0    0 -0.25809975666E+02 -0.20230724384E+02  0.23347138901E+03  0.23576328497E+03  0.00000000000E+00 0. -1.
         -5    1    3    3    0  503  0.10068780318E+03 -0.54441575913E+02  0.36196546715E+03  0.37966170244E+03  0.47000000000E+01 0.  1.
         11    1    4    4    0    0  0.47313874588E+02 -0.14588801258E+02  0.82482676585E+02  0.96202015505E+02  0.00000000000E+00 0. -1.
        -12    1    4    4    0    0 -0.12416919391E+02 -0.53104911139E+02  0.34542930309E+02  0.64556374655E+02  0.00000000000E+00 0.  1.
</event>
<event>
12    1  0.1050869E+000  0.2354536E+03  0.7818608E-02  0.1122861E+00
         21   -1    0    0  501  502  0.00000000000E+00  0.00000000000E+00  0.36041011125E+03  0.36041011125E+03  0.00000000000E+00 0. -1.
         21   -1    0    0  502  503 -0.00000000000E+00 -0.00000000000E+00 -0.16259612180E+03  0.16259612180E+03  0.00000000000E+00 0. -1.
         -6    2    1    2    0  503 -0.15434138980E+03  0.45731317803E+02  0.38122485158E+02  0.23850708321E+03  0.17181294140E+03 0.  0.
        -24    2    3    3    0    0 -0.70511396822E+02  0.91617848082E+02  0.10782969566E+02  0.13899537286E+03  0.76405196645E+02 0.  0.
          6    2    1    2  501    0  0.15434138980E+03 -0.45731317803E+02  0.15969150430E+03  0.28449914983E+03  0.17183064825E+03 0.  0.
         24    2    5    5    0    0  0.12721482028E+03 -0.88487841354E+02  0.85568111061E+02  0.19460844673E+03  0.80850710212E+02 0.  0.
          5    1    5    5  501    0  0.27126569526E+02  0.42756523552E+02  0.74123393235E+02  0.89890703107E+02  0.47000000000E+01 0. -1.
        -11    1    6    6    0    0  0.18324283268E+02 -0.59279640413E+02  0.30484370477E+02  0.69131410865E+02  0.00000000000E+00 0.  1.
         12    1    6    6    0    0  0.10889053701E+03 -0.29208200941E+02  0.55083740583E+02  0.12547703586E+03  0.00000000000E+00 0. -1.
         -5    1    3    3    0  503 -0.83829992981E+02 -0.45886530279E+02  0.27339515591E+02  0.99511710351E+02  0.47000000000E+01 0.  1.
         11    1    4    4    0    0  0.62494039464E+00  0.49944022012E+02  0.24140664438E+02  0.55475828653E+02  0.00000000000E+00 0. -1.
        -12    1    4    4    0    0 -0.71136337216E+02  0.41673826070E+02 -0.13357694872E+02  0.83519544205E+02  0.00000000000E+00 0.  1.
</event>
<event>
12    1  0.1050869E+000  0.2287104E+03  0.7818608E-02  0.1127566E+00
         21   -1    0    0  503  502  0.00000000000E+00  0.00000000000E+00  0.69963450272E+02  0.69963450272E+02  0.00000000000E+00 0. -1.
         21   -1    0    0  501  503 -0.00000000000E+00 -0.00000000000E+00 -0.88745527407E+03  0.88745527407E+03  0.00000000000E+00 0. -1.
          6    2    1    2  501    0 -0.37169274616E+02  0.14583280272E+03 -0.59899716438E+03  0.64117550864E+03  0.17221982644E+03 0.  0.
         24    2    3    3    0    0 -0.30961430085E+02  0.17603215034E+03 -0.54149292694E+03  0.57575865108E+03  0.79608455920E+02 0.  0.
         -6    2    1    2    0  502  0.37169274616E+02 -0.14583280272E+03 -0.21849465941E+03  0.31624321570E+03  0.17210779749E+03 0.  0.
        -24    2    5    5    0    0  0.34004936370E+02 -0.93767255492E+02 -0.46471909398E+02  0.13642455491E+03  0.80643579529E+02 0.  0.
          5    1    3    3  501    0 -0.62078445310E+01 -0.30199347618E+02 -0.57504237438E+02  0.65416857565E+02  0.47000000000E+01 0. -1.
        -11    1    4    4    0    0  0.14281902254E+02  0.90038903158E+02 -0.18473779152E+03  0.20600735043E+03  0.00000000000E+00 0.  1.
         12    1    4    4    0    0 -0.45243332339E+02  0.85993247182E+02 -0.35675513542E+03  0.36975130065E+03  0.00000000000E+00 0. -1.
         -5    1    5    5    0  502  0.31643382465E+01 -0.52065547230E+02 -0.17202275002E+03  0.17981866079E+03  0.47000000000E+01 0.  1.
         13    1    6    6    0    0  0.21377268275E+02  0.10008252119E+02 -0.10879679300E+02  0.25990770113E+02  0.00000000000E+00 0. -1.
        -14    1    6    6    0    0  0.12627668095E+02 -0.10377550761E+03 -0.35592230098E+02  0.11043378480E+03  0.00000000000E+00 0.  1.
</event>
<event>
12    1  0.1050869E+000  0.3390130E+03  0.7818608E-02  0.1067254E+00
         21   -1    0    0  503  502  0.00000000000E+00  0.00000000000E+00  0.61654412855E+03  0.61654412855E+03  0.00000000000E+00 0. -1.
         21   -1    0    0  501  503 -0.00000000000E+00 -0.00000000000E+00 -0.20696074311E+03  0.20696074311E+03  0.00000000000E+00 0. -1.
          6    2    1    2  501    0  0.14803068809E+03  0.25128842395E+03  0.33505182066E+03  0.47639569194E+03  0.17214579909E+03 0.  0.
         24    2    3    3    0    0  0.13492863900E+03  0.16562721976E+03  0.15264894780E+03  0.27439964341E+03  0.79720445884E+02 0.  0.
         -6    2    1    2    0  502 -0.14803068809E+03 -0.25128842395E+03  0.74531564783E+02  0.34710917972E+03  0.17283191797E+03 0.  0.
        -24    2    5    5    0    0 -0.12919164454E+02 -0.45544378314E+02  0.23635156518E+02  0.95716517721E+02  0.79761117939E+02 0.  0.
          5    1    3    3  501    0  0.13102049089E+02  0.85661204189E+02  0.18240287286E+03  0.20199604853E+03  0.47000000000E+01 0. -1.
        -11    1    4    4    0    0  0.16282915416E+02  0.77563415862E+02  0.41193608770E+02  0.89320379635E+02  0.00000000000E+00 0.  1.
         12    1    4    4    0    0  0.11864572358E+03  0.88063803896E+02  0.11145533903E+03  0.18507926377E+03  0.00000000000E+00 0. -1.
         -5    1    5    5    0  502 -0.13511152363E+03 -0.20574404563E+03  0.50896408265E+02  0.25139266200E+03  0.47000000000E+01 0.  1.
         13    1    6    6    0    0 -0.32875381406E+02  0.43648032914E+01  0.25653077544E+02  0.41927587551E+02  0.00000000000E+00 0. -1.
        -14    1    6    6    0    0  0.19956216952E+02 -0.49909181606E+02 -0.20179210255E+01  0.53788930170E+02  0.00000000000E+00 0.  1.
</event>
<event>
12    1  0.1050869E+000  0.1881135E+03  0.7818608E-02  0.1160331E+00
         21   -1    0    0  503  502  0.00000000000E+00  0.00000000000E+00  0.83317118826E+02  0.83317118826E+02  0.00000000000E+00 0.  1.
         21   -1    0    0  501  503 -0.00000000000E+00 -0.00000000000E+00 -0.71784229757E+03  0.71784229757E+03  0.00000000000E+00 0.  1.
          6    2    1    2  501    0 -0.17950025053E+02  0.73329148599E+02 -0.60272074722E+02  0.19688023114E+03  0.17155096907E+03 0.  0.
         24    2    3    3    0    0 -0.47788173786E+02  0.63108198647E+02  0.16847577304E+02  0.11342776763E+03  0.79471147705E+02 0.  0.
         -6    2    1    2    0  502  0.17950025053E+02 -0.73329148599E+02 -0.57425310403E+03  0.60427918526E+03  0.17230014168E+03 0.  0.
        -24    2    5    5    0    0 -0.11944634427E+01 -0.95769009075E+02 -0.55511135586E+03  0.56880306230E+03  0.78836390251E+02 0.  0.
          5    1    3    3  501    0  0.29838148733E+02  0.10220949952E+02 -0.77119652025E+02  0.83452463512E+02  0.47000000000E+01 0. -1.
        -11    1    4    4    0    0 -0.17662111847E+02 -0.48016986237E+01  0.32689955815E+02  0.37465180044E+02  0.00000000000E+00 0.  1.
         12    1    4    4    0    0 -0.30126061939E+02  0.67909897271E+02 -0.15842378511E+02  0.75962587582E+02  0.00000000000E+00 0. -1.
         -5    1    5    5    0  502  0.19144488495E+02  0.22439860476E+02 -0.19141748165E+02  0.35476122967E+02  0.47000000000E+01 0.  1.
         13    1    6    6    0    0  0.15718718971E+02  0.72731334140E+01 -0.12518552547E+03  0.12637797428E+03  0.00000000000E+00 0. -1.
        -14    1    6    6    0    0 -0.16913182414E+02 -0.10304214249E+03 -0.42992583040E+03  0.44242508802E+03  0.00000000000E+00 0.  1.
</event>
<event>
12    1  0.1050869E+000  0.5693122E+03  0.7818608E-02  0.9971904E-01
         21   -1    0    0  501  502  0.00000000000E+00  0.00000000000E+00  0.67052762286E+03  0.67052762286E+03  0.00000000000E+00 0.  1.
         21   -1    0    0  502  503 -0.00000000000E+00 -0.00000000000E+00 -0.48277267885E+03  0.48277267885E+03  0.00000000000E+00 0. -1.
         -6    2    1    2    0  503 -0.19944503904E+02  0.54203848690E+03  0.11179607618E+03  0.57894319740E+03  0.16874050685E+03 0.  0.
        -24    2    3    3    0    0 -0.47805914394E+02  0.50904468491E+03  0.12706369423E+03  0.53289931263E+03  0.80153592070E+02 0.  0.
          6    2    1    2  501    0  0.19944503904E+02 -0.54203848690E+03  0.75958867829E+02  0.57435710430E+03  0.17295325710E+03 0.  0.
         24    2    5    5    0    0 -0.31810004809E+02 -0.46052887714E+03  0.93952566328E+02  0.47603005390E+03  0.68401786583E+02 0.  0.
          5    1    5    5  501    0  0.51754508713E+02 -0.81509609758E+02 -0.17993698499E+02  0.98327050402E+02  0.47000000000E+01 0. -1.
        -13    1    6    6    0    0 -0.36141180018E+02 -0.21329034604E+03  0.71030662207E+02  0.22769345968E+03  0.00000000000E+00 0.  1.
         14    1    6    6    0    0  0.43311752090E+01 -0.24723853111E+03  0.22921904121E+02  0.24833659422E+03  0.00000000000E+00 0. -1.
         -5    1    3    3    0  503  0.27861410490E+02  0.32993801992E+02 -0.15267618050E+02  0.46043884777E+02  0.47000000000E+01 0.  1.
         13    1    4    4    0    0  0.53132428092E+01  0.24653483535E+03  0.31812763256E+02  0.24863569232E+03  0.00000000000E+00 0. -1.
        -14    1    4    4    0    0 -0.53119157204E+02  0.26250984955E+03  0.95250930977E+02  0.28426362030E+03  0.00000000000E+00 0.  1.
</event>
<event>
12    1  0.1050869E+000  0.2152132E+03  0.7818608E-02  0.1137818E+00
         21   -1    0    0  503  502  0.00000000000E+00  0.00000000000E+00  0.32772290755E+02  0.32772290755E+02  0.00000000000E+00 0. -1.
         21   -1    0    0  501  503 -0.00000000000E+00 -0.00000000000E+00 -0.14733884284E+04  0.14733884284E+04  0.00000000000E+00 0. -1.
          6    2    1    2  501    0 -0.89093304752E+02 -0.92921407747E+02 -0.55780481814E+03  0.59788205557E+03  0.17246661201E+03 0.  0.
         24    2    3    3    0    0 -0.89881077805E+01 -0.89526129019E+02 -0.22250822065E+03  0.25310057580E+03  0.80338529713E+02 0.  0.
         -6    2    1    2    0  502  0.89093304752E+02  0.92921407747E+02 -0.88281131954E+03  0.90827866362E+03  0.17041801523E+03 0.  0.
        -24    2    5    5    0    0  0.79693421022E+02 -0.62780516180E+01 -0.47872621123E+03  0.49206266764E+03  0.80971774600E+02 0.  0.
          5    1    3    3  501    0 -0.80105196972E+02 -0.33952787278E+01 -0.33529659749E+03  0.34478147976E+03  0.47000000000E+01 0. -1.
        -11    1    4    4    0    0  0.20859216505E+02 -0.10975801911E+02 -0.11100403008E+03  0.11347894005E+03  0.00000000000E+00 0.  1.
         12    1    4    4    0    0 -0.29847324286E+02 -0.78550327108E+02 -0.11150419057E+03  0.13962163575E+03  0.00000000000E+00 0. -1.
         -5    1    5    5    0  502  0.93998837302E+01  0.99199459365E+02 -0.40408510830E+03  0.41621599598E+03  0.47000000000E+01 0.  1.
         13    1    6    6    0    0  0.54885995862E+02  0.16877481034E+01 -0.44977059075E+03  0.45311025737E+03  0.00000000000E+00 0. -1.
        -14    1    6    6    0    0  0.24807425160E+02 -0.79657997214E+01 -0.28955620487E+02  0.38952410273E+02  0.00000000000E+00 0.  1.
</event>
<event>
12    1  0.1050869E+000  0.1943233E+03  0.7818608E-02  0.1154619E+00
         21   -1    0    0  501  502  0.00000000000E+00  0.00000000000E+00  0.58486548267E+03  0.58486548267E+03  0.00000000000E+00 0. -1.
         21   -1    0    0  502  503 -0.00000000000E+00 -0.00000000000E+00 -0.72868528240E+02  0.72868528240E+02  0.00000000000E+00 0. -1.
         -6    2    1    2    0  503  0.54576663303E+02  0.72023799716E+02  0.14497641011E+03  0.24244525199E+03  0.17203342938E+03 0.  0.
        -24    2    3    3    0    0 -0.29903058251E+02  0.61446837828E+02  0.10171029420E+03  0.14682756397E+03  0.80891549769E+02 0.  0.
          6    2    1    2  501    0 -0.54576663303E+02 -0.72023799716E+02  0.36702054433E+03  0.41528875892E+03  0.17203090834E+03 0.  0.
         24    2    5    5    0    0 -0.94954008390E+02 -0.40582201384E+02  0.16910340291E+03  0.21080846899E+03  0.71979656468E+02 0.  0.
          5    1    5    5  501    0  0.40377345087E+02 -0.31441598331E+02  0.19791714142E+03  0.20448028993E+03  0.47000000000E+01 0. -1.
        -11    1    6    6    0    0  0.32181032558E+01  0.55177567375E+01 -0.32523176929E+01  0.71679424073E+01  0.00000000000E+00 0.  1.
         12    1    6    6    0    0 -0.98172111646E+02 -0.46099958122E+02  0.17235572060E+03  0.20364052659E+03  0.00000000000E+00 0. -1.
         -5    1    3    3    0  503  0.84479721554E+02  0.10576961887E+02  0.43266115904E+02  0.95617688018E+02  0.47000000000E+01 0.  1.
         13    1    4    4    0    0  0.12582996645E+02 -0.10858521431E+02  0.38104584046E+02  0.41571608311E+02  0.00000000000E+00 0. -1.
        -14    1    4    4    0    0 -0.42486054895E+02  0.72305359259E+02  0.63605710156E+02  0.10525595566E+03  0.00000000000E+00 0.  1.
</event>
<event>
12    1  0.1050869E+000  0.2321673E+03  0.7818608E-02  0.1125613E+00
         21   -1    0    0  503  502  0.00000000000E+00  0.00000000000E+00  0.41153031861E+03  0.41153031861E+03  0.00000000000E+00 0. -1.
         21   -1    0    0  501  503 -0.00000000000E+00 -0.00000000000E+00 -0.15591185958E+03  0.15591185958E+03  0.00000000000E+00 0. -1.
          6    2    1    2  501    0 -0.12512632934E+03 -0.86660549197E+02  0.10187348025E+02  0.22959887603E+03  0.17159607436E+03 0.  0.
         24    2    3    3    0    0 -0.75676301894E+02 -0.11502384816E+03 -0.82106594983E+01  0.16951261618E+03  0.98537930773E+02 0.  0.
         -6    2    1    2    0  502  0.12512632934E+03  0.86660549197E+02  0.24543111101E+03  0.33784330216E+03  0.17531405385E+03 0.  0.
        -24    2    5    5    0    0  0.12161724275E+03  0.15094318967E-01  0.14139767097E+03  0.20232653129E+03  0.78434494606E+02 0.  0.
          5    1    3    3  501    0 -0.49450027444E+02  0.28363298963E+02  0.18398007523E+02  0.60086259853E+02  0.47000000000E+01 0. -1.
        -11    1    4    4    0    0 -0.25924583901E+02 -0.45783390053E+02 -0.51731846399E+02  0.73786088032E+02  0.00000000000E+00 0.  1.
         12    1    4    4    0    0 -0.49751717992E+02 -0.69240458107E+02  0.43521186901E+02  0.95726528148E+02  0.00000000000E+00 0. -1.
         -5    1    5    5    0  502  0.35090865843E+01  0.86645454878E+02  0.10403344004E+03  0.13551677087E+03  0.47000000000E+01 0.  1.
         13    1    6    6    0    0  0.15133092126E+01  0.22279228453E+02  0.26188405320E+02  0.34416372535E+02  0.00000000000E+00 0. -1.
        -14    1    6    6    0    0  0.12010393354E+03 -0.22264134134E+02  0.11520926565E+03  0.16791015875E+03  0.00000000000E+00 0.  1.
</event>
<event>
12    1  0.1050869E+000  0.3100482E+03  0.7818608E-02  0.1080407E+00
         21   -1    0    0  501  502  0.00000000000E+00  0.00000000000E+00  0.48248115302E+02  0.48248115302E+02  0.00000000000E+00 0.  1.
         21   -1    0    0  502  503 -0.00000000000E+00 -0.00000000000E+00 -0.19926011335E+04  0.19926011335E+04  0.00000000000E+00 0.  1.
         -6    2    1    2    0  503  0.20290037061E+02  0.25652443212E+03 -0.10229830969E+04  0.10689360700E+04  0.17295500936E+03 0.  0.
        -24    2    3    3    0    0  0.67381044217E+02  0.92505602069E+02 -0.30300548655E+03  0.32899716102E+03  0.57700221392E+02 0.  0.
          6    2    1    2  501    0 -0.20290037061E+02 -0.25652443212E+03 -0.92136992127E+03  0.97191317880E+03  0.17168641597E+03 0.  0.
         24    2    5    5    0    0 -0.47346471906E+02 -0.12792305421E+03 -0.33279442514E+03  0.36882647715E+03  0.81699722408E+02 0.  0.
          5    1    5    5  501    0  0.27056434845E+02 -0.12860137792E+03 -0.58857549612E+03  0.60308670165E+03  0.47000000000E+01 0. -1.
        -13    1    6    6    0    0 -0.56789538631E+02 -0.12268828088E+03 -0.33143059803E+03  0.35794372082E+03  0.00000000000E+00 0.  1.
         14    1    6    6    0    0  0.94430667256E+01 -0.52347733309E+01 -0.13638271132E+01  0.10882756333E+02  0.00000000000E+00 0. -1.
         -5    1    3    3    0  503 -0.47091007156E+02  0.16401883005E+03 -0.71997761036E+03  0.73993890895E+03  0.47000000000E+01 0.  1.
         11    1    4    4    0    0  0.33807150773E+02  0.21282275837E+02 -0.16821280322E+03  0.17289131232E+03  0.00000000000E+00 0. -1.
        -12    1    4    4    0    0  0.33573893445E+02  0.71223326232E+02 -0.13479268332E+03  0.15610584870E+03  0.00000000000E+00 0.  1.
</event>
<event>
12    1  0.1050869E+000  0.1983667E+03  0.7818608E-02  0.1151317E+00
         21   -1    0    0  501  502  0.00000000000E+00  0.00000000000E+00  0.11376788324E+03  0.11376788324E+03  0.00000000000E+00 0.  1.
         21   -1    0    0  502  503 -0.00000000000E+00 -0.00000000000E+00 -0.40023429070E+03  0.40023429070E+03  0.00000000000E+00 0.  1.
         -6    2    1    2    0  503 -0.94078430813E+02  0.15355904756E+02 -0.47440377085E+02  0.20396063871E+03  0.17396205854E+03 0.  0.
        -24    2    3    3    0    0 -0.12881121710E+03  0.80804398408E+01 -0.64381540055E+02  0.16435771160E+03  0.78808955743E+02 0.  0.
          6    2    1    2  501    0  0.94078430813E+02 -0.15355904756E+02 -0.23902603038E+03  0.31004153522E+03  0.17293280605E+03 0.  0.
         24    2    5    5    0    0 -0.96796313296E+01 -0.39530966923E+02 -0.11612506229E+03  0.14732427416E+03  0.81012462348E+02 0.  0.
          5    1    5    5  501    0  0.10375806214E+03  0.24175062167E+02 -0.12290096809E+03  0.16271726106E+03  0.47000000000E+01 0. -1.
        -11    1    6    6    0    0  0.66748301754E+01 -0.37374885432E+02 -0.12353716794E+03  0.12923957320E+03  0.00000000000E+00 0.  1.
         12    1    6    6    0    0 -0.16354461505E+02 -0.21560814904E+01  0.74121056489E+01  0.18084700956E+02  0.00000000000E+00 0. -1.
         -5    1    3    3    0  503  0.34732786286E+02  0.72754649150E+01  0.16941162970E+02  0.39602927110E+02  0.47000000000E+01 0.  1.
         11    1    4    4    0    0 -0.97571182263E+02  0.34079616516E+02 -0.22058353009E+02  0.10567935847E+03  0.00000000000E+00 0. -1.
        -12    1    4    4    0    0 -0.31240034836E+02 -0.25999176675E+02 -0.42323187045E+02  0.58678353130E+02  0.00000000000E+00 0.  1.
</event>
<event>
12    1  0.1050869E+000  0.3149324E+03  0.7818608E-02  0.1078093E+00
         21   -1    0    0  503  502  0.00000000000E+00  0.00000000000E+00  0.48995995521E+02  0.48995995521E+02  0.00000000000E+00 0.  1.
         21   -1    0    0  501  503 -0.00000000000E+00 -0.00000000000E+00 -0.21990513936E+04  0.21990513936E+04  0.00000000000E+00 0. -1.
          6    2    1    2  501    0  0.24207253780E+03 -0.10347766448E+03 -0.13950322121E+04  0.14299749942E+04  0.17148431619E+03 0.  0.
         24    2    3    3    0    0  0.12403991162E+03 -0.11533769846E+03 -0.10064694298E+04  0.10236801665E+04  0.79067602642E+02 0.  0.
         -6    2    1    2    0  502 -0.24207253780E+03  0.10347766448E+03 -0.75502318602E+03  0.81807239494E+03  0.17284586003E+03 0.  0.
        -24    2    5    5    0    0 -0.21582443471E+03  0.82127937392E+02 -0.45766084755E+03  0.51875446346E+03  0.79545944369E+02 0.  0.
          5    1    3    3  501    0  0.11803262618E+03  0.11860033986E+02 -0.38856278225E+03  0.40629482768E+03  0.47000000000E+01 0. -1.
        -13    1    4    4    0    0  0.32688368090E+02 -0.45547445096E+02 -0.16210704547E+03  0.17152782093E+03  0.00000000000E+00 0.  1.
         14    1    4    4    0    0  0.91351543533E+02 -0.69790253368E+02 -0.84436238438E+03  0.85215234561E+03  0.00000000000E+00 0. -1.
         -5    1    5    5    0  502 -0.26248103094E+02  0.21349727086E+02 -0.29736233847E+03  0.29931793147E+03  0.47000000000E+01 0.  1.
         13    1    6    6    0    0 -0.25245797959E+02 -0.54076437330E+00 -0.14012874134E+02  0.28879116714E+02  0.00000000000E+00 0. -1.
        -14    1    6    6    0    0 -0.19057863675E+03  0.82668701765E+02 -0.44364797342E+03  0.48987534675E+03  0.00000000000E+00 0.  1.
</event>
<event>
12    1  0.1050869E+000  0.4063498E+03  0.7818608E-02  0.1042189E+00
         21   -1    0    0  503  502  0.00000000000E+00  0.00000000000E+00  0.22801697697E+03  0.22801697697E+03  0.00000000000E+00 0. -1.
         21   -1    0    0  501  503 -0.00000000000E+00 -0.00000000000E+00 -0.71377779202E+03  0.71377779202E+03  0.00000000000E+00 0. -1.
          6    2    1    2  501    0 -0.26260038589E+03  0.24748327440E+03 -0.26420789919E+03  0.47897100492E+03  0.17146566941E+03 0.  0.
         24    2    3    3    0    0 -0.25347946127E+03  0.20700733025E+03 -0.17308860651E+03  0.37873972827E+03  0.79876429586E+02 0.  0.
         -6    2    1    2    0  502  0.26260038589E+03 -0.24748327440E+03 -0.22155291586E+03  0.46282376407E+03  0.18685076474E+03 0.  0.
        -24    2    5    5    0    0  0.10571024869E+03 -0.12672490660E+03 -0.25092913379E+02  0.18386907040E+03  0.77099430079E+02 0.  0.
          5    1    3    3  501    0 -0.91209246145E+01  0.40475944151E+02 -0.91119292681E+02  0.10023127665E+03  0.47000000000E+01 0. -1.
        -11    1    4    4    0    0 -0.64697908133E+02  0.87638856352E+02 -0.28258590437E+02  0.11253859957E+03  0.00000000000E+00 0.  1.
         12    1    4    4    0    0 -0.18878155314E+03  0.11936847390E+03 -0.14483001608E+03  0.26620112870E+03  0.00000000000E+00 0. -1.
         -5    1    5    5    0  502  0.15689013720E+03 -0.12075836780E+03 -0.19646000248E+03  0.27895469366E+03  0.47000000000E+01 0.  1.
         11    1    6    6    0    0  0.54452681360E+02 -0.11253178711E+03 -0.34882349923E+02  0.12978935224E+03  0.00000000000E+00 0. -1.
        -12    1    6    6    0    0  0.51257567327E+02 -0.14193119488E+02  0.97894365437E+01  0.54079718166E+02  0.00000000000E+00 0.  1.
</event>
<event>
12    1  0.1050869E+000  0.2235134E+03  0.7818608E-02  0.1131840E+00
         21   -1    0    0  503  502  0.00000000000E+00  0.00000000000E+00  0.49268979929E+03  0.49268979929E+03  0.00000000000E+00 0.  1.
         21   -1    0    0  501  503 -0.00000000000E+00 -0.00000000000E+00 -0.16117057392E+03  0.16117057392E+03  0.00000000000E+00 0.  1.
          6    2    1    2  501    0  0.61852391145E+02 -0.12644841265E+03  0.36778144289E+03  0.43037359305E+03  0.17361831847E+03 0.  0.
         24    2    3    3    0    0  0.81595807752E+02 -0.22910863572E+02  0.21681739071E+03  0.24619416526E+03  0.80118678117E+02 0.  0.
         -6    2    1    2    0  502 -0.61852391145E+02  0.12644841265E+03 -0.36262217527E+02  0.22348678016E+03  0.16975415498E+03 0.  0.
        -24    2    5    5    0    0 -0.10091060860E+03  0.88179300994E+02  0.41887206311E+01  0.15530732830E+03  0.78385462890E+02 0.  0.
          5    1    3    3  501    0 -0.19743416608E+02 -0.10353754908E+03  0.15096405218E+03  0.18417942779E+03  0.47000000000E+01 0. -1.
        -13    1    4    4    0    0  0.88189903315E+01 -0.10032205137E+02  0.13609200427E+03  0.13674594457E+03  0.00000000000E+00 0.  1.
         14    1    4    4    0    0  0.72776817421E+02 -0.12878658434E+02  0.80725386440E+02  0.10944822069E+03  0.00000000000E+00 0. -1.
         -5    1    5    5    0  502  0.39058217450E+02  0.38269111661E+02 -0.40450938158E+02  0.68179451857E+02  0.47000000000E+01 0.  1.
         11    1    6    6    0    0 -0.47933669455E+02  0.83742389954E+02 -0.17185464417E+02  0.98009003311E+02  0.00000000000E+00 0. -1.
        -12    1    6    6    0    0 -0.52976939140E+02  0.44369110396E+01  0.21374185048E+02  0.57298324990E+02  0.00000000000E+00 0.  1.
</event>
<event>
12    1  0.1050869E+000  0.2958048E+03  0.7818608E-02  0.1088166E+00
         21   -1    0    0  501  502  0.00000000000E+00  0.00000000000E+00  0.77347892410E+03  0.77347892410E+03  0.00000000000E+00 0. -1.
         21   -1    0    0  502  503 -0.00000000000E+00 -0.00000000000E+00 -0.12079279799E+03  0.12079279799E+03  0.00000000000E+00 0. -1.
         -6    2    1    2    0  503  0.22108044730E+03  0.92340727575E+02  0.45858126897E+03  0.54570805312E+03  0.17348522947E+03 0.  0.
        -24    2    3    3    0    0  0.72316800078E+02  0.95252488947E+02  0.26821893190E+03  0.30404918102E+03  0.78751208418E+02 0.  0.
          6    2    1    2  501    0 -0.22108044730E+03 -0.92340727575E+02  0.19410485714E+03  0.34856366897E+03  0.16253172494E+03 0.  0.
         24    2    5    5    0    0 -0.23991316186E+03 -0.83282208906E+02  0.16736425746E+03  0.31430177222E+03  0.79249970287E+02 0.  0.
          5    1    5    5  501    0  0.18832714556E+02 -0.90585186692E+01  0.26740599675E+02  0.34261896751E+02  0.47000000000E+01 0. -1.
        -11    1    6    6    0    0 -0.54990118086E+02  0.73421488340E+01  0.61231682954E+02  0.82626504428E+02  0.00000000000E+00 0.  1.
         12    1    6    6    0    0 -0.18492304377E+03 -0.90624357740E+02  0.10613257451E+03  0.23167526779E+03  0.00000000000E+00 0. -1.
         -5    1    3    3    0  503  0.14876364722E+03 -0.29117613720E+01  0.19036233707E+03  0.24165887210E+03  0.47000000000E+01 0.  1.
         13    1    4    4    0    0 -0.13073763101E+02  0.23598077424E+02  0.88931839101E+02  0.92933656689E+02  0.00000000000E+00 0. -1.
        -14    1    4    4    0    0  0.85390563179E+02  0.71654411522E+02  0.17928709280E+03  0.21111552434E+03  0.00000000000E+00 0.  1.
</event>
<event>
12    1  0.1050869E+000  0.2619070E+03  0.7818608E-02  0.1106073E+00
         21   -1    0    0  503  502  0.00000000000E+00  0.00000000000E+00  0.87035692400E+02  0.87035692400E+02  0.00000000000E+00 0.  1.
         21   -1    0    0  501  503 -0.00000000000E+00 -0.00000000000E+00 -0.80069814930E+03  0.80069814930E+03  0.00000000000E+00 0.  1.
          6    2    1    2  501    0 -0.44700976175E+02  0.19278125945E+03 -0.41518305128E+03  0.49063783122E+03  0.17083829807E+03 0.  0.
         24    2    3    3    0    0 -0.46393739088E+02  0.16518370040E+03 -0.20932121185E+03  0.28287431747E+03  0.82246433667E+02 0.  0.
         -6    2    1    2    0  502  0.44700976175E+02 -0.19278125945E+03 -0.29847940562E+03  0.39709601048E+03  0.17155901227E+03 0.  0.
        -24    2    5    5    0    0  0.83254387150E+02 -0.19087932306E+03 -0.24144107500E+03  0.32806381495E+03  0.77239012358E+02 0.  0.
          5    1    3    3  501    0  0.16927629133E+01  0.27597559058E+02 -0.20586183944E+03  0.20776351376E+03  0.47000000000E+01 0. -1.
        -13    1    4    4    0    0 -0.38034029818E+02  0.65546691606E+02 -0.38645293590E+02  0.85067120095E+02  0.00000000000E+00 0.  1.
         14    1    4    4    0    0 -0.83597092703E+01  0.99637008791E+02 -0.17067591826E+03  0.19780719737E+03  0.00000000000E+00 0. -1.
         -5    1    5    5    0  502 -0.38553410975E+02 -0.19019363962E+01 -0.57038330621E+02  0.69032195531E+02  0.47000000000E+01 0.  1.
         13    1    6    6    0    0  0.23356267442E+02 -0.20104263566E+02 -0.79305433653E+02  0.85082597805E+02  0.00000000000E+00 0. -1.
        -14    1    6    6    0    0  0.59898119708E+02 -0.17077505949E+03 -0.16213564134E+03  0.24298121714E+03  0.00000000000E+00 0.  1.
</event>
<event>
12    1  0.1050869E+000  0.2041519E+03  0.7818608E-02  0.1146997E+00
         21   -1    0    0  503  502  0.00000000000E+00  0.00000000000E+00  0.13753230644E+03  0.13753230644E+03  0.00000000000E+00 0. -1.
         21   -1    0    0  501  503 -0.00000000000E+00 -0.00000000000E+00 -0.32721483352E+03  0.32721483352E+03  0.00000000000E+00 0. -1.
          6    2    1    2  501    0  0.92064251094E+02  0.61929574264E+02 -0.24609147049E+02  0.20220721111E+03  0.16724547111E+03 0.  0.
         24    2    3    3    0    0  0.91003991605E+02  0.67118644936E+02 -0.70210684727E+02  0.15605917926E+03  0.81475690828E+02 0.  0.
         -6    2    1    2    0  502 -0.92064251094E+02 -0.61929574264E+02 -0.16507338004E+03  0.26253992885E+03  0.17136771850E+03 0.  0.
        -24    2    5    5    0    0 -0.10418029389E+02 -0.79885725816E+02 -0.12659901307E+03  0.17039387190E+03  0.80724822365E+02 0.  0.
          5    1    3    3  501    0  0.10602594884E+01 -0.51890706721E+01  0.45601537678E+02  0.46148031846E+02  0.47000000000E+01 0. -1.
        -11    1    4    4    0    0  0.99810763263E+02  0.34768946804E+02 -0.56389931808E+02  0.11979521081E+03  0.00000000000E+00 0.  1.
         12    1    4    4    0    0 -0.88067716571E+01  0.32349698132E+02 -0.13820752919E+02  0.36263968447E+02  0.00000000000E+00 0. -1.
         -5    1    5    5    0  502 -0.81646221705E+02  0.17956151552E+02 -0.38474366963E+02  0.92146056944E+02  0.47000000000E+01 0.  1.
         11    1    6    6    0    0 -0.26267188942E+02 -0.88920795985E+01 -0.42514390767E+01  0.28055463438E+02  0.00000000000E+00 0. -1.
        -12    1    6    6    0    0  0.15849159553E+02 -0.70993646217E+02 -0.12234757400E+03  0.14233840847E+03  0.00000000000E+00 0.  1.
</event>
<event>
12    1  0.1050869E+000  0.2443121E+03  0.7818608E-02  0.1117211E+00
         21   -1    0    0  503  502  0.00000000000E+00  0.00000000000E+00  0.12940522065E+03  0.12940522065E+03  0.00000000000E+00 0. -1.
         21   -1    0    0  501  503 -0.00000000000E+00 -0.00000000000E+00 -0.56810111762E+03  0.56810111762E+03  0.00000000000E+00 0. -1.
          6    2    1    2  501    0  0.16950273440E+03  0.32385749080E+02 -0.65433203011E+02  0.25139712176E+03  0.17070147938E+03 0.  0.
         24    2    3    3    0    0  0.72222627579E+02 -0.47218093755E+02 -0.34118129636E+02  0.12177106421E+03  0.78857396584E+02 0.  0.
         -6    2    1    2    0  502 -0.16950273440E+03 -0.32385749080E+02 -0.37326269396E+03  0.44610921651E+03  0.17294039622E+03 0.  0.
        -24    2    5    5    0    0 -0.65964706952E+02  0.42554590923E+02 -0.13177811146E+03  0.17284547711E+03  0.79673411661E+02 0.  0.
          5    1    3    3  501    0  0.97280106820E+02  0.79603842835E+02 -0.31315073375E+02  0.12962605756E+03  0.47000000000E+01 0. -1.
        -13    1    4    4    0    0  0.37932162766E+02 -0.81320478763E+01 -0.53668361690E+02  0.66221387944E+02  0.00000000000E+00 0.  1.
         14    1    4    4    0    0  0.34290464813E+02 -0.39086045879E+02  0.19550232054E+02  0.55549676263E+02  0.00000000000E+00 0. -1.
         -5    1    5    5    0  502 -0.10353802745E+03 -0.74940340003E+02 -0.24148458250E+03  0.27326373940E+03  0.47000000000E+01 0.  1.
         13    1    6    6    0    0 -0.29644066313E+02  0.14246792118E+02 -0.12121841459E+03  0.12560113769E+03  0.00000000000E+00 0. -1.
        -14    1    6    6    0    0 -0.36320640639E+02  0.28307798806E+02 -0.10559696875E+02  0.47244339426E+02  0.00000000000E+00 0.  1.
</event>
<event>
12    1  0.1050869E+000  0.1821687E+03  0.7818608E-02  0.1166077E+00
         21   -1    0    0  503  502  0.00000000000E+00  0.00000000000E+00  0.64558331406E+03  0.64558331406E+03  0.00000000000E+00 0. -1.
         21   -1    0    0  501  503 -0.00000000000E+00 -0.00000000000E+00 -0.56517191879E+02  0.56517191879E+02  0.00000000000E+00 0. -1.
          6    2    1    2  501    0  0.20233109238E+02 -0.52528328025E+02  0.40327703463E+03  0.44190243350E+03  0.17168806050E+03 0.  0.
         24    2    3    3    0    0  0.17323466500E+02 -0.45214762836E+02  0.93281714522E+02  0.13177158572E+03  0.79484559940E+02 0.  0.
         -6    2    1    2    0  502 -0.20233109238E+02  0.52528328025E+02  0.18578908755E+03  0.26019807244E+03  0.17325370961E+03 0.  0.
        -24    2    5    5    0    0  0.49065215214E+02  0.97346862510E+01  0.13364798747E+03  0.16337690809E+03  0.79549167704E+02 0.  0.
          5    1    3    3  501    0  0.29096427383E+01 -0.73135651892E+01  0.30999532010E+03  0.31013084778E+03  0.47000000000E+01 0. -1.
        -11    1    4    4    0    0  0.41551403032E+02 -0.47161370888E+02  0.85762078385E+02  0.10632896166E+03  0.00000000000E+00 0.  1.
         12    1    4    4    0    0 -0.24227936533E+02  0.19466080520E+01  0.75196361369E+01  0.25442624062E+02  0.00000000000E+00 0. -1.
         -5    1    5    5    0  502 -0.69298324452E+02  0.42793641774E+02  0.52141100083E+02  0.96821164350E+02  0.47000000000E+01 0.  1.
         13    1    6    6    0    0  0.13802597315E+02  0.19115802453E+02 -0.12694308995E+01  0.23612222488E+02  0.00000000000E+00 0. -1.
        -14    1    6    6    0    0  0.35262617899E+02 -0.93811162016E+01  0.13491741837E+03  0.13976468560E+03  0.00000000000E+00 0.  1.
</event>
<event>
12    1  0.1050869E+000  0.1818137E+03  0.7818608E-02  0.1166552E+00
         21   -1    0    0  503  502  0.00000000000E+00  0.00000000000E+00  0.36177838518E+03  0.36177838518E+03  0.00000000000E+00 0.  1.
         21   -1    0    0  501  503 -0.00000000000E+00 -0.00000000000E+00 -0.21371085671E+03  0.21371085671E+03  0.00000000000E+00 0.  1.
          6    2    1    2  501    0  0.19867898582E+01  0.50692339023E+02  0.29247651827E+03  0.34330357277E+03  0.17245628076E+03 0.  0.
         24    2    3    3    0    0  0.39368266998E+02  0.39850044216E+02  0.72541538822E+02  0.11990165834E+03  0.77306185700E+02 0.  0.
         -6    2    1    2    0  502 -0.19867898582E+01 -0.50692339023E+02 -0.14440898979E+03  0.23218566912E+03  0.17459257728E+03 0.  0.
        -24    2    5    5    0    0  0.46331352035E+01 -0.25496128505E+02 -0.17352982086E+03  0.19283106031E+03  0.79998128598E+02 0.  0.
          5    1    3    3  501    0 -0.37381477140E+02  0.10842294807E+02  0.21993497944E+03  0.22340191443E+03  0.47000000000E+01 0. -1.
        -11    1    4    4    0    0  0.62455282436E+02  0.22945753027E+02  0.46151665654E+02  0.80976207177E+02  0.00000000000E+00 0.  1.
         12    1    4    4    0    0 -0.23087015438E+02  0.16904291190E+02  0.26389873168E+02  0.38925451163E+02  0.00000000000E+00 0. -1.
         -5    1    5    5    0  502 -0.66199250617E+01 -0.25196210518E+02  0.29120831075E+02  0.39354608812E+02  0.47000000000E+01 0.  1.
         13    1    6    6    0    0 -0.11049894539E+02 -0.51940561802E+02 -0.11681984458E+03  0.12832302294E+03  0.00000000000E+00 0. -1.
        -14    1    6    6    0    0  0.15683029743E+02  0.26444433296E+02 -0.56709976283E+02  0.64508037362E+02  0.00000000000E+00 0.  1.
</event>
<event>
12    1  0.1050869E+000  0.2167704E+03  0.7818608E-02  0.1136775E+00
         21   -1    0    0  501  502  0.00000000000E+00  0.00000000000E+00  0.43699637602E+03  0.43699637602E+03  0.00000000000E+00 0. -1.
         21   -1    0    0  502  503 -0.00000000000E+00 -0.00000000000E+00 -0.18205536315E+03  0.18205536315E+03  0.00000000000E+00 0. -1.
         -6    2    1    2    0  503  0.65395319854E+02  0.11344681025E+03 -0.72563229405E+02  0.22630701812E+03  0.16971363403E+03 0.  0.
        -24    2    3    3    0    0  0.10600429021E+03  0.68722478894E+02 -0.30357567561E+02  0.15246419735E+03  0.79775064508E+02 0.  0.
          6    2    1    2  501    0 -0.65395319854E+02 -0.11344681025E+03  0.32750424227E+03  0.39274472104E+03  0.17275028388E+03 0.  0.
         24    2    5    5    0    0 -0.80596782179E+02 -0.88944288914E+02  0.13348392615E+03  0.19653709867E+03  0.80012153976E+02 0.  0.
          5    1    5    5  501    0  0.15201462325E+02 -0.24502521339E+02  0.19402031612E+03  0.19620762237E+03  0.47000000000E+01 0. -1.
        -13    1    6    6    0    0 -0.54163883697E+02 -0.70158325276E+02  0.39353619133E+02  0.96977441921E+02  0.00000000000E+00 0.  1.
         14    1    6    6    0    0 -0.26432898482E+02 -0.18785963638E+02  0.94130307022E+02  0.99559656749E+02  0.00000000000E+00 0. -1.
         -5    1    3    3    0  503 -0.40608970352E+02  0.44724331360E+02 -0.42205661844E+02  0.73842820777E+02  0.47000000000E+01 0.  1.
         13    1    4    4    0    0  0.38317705835E+02  0.94043942024E+01 -0.46547153722E+02  0.61019068580E+02  0.00000000000E+00 0. -1.
        -14    1    4    4    0    0  0.67686584371E+02  0.59318084691E+02  0.16189586161E+02  0.91445128768E+02  0.00000000000E+00 0.  1.
</event>
<event>
12    1  0.1050869E+000  0.2056426E+03  0.7818608E-02  0.1145099E+00
         21   -1    0    0  503  502  0.00000000000E+00  0.00000000000E+00  0.11154957389E+04  0.11154957389E+04  0.00000000000E+00 0.  1.
         21   -1    0    0  501  503 -0.00000000000E+00 -0.00000000000E+00 -0.39095820334E+02  0.39095820334E+02  0.00000000000E+00 0. -1.
          6    2    1    2  501    0 -0.27283140940E+01 -0.11444006526E+03  0.63983373890E+03  0.67201628337E+03  0.17063030051E+03 0.  0.
         24    2    3    3    0    0 -0.60052856978E+02 -0.22541954609E+02  0.19204621607E+03  0.21129172188E+03  0.60398321847E+02 0.  0.
         -6    2    1    2    0  502  0.27283140940E+01  0.11444006526E+03  0.43656617962E+03  0.48257527582E+03  0.17083587270E+03 0.  0.
        -24    2    5    5    0    0 -0.36482843121E+02  0.78159366943E+02  0.39983622934E+03  0.41757540528E+03  0.84025736094E+02 0.  0.
          5    1    3    3  501    0  0.57324542884E+02 -0.91898110656E+02  0.44778752283E+03  0.46072456149E+03  0.47000000000E+01 0. -1.
        -11    1    4    4    0    0 -0.30665794372E+02 -0.14538676634E+02  0.17084173797E+03  0.17417997444E+03  0.00000000000E+00 0.  1.
         12    1    4    4    0    0 -0.29387062606E+02 -0.80032779742E+01  0.21204478094E+02  0.37111747442E+02  0.00000000000E+00 0. -1.
         -5    1    5    5    0  502  0.39211157215E+02  0.36280698322E+02  0.36729950288E+02  0.64999870531E+02  0.47000000000E+01 0.  1.
         11    1    6    6    0    0 -0.15866298657E+02  0.84430920095E+02  0.21563599020E+03  0.23211893497E+03  0.00000000000E+00 0. -1.
        -12    1    6    6    0    0 -0.20616544464E+02 -0.62715531525E+01  0.18420023913E+03  0.18545647032E+03  0.00000000000E+00 0.  1.
</event>
<event>
12    1  0.1050869E+000  0.1882828E+03  0.7818608E-02  0.1160752E+00
         21   -1    0    0  501  502  0.00000000000E+00  0.00000000000E+00  0.13986186632E+03  0.13986186632E+03  0.00000000000E+00 0. -1.
         21   -1    0    0  502  503 -0.00000000000E+00 -0.00000000000E+00 -0.39056894943E+03  0.39056894943E+03  0.00000000000E+00 0. -1.
         -6    2    1    2    0  503 -0.63243693098E+02  0.24642493333E+02  0.33520177196E+02  0.19124330475E+03  0.17562284060E+03 0.  0.
        -24    2    3    3    0    0 -0.93611706412E+02 -0.25049773357E+02  0.36617243459E+02  0.13273501969E+03  0.82988675198E+02 0.  0.
          6    2    1    2  501    0  0.63243693098E+02 -0.24642493333E+02 -0.28422726031E+03  0.33918751099E+03  0.17220921844E+03 0.  0.
         24    2    5    5    0    0 -0.13602489699E+01  0.56644590330E+01 -0.52582439031E+02  0.96754852473E+02  0.81010198180E+02 0.  0.
          5    1    5    5  501    0  0.64603942068E+02 -0.30306952366E+02 -0.23164482128E+03  0.24243265852E+03  0.47000000000E+01 0. -1.
        -13    1    6    6    0    0  0.32792923889E+02 -0.20046073121E+02 -0.23460519539E+02  0.45029067077E+02  0.00000000000E+00 0.  1.
         14    1    6    6    0    0 -0.34153172859E+02  0.25710532154E+02 -0.29121919492E+02  0.51725785396E+02  0.00000000000E+00 0. -1.
         -5    1    3    3    0  503  0.30368013314E+02  0.49692266690E+02 -0.30970662632E+01  0.58508285062E+02  0.47000000000E+01 0.  1.
         13    1    4    4    0    0  0.11349163184E+02  0.11712774965E+02  0.33100146528E+01  0.16641778732E+02  0.00000000000E+00 0. -1.
        -14    1    4    4    0    0 -0.10496086960E+03 -0.36762548323E+02  0.33307228807E+02  0.11609324096E+03  0.00000000000E+00 0.  1.
</event>
<event>
12    1  0.1050869E+000  0.3087027E+03  0.7818608E-02  0.1081401E+00
         21   -1    0    0  503  502  0.00000000000E+00  0.00000000000E+00  0.32458185122E+03  0.32458185122E+03  0.00000000000E+00 0.  1.
         21   -1    0    0  501  503 -0.00000000000E+00 -0.00000000000E+00 -0.57477125988E+03  0.57477125988E+03  0.00000000000E+00 0. -1.
          6    2    1    2  501    0  0.12614484403E+03 -0.21699839556E+03  0.19093075083E+03  0.36297647924E+03  0.17971240223E+03 0.  0.
         24    2    3    3    0    0  0.81020629965E+02 -0.13737444907E+03  0.38018749243E+02  0.18470607289E+03  0.85057782310E+02 0.  0.
         -6    2    1    2    0  502 -0.12614484403E+03  0.21699839556E+03 -0.44112015948E+03  0.53637663187E+03  0.17352829959E+03 0.  0.
        -24    2    5    5    0    0 -0.14877164433E+02  0.34859414819E+02 -0.10057784240E+03  0.13444844854E+03  0.80771121754E+02 0.  0.
          5    1    3    3  501    0  0.45124214066E+02 -0.79623946491E+02  0.15291200159E+03  0.17827040635E+03  0.47000000000E+01 0. -1.
        -13    1    4    4    0    0  0.48000618549E+02 -0.14755877779E+02  0.27575763982E+02  0.57290645565E+02  0.00000000000E+00 0.  1.
         14    1    4    4    0    0  0.33020011416E+02 -0.12261857129E+03  0.10442985261E+02  0.12741542732E+03  0.00000000000E+00 0. -1.
         -5    1    5    5    0  502 -0.11126767960E+03  0.18213898074E+03 -0.34054231709E+03  0.40192818333E+03  0.47000000000E+01 0.  1.
         13    1    6    6    0    0  0.29930203566E+02  0.32736854651E+02 -0.49152412580E+02  0.66207842439E+02  0.00000000000E+00 0. -1.
        -14    1    6    6    0    0 -0.44807367999E+02  0.21225601681E+01 -0.51425429817E+02  0.68240606098E+02  0.00000000000E+00 0.  1.
</event>
<event>
12    1  0.1050869E+000  0.1853906E+03  0.7818608E-02  0.1164168E+00
         21   -1    0    0  503  502  0.00000000000E+00  0.00000000000E+00  0.38807233432E+02  0.38807233432E+02  0.00000000000E+00 0.  1.
         21   -1    0    0  501  503 -0.00000000000E+00 -0.00000000000E+00 -0.86366509252E+03  0.86366509252E+03  0.00000000000E+00 0.  1.
          6    2    1    2  501    0 -0.10283724137E+01  0.49026997298E+02 -0.37705093168E+03  0.42016315021E+03  0.17878748195E+03 0.  0.
         24    2    3    3    0    0 -0.15194164874E+02  0.99454279820E+02 -0.30536431200E+03  0.33125509692E+03  0.79753117645E+02 0.  0.
         -6    2    1    2    0  502  0.10283724137E+01 -0.49026997298E+02 -0.44780692740E+03  0.48230917574E+03  0.17229739625E+03 0.  0.
        -24    2    5    5    0    0 -0.26924510696E+01 -0.10142115999E+03 -0.36596633216E+03  0.38494919503E+03  0.62936678467E+02 0.  0.
          5    1    3    3  501    0  0.14165792460E+02 -0.50427282522E+02 -0.71686619684E+02  0.88908053293E+02  0.47000000000E+01 0. -1.
        -11    1    4    4    0    0  0.26154305913E+02  0.19455317215E+02 -0.13117754574E+03  0.13516695451E+03  0.00000000000E+00 0.  1.
         12    1    4    4    0    0 -0.41348470787E+02  0.79998962605E+02 -0.17418676626E+03  0.19608814241E+03  0.00000000000E+00 0. -1.
         -5    1    5    5    0  502  0.37208234832E+01  0.52394162696E+02 -0.81840595249E+02  0.97359980705E+02  0.47000000000E+01 0.  1.
         11    1    6    6    0    0  0.20217278439E+02 -0.44255040121E+02 -0.23815347295E+03  0.24307267144E+03  0.00000000000E+00 0. -1.
        -12    1    6    6    0    0 -0.22909729509E+02 -0.57166119873E+02 -0.12781285920E+03  0.14187652359E+03  0.00000000000E+00 0.  1.
</event>
<event>
12    1  0.1050869E+000  0.1895870E+03  0.7818608E-02  0.1158840E+00
         21   -1    0    0  501  502  0.00000000000E+00  0.00000000000E+00  0.23551429687E+03  0.23551429687E+03  0.00000000000E+00 0.  1.
         21   -1    0    0  502  503 -0.00000000000E+00 -0.00000000000E+00 -0.16206849631E+03  0.16206849631E+03  0.00000000000E+00 0.  1.
         -6    2    1    2    0  503  0.81509674553E+02 -0.19849763626E+02 -0.11338961112E+02  0.18992579210E+03  0.17001586485E+03 0.  0.
        -24    2    3    3    0    0 -0.22666297342E+01 -0.39149388014E+02  0.33081263370E+02  0.93043435576E+02  0.77620221112E+02 0.  0.
          6    2    1    2  501    0 -0.81509674553E+02  0.19849763626E+02  0.84784761670E+02  0.20765700109E+03  0.16998568801E+03 0.  0.
         24    2    5    5    0    0 -0.27789637785E+02  0.26242632422E+02  0.11462662651E+03  0.14569460912E+03  0.81404642955E+02 0.  0.
          5    1    5    5  501    0 -0.53720036768E+02 -0.63928687962E+01 -0.29841864844E+02  0.61962391974E+02  0.47000000000E+01 0. -1.
        -11    1    6    6    0    0 -0.41370723786E+02  0.24606907124E+02  0.12127992731E+03  0.13048316915E+03  0.00000000000E+00 0.  1.
         12    1    6    6    0    0  0.13581086001E+02  0.16357252976E+01 -0.66533007941E+01  0.15211439961E+02  0.00000000000E+00 0. -1.
         -5    1    3    3    0  503  0.83776304287E+02  0.19299624388E+02 -0.44420224483E+02  0.96882356519E+02  0.47000000000E+01 0.  1.
         11    1    4    4    0    0  0.33345292477E+02 -0.89330094583E+01 -0.20798130285E+01  0.34583707300E+02  0.00000000000E+00 0. -1.
        -12    1    4    4    0    0 -0.35611922212E+02 -0.30216378555E+02  0.35161076399E+02  0.58459728276E+02  0.00000000000E+00 0.  1.
</event>
<event>
12    1  0.1050869E+000  0.1754310E+03  0.7818608E-02  0.1172330E+00
         21   -1    0    0  501  502  0.00000000000E+00  0.00000000000E+00  0.16555407061E+04  0.16555407061E+04  0.00000000000E+00 0.  1.
         21   -1    0    0  502  503 -0.00000000000E+00 -0.00000000000E+00 -0.23558851852E+02  0.23558851852E+02  0.00000000000E+00 0.  1.
         -6    2    1    2    0  503 -0.21842404081E+02 -0.30350337039E+02  0.12022963170E+04  0.12150277594E+04  0.17139949994E+03 0.  0.
        -24    2    3    3    0    0  0.50940422792E+02 -0.34914281881E+02  0.78004882235E+03  0.78650330706E+03  0.79355863185E+02 0.  0.
          6    2    1    2  501    0  0.21842404081E+02  0.30350337039E+02  0.42968553724E+03  0.46407179858E+03  0.17127387352E+03 0.  0.
         24    2    5    5    0    0  0.53169803490E+02  0.75813391336E+02  0.30842505503E+03  0.33075079571E+03  0.75467714853E+02 0.  0.
          5    1    5    5  501    0 -0.31327399409E+02 -0.45463054297E+02  0.12126048221E+03  0.13332100287E+03  0.47000000000E+01 0. -1.
        -13    1    6    6    0    0 -0.14200833462E+01  0.63121939354E+02  0.17451638616E+03  0.18558654289E+03  0.00000000000E+00 0.  1.
         14    1    6    6    0    0  0.54589886836E+02  0.12691451982E+02  0.13390866887E+03  0.14516425282E+03  0.00000000000E+00 0. -1.
         -5    1    3    3    0  503 -0.72782826873E+02  0.45639448423E+01  0.42224749469E+03  0.42852445234E+03  0.47000000000E+01 0.  1.
         13    1    4    4    0    0  0.63135531133E+02 -0.45932305068E+02  0.50865204359E+03  0.51460934056E+03  0.00000000000E+00 0. -1.
        -14    1    4    4    0    0 -0.12195108341E+02  0.11018023187E+02  0.27139677876E+03  0.27189396651E+03  0.00000000000E+00 0.  1.
</event>
<event>
12    1  0.1050869E+000  0.1908280E+03  0.7818608E-02  0.1157804E+00
         21   -1    0    0  501  502  0.00000000000E+00  0.00000000000E+00  0.48184887198E+03  0.48184887198E+03  0.00000000000E+00 0.  1.
         21   -1    0    0  502  503 -0.00000000000E+00 -0.00000000000E+00 -0.18988254024E+03  0.18988254024E+03  0.00000000000E+00 0.  1.
         -6    2    1    2    0  503  0.46187063089E+02  0.68267842171E+02  0.40669269154E+03  0.44907141287E+03  0.17167540719E+03 0.  0.
        -24    2    3    3    0    0  0.75852341213E+01 -0.29313514760E+02  0.20263719010E+03  0.21956550861E+03  0.78932653810E+02 0.  0.
          6    2    1    2  501    0 -0.46187063089E+02 -0.68267842171E+02 -0.11472635980E+03  0.22265999935E+03  0.17210925195E+03 0.  0.
         24    2    5    5    0    0  0.12631731589E+02 -0.30074602602E+02  0.21538935135E+01  0.86272838038E+02  0.79839344695E+02 0.  0.
          5    1    5    5  501    0 -0.58818794679E+02 -0.38193239569E+02 -0.11688025331E+03  0.13638716131E+03  0.47000000000E+01 0. -1.
        -11    1    6    6    0    0 -0.31169458540E+02 -0.25763292681E+02 -0.77128265379E+01  0.41167585412E+02  0.00000000000E+00 0.  1.
         12    1    6    6    0    0  0.43801190129E+02 -0.43113099214E+01  0.98667200514E+01  0.45105252627E+02  0.00000000000E+00 0. -1.
         -5    1    3    3    0  503  0.38601828968E+02  0.97581356931E+02  0.20405550144E+03  0.22950590426E+03  0.47000000000E+01 0.  1.
         11    1    4    4    0    0  0.27155608893E+02  0.17360957237E+02  0.10110676900E+03  0.10611978453E+03  0.00000000000E+00 0. -1.
        -12    1    4    4    0    0 -0.19570374772E+02 -0.46674471997E+02  0.10153042110E+03  0.11344572408E+03  0.00000000000E+00 0.  1.
</event>
<event>
12    1  0.1050869E+000  0.2354677E+03  0.7818608E-02  0.1122997E+00
         21   -1    0    0  503  502  0.00000000000E+00  0.00000000000E+00  0.16308079443E+03  0.16308079443E+03  0.00000000000E+00 0. -1.
         21   -1    0    0  501  503 -0.00000000000E+00 -0.00000000000E+00 -0.36291267750E+03  0.36291267750E+03  0.00000000000E+00 0. -1.
          6    2    1    2  501    0 -0.22480044610E+02 -0.15880475891E+03 -0.16762133714E+03  0.28833289369E+03  0.17121518934E+03 0.  0.
         24    2    3    3    0    0  0.33869186743E+02 -0.42353287394E+02 -0.32620713644E+02  0.10129428956E+03  0.79091714953E+02 0.  0.
         -6    2    1    2    0  502  0.22480044610E+02  0.15880475891E+03 -0.32210545938E+02  0.23766057825E+03  0.17239700497E+03 0.  0.
        -24    2    5    5    0    0  0.15086958632E+02  0.17936670319E+03 -0.56131394818E+02  0.20492301139E+03  0.80266285429E+02 0.  0.
          5    1    3    3  501    0 -0.56349231353E+02 -0.11645147152E+03 -0.13500062349E+03  0.18703860413E+03  0.47000000000E+01 0. -1.
        -13    1    4    4    0    0 -0.97599238325E+00 -0.18659939065E+02 -0.51748502041E+02  0.55018663656E+02  0.00000000000E+00 0.  1.
         14    1    4    4    0    0  0.34845179126E+02 -0.23693348329E+02  0.19127788397E+02  0.46275625899E+02  0.00000000000E+00 0. -1.
         -5    1    5    5    0  502  0.73930859778E+01 -0.20561944278E+02  0.23920848880E+02  0.32737566860E+02  0.47000000000E+01 0.  1.
         13    1    6    6    0    0  0.21717043561E+02  0.21807049621E+02 -0.33696869669E+02  0.45636130639E+02  0.00000000000E+00 0. -1.
        -14    1    6    6    0    0 -0.66300849288E+01  0.15755965357E+03 -0.22434525149E+02  0.15928688075E+03  0.00000000000E+00 0.  1.
</event>
<event>
12    1  0.1050869E+000  0.1915719E+03  0.7818608E-02  0.1157204E+00
         21   -1    0    0  501  502  0.00000000000E+00  0.00000000000E+00  0.35786584168E+03  0.35786584168E+03  0.00000000000E+00 0.  1.
         21   -1    0    0  502  503 -0.00000000000E+00 -0.00000000000E+00 -0.17618686776E+03  0.17618686776E+03  0.00000000000E+00 0. -1.
         -6    2    1    2    0  503  0.61194657614E+02  0.53431835776E+02  0.26380104714E+03  0.32562086272E+03  0.17273739193E+03 0.  0.
        -24    2    3    3    0    0  0.29429877570E+02  0.10139990524E+03  0.18652791670E+03  0.22916795387E+03  0.81100116476E+02 0.  0.
          6    2    1    2  501    0 -0.61194657614E+02 -0.53431835776E+02 -0.82122073214E+02  0.20843184673E+03  0.17349366739E+03 0.  0.
         24    2    5    5    0    0 -0.68416265552E+02 -0.41790556080E+02 -0.12169257683E+03  0.16629414662E+03  0.80108825829E+02 0.  0.
          5    1    5    5  501    0  0.72216079383E+01 -0.11641279696E+02  0.39570503612E+02  0.42137700106E+02  0.47000000000E+01 0. -1.
        -11    1    6    6    0    0  0.18317357434E+02 -0.64036847894E+01 -0.25273923365E+02  0.31863834742E+02  0.00000000000E+00 0.  1.
         12    1    6    6    0    0 -0.86733622986E+02 -0.35386871291E+02 -0.96418653461E+02  0.13443031188E+03  0.00000000000E+00 0. -1.
         -5    1    3    3    0  503  0.31764780043E+02 -0.47968069463E+02  0.77273130432E+02  0.96452908852E+02  0.47000000000E+01 0.  1.
         13    1    4    4    0    0  0.87556312332E+01  0.88246948873E+02  0.78619789211E+02  0.11851268421E+03  0.00000000000E+00 0. -1.
        -14    1    4    4    0    0  0.20674246337E+02  0.13152956367E+02  0.10790812749E+03  0.11065526965E+03  0.00000000000E+00 0.  1.
</event>
<event>
12    1  0.1050869E+000  0.2341909E+03  0.7818608E-02  0.1125362E+00
         21   -1    0    0  503  502  0.00000000000E+00  0.00000000000E+00  0.83312680412E+03  0.83312680412E+03  0.00000000000E+00 0. -1.
         21   -1    0    0  501  503 -0.00000000000E+00 -0.00000000000E+00 -0.94435072021E+02  0.94435072021E+02  0.00000000000E+00 0. -1.
          6    2    1    2  501    0 -0.40907263674E+02  0.13742362793E+03  0.64090523543E+03  0.68235247287E+03  0.18516673216E+03 0.  0.
         24    2    3    3    0    0 -0.40594630449E+02  0.25400877707E+02  0.13663070656E+03  0.16576357948E+03  0.80724752696E+02 0.  0.
         -6    2    1    2    0  502  0.40907263674E+02 -0.13742362793E+03  0.97786496671E+02  0.24520940327E+03  0.17322469451E+03 0.  0.
        -24    2    5    5    0    0  0.61040229462E+02 -0.18329086273E+02  0.47977430987E+02  0.11447348935E+03  0.82100431573E+02 0.  0.
          5    1    3    3  501    0 -0.31263322447E+00  0.11202275022E+03  0.50427452888E+03  0.51658889340E+03  0.47000000000E+01 0. -1.
        -13    1    4    4    0    0 -0.20446909348E+02  0.43471361234E+02  0.12898408628E+03  0.13763985565E+03  0.00000000000E+00 0.  1.
         14    1    4    4    0    0 -0.20147721101E+02 -0.18070483527E+02  0.76466202777E+01  0.28123723832E+02  0.00000000000E+00 0. -1.
         -5    1    5    5    0  502 -0.20132965788E+02 -0.11909454166E+03  0.49809065684E+02  0.13073591392E+03  0.47000000000E+01 0.  1.
         11    1    6    6    0    0  0.84628584247E+01  0.16726649500E+02  0.47731500066E+02  0.51280570148E+02  0.00000000000E+00 0. -1.
        -12    1    6    6    0    0  0.52577371037E+02 -0.35055735772E+02  0.24593092090E+00  0.63192919206E+02  0.00000000000E+00 0.  1.
</event>
<event>
12    1  0.1050869E+000  0.4577970E+03  0.7818608E-02  0.1025486E+00
         21   -1    0    0  501  502  0.00000000000E+00  0.00000000000E+00  0.39197441195E+03  0.39197441195E+03  0.00000000000E+00 0.  1.
         21   -1    0    0  502  503 -0.00000000000E+00 -0.00000000000E+00 -0.83668184418E+03  0.83668184418E+03  0.00000000000E+00 0.  1.
         -6    2    1    2    0  503 -0.12085129623E+03  0.40666091489E+03  0.14722345843E+03  0.48088759989E+03  0.17204650974E+03 0.  0.
        -24    2    3    3    0    0 -0.63835291715E+02  0.19545569004E+03  0.57473473474E+01  0.22031889152E+03  0.78927249545E+02 0.  0.
          6    2    1    2  501    0  0.12085129623E+03 -0.40666091489E+03 -0.59193089066E+03  0.74776865624E+03  0.16969869899E+03 0.  0.
         24    2    5    5    0    0  0.88836597967E+01 -0.87651928822E+02 -0.15279522973E+03  0.19354333789E+03  0.79692291822E+02 0.  0.
          5    1    5    5  501    0  0.11196763644E+03 -0.31900898607E+03 -0.43913566093E+03  0.55422531836E+03  0.47000000000E+01 0. -1.
        -13    1    6    6    0    0 -0.87931410023E+01 -0.68173046063E+02 -0.44001799264E+02  0.81615206161E+02  0.00000000000E+00 0.  1.
         14    1    6    6    0    0  0.17676800799E+02 -0.19478882759E+02 -0.10879343046E+03  0.11192813173E+03  0.00000000000E+00 0. -1.
         -5    1    3    3    0  503 -0.57016004519E+02  0.21120522485E+03  0.14147611108E+03  0.26056870837E+03  0.47000000000E+01 0.  1.
         11    1    4    4    0    0 -0.82134408168E+02  0.14987614024E+03  0.85814960807E+01  0.17112147876E+03  0.00000000000E+00 0. -1.
        -12    1    4    4    0    0  0.18299116453E+02  0.45579549799E+02 -0.28341487333E+01  0.49197412756E+02  0.00000000000E+00 0.  1.
</event>
<event>
12    1  0.1050869E+000  0.1880331E+03  0.7818608E-02  0.1160953E+00
         21   -1    0    0  503  502  0.00000000000E+00  0.00000000000E+00  0.12793955429E+03  0.12793955429E+03  0.00000000000E+00 0.  1.
         21   -1    0    0  501  503 -0.00000000000E+00 -0.00000000000E+00 -0.29724027621E+03  0.29724027621E+03  0.00000000000E+00 0.  1.
          6    2    1    2  501    0 -0.44012866329E+02 -0.51967858614E+02 -0.21913534521E+02  0.18626677676E+03  0.17198057564E+03 0.  0.
         24    2    3    3    0    0 -0.70538555963E+02 -0.80093992513E+01  0.32618894041E+02  0.11122122976E+03  0.79160162622E+02 0.  0.
         -6    2    1    2    0  502  0.44012866329E+02  0.51967858614E+02 -0.14738718739E+03  0.23891305374E+03  0.17526743425E+03 0.  0.
        -24    2    5    5    0    0  0.91393881779E+02  0.57090234750E+02 -0.13521643109E+03  0.18950235985E+03  0.77559813182E+02 0.  0.
          5    1    3    3  501    0  0.26525689634E+02 -0.43958459363E+02 -0.54532428563E+02  0.75045547004E+02  0.47000000000E+01 0. -1.
        -11    1    4    4    0    0 -0.75781421532E+02 -0.28938264392E+02  0.37075968766E+02  0.89190102900E+02  0.00000000000E+00 0.  1.
         12    1    4    4    0    0  0.52428655687E+01  0.20928865141E+02 -0.44570747245E+01  0.22031126856E+02  0.00000000000E+00 0. -1.
         -5    1    5    5    0  502 -0.47381015450E+02 -0.51223761351E+01 -0.12170756307E+02  0.49410693897E+02  0.47000000000E+01 0.  1.
         11    1    6    6    0    0  0.36346243624E+02  0.32896624218E+02 -0.92046234693E+01  0.49879478784E+02  0.00000000000E+00 0. -1.
        -12    1    6    6    0    0  0.55047638155E+02  0.24193610532E+02 -0.12601180762E+03  0.13962288106E+03  0.00000000000E+00 0.  1.
</event>
<event>
12    1  0.1050869E+000  0.2842683E+03  0.7818608E-02  0.1094448E+00
         21   -1    0    0  501  502  0.00000000000E+00  0.00000000000E+00  0.18571651390E+03  0.18571651390E+03  0.00000000000E+00 0. -1.
         21   -1    0    0  502  503 -0.00000000000E+00 -0.00000000000E+00 -0.49361295201E+03  0.49361295201E+03  0.00000000000E+00 0. -1.
         -6    2    1    2    0  503  0.97479759921E+01 -0.21596318593E+03 -0.27502355202E+02  0.28559563148E+03  0.18458971929E+03 0.  0.
        -24    2    3    3    0    0  0.55804864510E+02 -0.12214516053E+03 -0.70340914644E+02  0.17254568215E+03  0.82404763279E+02 0.  0.
          6    2    1    2  501    0 -0.97479759921E+01  0.21596318593E+03 -0.28039408290E+03  0.39373383442E+03  0.17225089240E+03 0.  0.
         24    2    5    5    0    0 -0.71361337360E+02  0.13527587091E+03 -0.20522943358E+03  0.26732788673E+03  0.77156185093E+02 0.  0.
          5    1    5    5  501    0  0.61613361368E+02  0.80687315014E+02 -0.75164649327E+02  0.12640594769E+03  0.47000000000E+01 0. -1.
        -13    1    6    6    0    0 -0.48593990194E+02  0.66373194343E+02 -0.50756609935E+02  0.96659248199E+02  0.00000000000E+00 0.  1.
         14    1    6    6    0    0 -0.22767347166E+02  0.68902676568E+02 -0.15447282364E+03  0.17066863853E+03  0.00000000000E+00 0. -1.
         -5    1    3    3    0  503 -0.46056888518E+02 -0.93818025399E+02  0.42838559442E+02  0.11304994934E+03  0.47000000000E+01 0.  1.
         13    1    4    4    0    0 -0.18533874575E+02 -0.36371119297E+02 -0.38574283321E+01  0.41002958174E+02  0.00000000000E+00 0. -1.
        -14    1    4    4    0    0  0.74338739085E+02 -0.85774041229E+02 -0.66483486312E+02  0.13154272397E+03  0.00000000000E+00 0.  1.
</event>
<event>
12    1  0.1050869E+000  0.1737011E+03  0.7818608E-02  0.1174557E+00
         21   -1    0    0  503  502  0.00000000000E+00  0.00000000000E+00  0.38528950805E+03  0.38528950805E+03  0.00000000000E+00 0. -1.
         21   -1    0    0  501  503 -0.00000000000E+00 -0.00000000000E+00 -0.12792197377E+03  0.12792197377E+03  0.00000000000E+00 0. -1.
          6    2    1    2  501    0 -0.16752015288E+02 -0.15096385689E+02  0.28948548446E+03  0.33656592738E+03  0.17019473225E+03 0.  0.
         24    2    3    3    0    0 -0.84876183337E+00  0.57116147974E+02  0.16270538522E+03  0.18972299411E+03  0.79112561323E+02 0.  0.
         -6    2    1    2    0  502  0.16752015288E+02  0.15096385689E+02 -0.32117950172E+02  0.17664555444E+03  0.17223111886E+03 0.  0.
        -24    2    5    5    0    0 -0.17299274420E+02 -0.35423434005E+02 -0.61881797692E+02  0.10867703870E+03  0.80170177017E+02 0.  0.
          5    1    3    3  501    0 -0.15903253455E+02 -0.72212533663E+02  0.12678009924E+03  0.14684293327E+03  0.47000000000E+01 0. -1.
        -13    1    4    4    0    0  0.27409795366E+02  0.12982180362E+00  0.21445762612E+02  0.34802793993E+02  0.00000000000E+00 0.  1.
         14    1    4    4    0    0 -0.28258557200E+02  0.56986326170E+02  0.14125962261E+03  0.15492020012E+03  0.00000000000E+00 0. -1.
         -5    1    5    5    0  502  0.34051289708E+02  0.50519819694E+02  0.29763847519E+02  0.67968515740E+02  0.47000000000E+01 0.  1.
         13    1    6    6    0    0 -0.32358040275E+02 -0.14222337964E+02  0.61208314613E+01  0.35871747175E+02  0.00000000000E+00 0. -1.
        -14    1    6    6    0    0  0.15058765855E+02 -0.21201096041E+02 -0.68002629153E+02  0.72805291526E+02  0.00000000000E+00 0.  1.
</event>
<event>
12    1  0.1178911E+000  0.3664584E+03  0.7818608E-02  0.1056764E+00
         21   -1    0    0  503  502  0.00000000000E+00  0.00000000000E+00  0.27341825469E+03  0.27341825469E+03  0.00000000000E+00 0. -1.
         21   -1    0    0  501  503 -0.00000000000E+00 -0.00000000000E+00 -0.56907803411E+03  0.56907803411E+03  0.00000000000E+00 0.  1.
          6    2    1    2  501    0 -0.30229109053E+03  0.84793060051E+02  0.16172635170E+02  0.36681508257E+03  0.18900260376E+03 0.  0.
         24    2    3    3    0    0 -0.11898646208E+03 -0.11425893065E+02 -0.45627871585E+02  0.15071310113E+03  0.79650530415E+02 0.  0.
         -6    2    1    2    0  502  0.30229109053E+03 -0.84793060051E+02 -0.31183241459E+03  0.47568120622E+03  0.17453764268E+03 0.  0.
        -24    2    5    5    0    0  0.27139212900E+03 -0.10675668541E+03 -0.31873140993E+03  0.43686326193E+03  0.64877734099E+02 0.  0.
          5    1    3    3  501    0 -0.18330462845E+03  0.96218953116E+02  0.61800506755E+02  0.21610198145E+03  0.47000000000E+01 0. -1.
        -11    1    4    4    0    0 -0.67862161985E+01 -0.29099576846E+02 -0.12568411912E+02  0.32416092931E+02  0.00000000000E+00 0.  1.
         12    1    4    4    0    0 -0.11220024588E+03  0.17673683781E+02 -0.33059459673E+02  0.11829700820E+03  0.00000000000E+00 0. -1.
         -5    1    5    5    0  502  0.30898961527E+02  0.21963625360E+02  0.68989953359E+01  0.38817944292E+02  0.47000000000E+01 0.  1.
         13    1    6    6    0    0  0.18518714278E+03 -0.55750877320E+02 -0.16967322278E+03  0.25727697274E+03  0.00000000000E+00 0. -1.
        -14    1    6    6    0    0  0.86204986225E+02 -0.51005808092E+02 -0.14905818715E+03  0.17958628919E+03  0.00000000000E+00 0.  1.
</event>
<event>
12    1  0.1050869E+000  0.1804044E+03  0.7818608E-02  0.1167912E+00
         21   -1    0    0  501  502  0.00000000000E+00  0.00000000000E+00  0.18558096478E+04  0.18558096478E+04  0.00000000000E+00 0.  1.
         21   -1    0    0  502  503 -0.00000000000E+00 -0.00000000000E+00 -0.62454022498E+02  0.62454022498E+02  0.00000000000E+00 0.  1.
         -6    2    1    2    0  503 -0.29035020377E+02 -0.48085638243E+02  0.17133055100E+04  0.17227772667E+04  0.17143651609E+03 0.  0.
        -24    2    3    3    0    0  0.18590066763E+02 -0.60109810836E+02  0.64462581027E+03  0.65295900163E+03  0.82790353356E+02 0.  0.
          6    2    1    2  501    0  0.29035020377E+02  0.48085638243E+02  0.80050115334E+02  0.19548640363E+03  0.16926798878E+03 0.  0.
         24    2    5    5    0    0 -0.46091528854E+02  0.26159343188E+02  0.20474182754E+02  0.97017410760E+02  0.78641245940E+02 0.  0.
          5    1    5    5  501    0  0.75126549231E+02  0.21926295054E+02  0.59575932580E+02  0.98468992870E+02  0.47000000000E+01 0. -1.
        -13    1    6    6    0    0 -0.57347264106E+02  0.35904183315E+02  0.35035276255E+02  0.76192451478E+02  0.00000000000E+00 0.  1.
         14    1    6    6    0    0  0.11255735252E+02 -0.97448401271E+01 -0.14561093501E+02  0.20824959282E+02  0.00000000000E+00 0. -1.
         -5    1    3    3    0  503 -0.47625087140E+02  0.12024172593E+02  0.10686796997E+04  0.10698182650E+04  0.47000000000E+01 0.  1.
         13    1    4    4    0    0 -0.24213334946E+02 -0.54608450142E+02  0.32652740249E+03  0.33194655141E+03  0.00000000000E+00 0. -1.
        -14    1    4    4    0    0  0.42803401709E+02 -0.55013606942E+01  0.31809840778E+03  0.32101245022E+03  0.00000000000E+00 0.  1.
</event>
<event>
12    1  0.1050869E+000  0.2023567E+03  0.7818608E-02  0.1148951E+00
         21   -1    0    0  501  502  0.00000000000E+00  0.00000000000E+00  0.11934018504E+03  0.11934018504E+03  0.00000000000E+00 0. -1.
         21   -1    0    0  502  503 -0.00000000000E+00 -0.00000000000E+00 -0.36676149743E+03  0.36676149743E+03  0.00000000000E+00 0. -1.
         -6    2    1    2    0  503 -0.89227321833E+02 -0.57932555641E+02 -0.19831283210E+03  0.28333060635E+03  0.17213528736E+03 0.  0.
        -24    2    3    3    0    0 -0.11996262548E+03 -0.30193906863E+02 -0.99957467302E+02  0.17651319527E+03  0.76568330989E+02 0.  0.
          6    2    1    2  501    0  0.89227321833E+02  0.57932555641E+02 -0.49108480288E+02  0.20277107612E+03  0.16548948762E+03 0.  0.
         24    2    5    5    0    0  0.28363219790E+02  0.78533534664E+02 -0.68213220086E+02  0.13557047838E+03  0.82184687810E+02 0.  0.
          5    1    5    5  501    0  0.60864102044E+02 -0.20600979023E+02  0.19104739798E+02  0.67200597743E+02  0.47000000000E+01 0. -1.
        -13    1    6    6    0    0  0.34344170931E+02  0.90021818027E+02 -0.39616358989E+02  0.10417728014E+03  0.00000000000E+00 0.  1.
         14    1    6    6    0    0 -0.59809511409E+01 -0.11488283364E+02 -0.28596861097E+02  0.31393198241E+02  0.00000000000E+00 0. -1.
         -5    1    3    3    0  503  0.30735303647E+02 -0.27738648777E+02 -0.98355364797E+02  0.10681741108E+03  0.47000000000E+01 0.  1.
         13    1    4    4    0    0 -0.10899408840E+03  0.33337297927E+01 -0.84714112011E+02  0.13808441561E+03  0.00000000000E+00 0. -1.
        -14    1    4    4    0    0 -0.10968537079E+02 -0.33527636656E+02 -0.15243355291E+02  0.38428779657E+02  0.00000000000E+00 0.  1.
</event>
<event>
12    1  0.1050869E+000  0.1780186E+03  0.7818608E-02  0.1170320E+00
         21   -1    0    0  501  502  0.00000000000E+00  0.00000000000E+00  0.16799086066E+03  0.16799086066E+03  0.00000000000E+00 0. -1.
         21   -1    0    0  502  503 -0.00000000000E+00 -0.00000000000E+00 -0.18820040221E+03  0.18820040221E+03  0.00000000000E+00 0. -1.
         -6    2    1    2    0  503  0.38216374216E+02  0.77428998200E+01 -0.28662041558E+02  0.17797214659E+03  0.17126625056E+03 0.  0.
        -24    2    3    3    0    0 -0.35759790187E+02  0.31522422743E+02 -0.27516371653E+02  0.10011753099E+03  0.83629800749E+02 0.  0.
          6    2    1    2  501    0 -0.38216374216E+02 -0.77428998200E+01  0.84525000066E+01  0.17821911628E+03  0.17369560989E+03 0.  0.
         24    2    5    5    0    0 -0.39803004140E+02 -0.70249546602E+02 -0.25378389403E+01  0.11456005694E+03  0.81229847240E+02 0.  0.
          5    1    5    5  501    0  0.15866299238E+01  0.62506646782E+02  0.10990338947E+02  0.63659059345E+02  0.47000000000E+01 0. -1.
        -13    1    6    6    0    0 -0.45736436107E+02 -0.23876241050E+01 -0.68250245128E+01  0.46304463027E+02  0.00000000000E+00 0.  1.
         14    1    6    6    0    0  0.59334319670E+01 -0.67861922497E+02  0.42871855725E+01  0.68255593910E+02  0.00000000000E+00 0. -1.
         -5    1    3    3    0  503  0.73976164404E+02 -0.23779522923E+02 -0.11456699043E+01  0.77854615598E+02  0.47000000000E+01 0.  1.
         13    1    4    4    0    0 -0.27224658367E+02  0.33713725881E+02 -0.55709915127E+02  0.70578976895E+02  0.00000000000E+00 0. -1.
        -14    1    4    4    0    0 -0.85351318200E+01 -0.21913031379E+01  0.28193543474E+02  0.29538554098E+02  0.00000000000E+00 0.  1.
</event>
<event>
12    1  0.1050869E+000  0.2311753E+03  0.7818608E-02  0.1126057E+00
         21   -1    0    0  503  502  0.00000000000E+00  0.00000000000E+00  0.12285694127E+03  0.12285694127E+03  0.00000000000E+00 0. -1.
         21   -1    0    0  501  503 -0.00000000000E+00 -0.00000000000E+00 -0.62058129239E+03  0.62058129239E+03  0.00000000000E+00 0. -1.
          6    2    1    2  501    0 -0.12792403155E+03 -0.85872933737E+02 -0.43656726266E+02  0.23390958222E+03  0.17049652287E+03 0.  0.
         24    2    3    3    0    0 -0.10696233933E+03 -0.21236835242E+02  0.24977098823E+02  0.13721465105E+03  0.79448472542E+02 0.  0.
         -6    2    1    2    0  502  0.12792403155E+03  0.85872933737E+02 -0.45406762486E+03  0.50952865144E+03  0.17234651170E+03 0.  0.
        -24    2    5    5    0    0  0.13252153101E+03  0.20314424438E+02 -0.24483825026E+03  0.29017032282E+03  0.79236452648E+02 0.  0.
          5    1    3    3  501    0 -0.20961692216E+02 -0.64636098495E+02 -0.68633825089E+02  0.96694931178E+02  0.47000000000E+01 0. -1.
        -13    1    4    4    0    0 -0.11786931639E+03 -0.28772184219E+02  0.19573722541E+02  0.12289892166E+03  0.00000000000E+00 0.  1.
         14    1    4    4    0    0  0.10906977054E+02  0.75353489771E+01  0.54033762820E+01  0.14315729388E+02  0.00000000000E+00 0. -1.
         -5    1    5    5    0  502 -0.45974994649E+01  0.65558509299E+02 -0.20922937459E+03  0.21935832862E+03  0.47000000000E+01 0.  1.
         13    1    6    6    0    0  0.20858481542E+02 -0.27283009224E+02 -0.55110268084E+02  0.64935202263E+02  0.00000000000E+00 0. -1.
        -14    1    6    6    0    0  0.11166304947E+03  0.47597433662E+02 -0.18972798218E+03  0.22523512055E+03  0.00000000000E+00 0.  1.
</event>
<event>
12    1  0.1180349E+000  0.1911828E+03  0.7818608E-02  0.1159020E+00
         21   -1    0    0  503  502  0.00000000000E+00  0.00000000000E+00  0.47931472869E+03  0.47931472869E+03  0.00000000000E+00 0.  1.
         21   -1    0    0  501  503 -0.00000000000E+00 -0.00000000000E+00 -0.37560810093E+03  0.37560810093E+03  0.00000000000E+00 0.  1.
          6    2    1    2  501    0  0.21342172886E+02  0.80295399693E+02  0.43542681309E+03  0.47554954913E+03  0.17218601732E+03 0.  0.
         24    2    3    3    0    0 -0.10698763237E+02  0.22693676243E+02  0.86489633734E+02  0.12041038588E+03  0.79929580313E+02 0.  0.
         -6    2    1    2    0  502 -0.21342172886E+02 -0.80295399693E+02 -0.33172018533E+03  0.37937328049E+03  0.16426492334E+03 0.  0.
        -24    2    5    5    0    0 -0.68930856625E+02 -0.84039266392E+02 -0.23023366955E+03  0.26712221260E+03  0.80824950221E+02 0.  0.
          5    1    3    3  501    0  0.32040936122E+02  0.57601723450E+02  0.34893717936E+03  0.35513916324E+03  0.47000000000E+01 0. -1.
        -13    1    4    4    0    0  0.31395880678E+02  0.66699030555E-02  0.16016914312E+02  0.35245466546E+02  0.00000000000E+00 0.  1.
         14    1    4    4    0    0 -0.42094643914E+02  0.22687006340E+02  0.70472719423E+02  0.85164919337E+02  0.00000000000E+00 0. -1.
         -5    1    5    5    0  502  0.47588683740E+02  0.37438666987E+01 -0.10148651578E+03  0.11225106789E+03  0.47000000000E+01 0.  1.
         13    1    6    6    0    0 -0.29889257367E+02 -0.86830283150E+02 -0.18979325009E+03  0.21084198718E+03  0.00000000000E+00 0. -1.
        -14    1    6    6    0    0 -0.39041599258E+02  0.27910167581E+01 -0.40440419463E+02  0.56280225422E+02  0.00000000000E+00 0.  1.
</event>
<event>
12    1  0.1050869E+000  0.9329025E+03  0.7818608E-02  0.9385385E-01
         21   -1    0    0  503  502  0.00000000000E+00  0.00000000000E+00  0.80795168826E+03  0.80795168826E+03  0.00000000000E+00 0.  1.
         21   -1    0    0  501  503 -0.00000000000E+00 -0.00000000000E+00 -0.11287636419E+04  0.11287636419E+04  0.00000000000E+00 0.  1.
          6    2    1    2  501    0  0.51705985882E+03  0.75719492271E+03 -0.36761263265E+03  0.10027193560E+04  0.17208140686E+03 0.  0.
         24    2    3    3    0    0  0.50907624607E+03  0.66874603618E+03 -0.33566619786E+03  0.90822275130E+03  0.76268501794E+02 0.  0.
         -6    2    1    2    0  502 -0.51705985882E+03 -0.75719492271E+03  0.46800678985E+02  0.93399597421E+03  0.17164826743E+03 0.  0.
        -24    2    5    5    0    0 -0.40508437964E+03 -0.48042465279E+03  0.48162543413E+02  0.63539216493E+03  0.80637280595E+02 0.  0.
          5    1    3    3  501    0  0.79836127508E+01  0.88448886523E+02 -0.31946434792E+02  0.94496604678E+02  0.47000000000E+01 0. -1.
        -11    1    4    4    0    0  0.24396108064E+03  0.26010539077E+03 -0.15162792015E+03  0.38750851519E+03  0.00000000000E+00 0.  1.
         12    1    4    4    0    0  0.26511516543E+03  0.40864064541E+03 -0.18403827771E+03  0.52071423611E+03  0.00000000000E+00 0. -1.
         -5    1    5    5    0  502 -0.11197547918E+03 -0.27677026991E+03 -0.13618644278E+01  0.29860380929E+03  0.47000000000E+01 0.  1.
         11    1    6    6    0    0 -0.78036070466E+02 -0.70895731152E+02  0.35149941149E+02  0.11113663371E+03  0.00000000000E+00 0. -1.
        -12    1    6    6    0    0 -0.32704830917E+03 -0.40952892164E+03  0.13012602264E+02  0.52425553122E+03  0.00000000000E+00 0.  1.
</event>
<event>
12    1  0.1050869E+000  0.2055537E+03  0.7818608E-02  0.1145898E+00
         21   -1    0    0  501  502  0.00000000000E+00  0.00000000000E+00  0.42617004630E+03  0.42617004630E+03  0.00000000000E+00 0.  1.
         21   -1    0    0  502  503 -0.00000000000E+00 -0.00000000000E+00 -0.12949039946E+03  0.12949039946E+03  0.00000000000E+00 0.  1.
         -6    2    1    2    0  503  0.39191942377E+02  0.98182116820E+02  0.28570379139E+03  0.34981396269E+03  0.17195178296E+03 0.  0.
        -24    2    3    3    0    0  0.42281955073E+02  0.13175787892E+03  0.19464089279E+03  0.25259554117E+03  0.82289293901E+02 0.  0.
          6    2    1    2  501    0 -0.39191942377E+02 -0.98182116820E+02  0.10975855443E+02  0.20584648308E+03  0.17628547524E+03 0.  0.
         24    2    5    5    0    0 -0.84866621396E+02 -0.50127039082E+02 -0.31809114085E+02  0.12680149324E+03  0.73155556698E+02 0.  0.
          5    1    5    5  501    0  0.45674679019E+02 -0.48055077738E+02  0.42784969528E+02  0.79044989831E+02  0.47000000000E+01 0. -1.
        -11    1    6    6    0    0 -0.10970060922E+00  0.22889711761E+00 -0.28144979796E+02  0.28146124349E+02  0.00000000000E+00 0.  1.
         12    1    6    6    0    0 -0.84756920787E+02 -0.50355936200E+02 -0.36641342886E+01  0.98655368896E+02  0.00000000000E+00 0. -1.
         -5    1    3    3    0  503 -0.30900126958E+01 -0.33575762104E+02  0.91062898607E+02  0.97218421516E+02  0.47000000000E+01 0.  1.
         11    1    4    4    0    0  0.53485366037E+02  0.87776348061E+02  0.83111719013E+02  0.13218520907E+03  0.00000000000E+00 0. -1.
        -12    1    4    4    0    0 -0.11203410963E+02  0.43981530863E+02  0.11152917377E+03  0.12041033210E+03  0.00000000000E+00 0.  1.
</event>
<event>
12    1  0.1050869E+000  0.1742657E+03  0.7818608E-02  0.1173554E+00
         21   -1    0    0  503  502  0.00000000000E+00  0.00000000000E+00  0.71495913611E+02  0.71495913611E+02  0.00000000000E+00 0.  1.
         21   -1    0    0  501  503 -0.00000000000E+00 -0.00000000000E+00 -0.49404825278E+03  0.49404825278E+03  0.00000000000E+00 0.  1.
          6    2    1    2  501    0  0.12004776324E+02  0.20645283472E+02 -0.10494075684E+03  0.20342346547E+03  0.17262155565E+03 0.  0.
         24    2    3    3    0    0 -0.76359373835E+01  0.31986893839E+02 -0.13756769495E+03  0.16341100678E+03  0.81834085352E+02 0.  0.
         -6    2    1    2    0  502 -0.12004776324E+02 -0.20645283472E+02 -0.31761158233E+03  0.36212070092E+03  0.17229028534E+03 0.  0.
        -24    2    5    5    0    0 -0.30849766545E+02 -0.46284017466E+00 -0.63518640593E+02  0.10648858691E+03  0.79707459641E+02 0.  0.
          5    1    3    3  501    0  0.19640713708E+02 -0.11341610367E+02  0.32626938106E+02  0.40012458695E+02  0.47000000000E+01 0. -1.
        -13    1    4    4    0    0  0.31270210091E+02  0.21993051072E+02 -0.30024114795E+02  0.48610367246E+02  0.00000000000E+00 0.  1.
         14    1    4    4    0    0 -0.38906147475E+02  0.99938427673E+01 -0.10754358015E+03  0.11480063953E+03  0.00000000000E+00 0. -1.
         -5    1    5    5    0  502  0.18844990221E+02 -0.20182443298E+02 -0.25409294174E+03  0.25563211401E+03  0.47000000000E+01 0.  1.
         11    1    6    6    0    0 -0.17734665544E+02  0.29317298017E+02 -0.65465588125E+02  0.73890226373E+02  0.00000000000E+00 0. -1.
        -12    1    6    6    0    0 -0.13115101001E+02 -0.29780138192E+02  0.19469475318E+01  0.32598360537E+02  0.00000000000E+00 0.  1.
</event>
<event>
12    1  0.1050869E+000  0.3820972E+03  0.7818608E-02  0.1050283E+00
         21   -1    0    0  503  502  0.00000000000E+00  0.00000000000E+00  0.90048952271E+03  0.90048952271E+03  0.00000000000E+00 0.  1.
         21   -1    0    0  501  503 -0.00000000000E+00 -0.00000000000E+00 -0.20975976094E+03  0.20975976094E+03  0.00000000000E+00 0.  1.
          6    2    1    2  501    0  0.13093437743E+03 -0.31375029701E+03  0.79751039968E+02  0.39033125642E+03  0.17439954501E+03 0.  0.
         24    2    3    3    0    0  0.11123945047E+03 -0.24400934094E+03  0.15791641756E+00  0.28258689964E+03  0.89109803649E+02 0.  0.
         -6    2    1    2    0  502 -0.13093437743E+03  0.31375029701E+03  0.61097872181E+03  0.71991802722E+03  0.17147567570E+03 0.  0.
        -24    2    5    5    0    0 -0.69786566791E+02  0.19740997778E+03  0.49871357289E+03  0.54700279284E+03  0.81584087595E+02 0.  0.
          5    1    3    3  501    0  0.19694926958E+02 -0.69740956071E+02  0.79593123551E+02  0.10774435678E+03  0.47000000000E+01 0. -1.
        -11    1    4    4    0    0 -0.14740599502E+02 -0.22466406269E+02  0.65198929723E+01  0.27650202326E+02  0.00000000000E+00 0.  1.
         12    1    4    4    0    0  0.12598004998E+03 -0.22154293467E+03 -0.63619765547E+01  0.25493669732E+03  0.00000000000E+00 0. -1.
         -5    1    5    5    0  502 -0.61147810640E+02  0.11634031922E+03  0.11226514891E+03  0.17291523439E+03  0.47000000000E+01 0.  1.
         13    1    6    6    0    0 -0.81687867968E+02  0.11824200479E+03  0.34369311671E+03  0.37253058659E+03  0.00000000000E+00 0. -1.
        -14    1    6    6    0    0  0.11901301177E+02  0.79167972990E+02  0.15502045618E+03  0.17447220625E+03  0.00000000000E+00 0.  1.
</event>
<event>
12    1  0.1050869E+000  0.2215232E+03  0.7818608E-02  0.1132878E+00
         21   -1    0    0  503  502  0.00000000000E+00  0.00000000000E+00  0.54890202975E+03  0.54890202975E+03  0.00000000000E+00 0. -1.
         21   -1    0    0  501  503 -0.00000000000E+00 -0.00000000000E+00 -0.11919500230E+03  0.11919500230E+03  0.00000000000E+00 0. -1.
          6    2    1    2  501    0 -0.11926463978E+03  0.70616328705E+02  0.38287574737E+03  0.44234189066E+03  0.17280564262E+03 0.  0.
         24    2    3    3    0    0 -0.10391950999E+03 -0.15304953082E+02  0.20380185003E+03  0.24307450652E+03  0.80724937271E+02 0.  0.
         -6    2    1    2    0  502  0.11926463978E+03 -0.70616328705E+02  0.46831280073E+02  0.22575514139E+03  0.17193456572E+03 0.  0.
        -24    2    5    5    0    0  0.22940612598E+02  0.13502451600E+02  0.49136551053E+02  0.97764158554E+02  0.80217467816E+02 0.  0.
          5    1    3    3  501    0 -0.15345129790E+02  0.85921281787E+02  0.17907389734E+03  0.19926738414E+03  0.47000000000E+01 0. -1.
        -11    1    4    4    0    0 -0.10059921179E+03  0.13389439776E+02  0.13881044224E+03  0.17195295108E+03  0.00000000000E+00 0.  1.
         12    1    4    4    0    0 -0.33202982050E+01 -0.28694392858E+02  0.64991407789E+02  0.71121555439E+02  0.00000000000E+00 0. -1.
         -5    1    5    5    0  502  0.96324027183E+02 -0.84118780305E+02 -0.23052709805E+01  0.12799098284E+03  0.47000000000E+01 0.  1.
         13    1    6    6    0    0  0.23649481418E+02 -0.15598736365E+02  0.60271127656E+02  0.66597502780E+02  0.00000000000E+00 0. -1.
        -14    1    6    6    0    0 -0.70886882080E+00  0.29101187966E+02 -0.11134576603E+02  0.31166655774E+02  0.00000000000E+00 0.  1.
</event>
<event>
12    1  0.1050869E+000  0.1847621E+03  0.7818608E-02  0.1163625E+00
         21   -1    0    0  503  502  0.00000000000E+00  0.00000000000E+00  0.10783132304E+03  0.10783132304E+03  0.00000000000E+00 0.  1.
         21   -1    0    0  501  503 -0.00000000000E+00 -0.00000000000E+00 -0.39805062521E+03  0.39805062521E+03  0.00000000000E+00 0.  1.
          6    2    1    2  501    0 -0.63440300110E+02  0.23681634578E+02 -0.26179936889E+03  0.32043086143E+03  0.17190560174E+03 0.  0.
         24    2    3    3    0    0 -0.38497506765E+02  0.82162519026E+02 -0.16343037994E+03  0.20321010911E+03  0.79700199488E+02 0.  0.
         -6    2    1    2    0  502  0.63440300110E+02 -0.23681634578E+02 -0.28419933278E+02  0.18545108682E+03  0.17029069704E+03 0.  0.
        -24    2    5    5    0    0  0.10206053045E+03  0.56237620064E+01 -0.38622607415E+02  0.13568651086E+03  0.80443426399E+02 0.  0.
          5    1    3    3  501    0 -0.24942793345E+02 -0.58480884448E+02 -0.98368988949E+02  0.11722075231E+03  0.47000000000E+01 0. -1.
        -11    1    4    4    0    0 -0.24185343229E+02  0.18458176985E+02 -0.12233507770E+03  0.12606151816E+03  0.00000000000E+00 0.  1.
         12    1    4    4    0    0 -0.14312163536E+02  0.63704342040E+02 -0.41095302240E+02  0.77148590953E+02  0.00000000000E+00 0. -1.
         -5    1    5    5    0  502 -0.38620230341E+02 -0.29305396584E+02  0.10202674138E+02  0.49764575956E+02  0.47000000000E+01 0.  1.
         13    1    6    6    0    0  0.10297584093E+03  0.17783459268E+02 -0.10490603822E+02  0.10502536840E+03  0.00000000000E+00 0. -1.
        -14    1    6    6    0    0 -0.91531048074E+00 -0.12159697261E+02 -0.28132003593E+02  0.30661142459E+02  0.00000000000E+00 0.  1.
</event>
<event>
12    1  0.1050869E+000  0.1753745E+03  0.7818608E-02  0.1172877E+00
         21   -1    0    0  503  502  0.00000000000E+00  0.00000000000E+00  0.97683299052E+02  0.97683299052E+02  0.00000000000E+00 0.  1.
         21   -1    0    0  501  503 -0.00000000000E+00 -0.00000000000E+00 -0.46299435777E+03  0.46299435777E+03  0.00000000000E+00 0.  1.
          6    2    1    2  501    0  0.12557225450E+02 -0.34519531638E+02 -0.22843611333E+02  0.17685601073E+03  0.17148450652E+03 0.  0.
         24    2    3    3    0    0  0.28077957985E+02 -0.66912303935E+02 -0.61587965788E+02  0.12381451907E+03  0.79191725954E+02 0.  0.
         -6    2    1    2    0  502 -0.12557225450E+02  0.34519531638E+02 -0.34246744739E+03  0.38382164610E+03  0.16936889182E+03 0.  0.
        -24    2    5    5    0    0  0.11403789279E+02 -0.35574813692E+02 -0.12539363570E+03  0.15440831345E+03  0.81992375314E+02 0.  0.
          5    1    3    3  501    0 -0.15520732535E+02  0.32392772297E+02  0.38744354455E+02  0.53041491661E+02  0.47000000000E+01 0. -1.
        -11    1    4    4    0    0  0.74085145684E+01 -0.15653555557E+01 -0.54373164162E+02  0.54897881627E+02  0.00000000000E+00 0.  1.
         12    1    4    4    0    0  0.20669443417E+02 -0.65346948380E+02 -0.72148016256E+01  0.68916637441E+02  0.00000000000E+00 0. -1.
         -5    1    5    5    0  502 -0.23961014729E+02  0.70094345330E+02 -0.21707381169E+03  0.22941333265E+03  0.47000000000E+01 0.  1.
         11    1    6    6    0    0  0.18021167250E+02 -0.49480799460E+02 -0.12834457133E+03  0.13872793869E+03  0.00000000000E+00 0. -1.
        -12    1    6    6    0    0 -0.66173779708E+01  0.13905985769E+02  0.29509356315E+01  0.15680374757E+02  0.00000000000E+00 0.  1.
</event>
<event>
12    1  0.1050869E+000  0.2136754E+03  0.7818608E-02  0.1139019E+00
         21   -1    0    0  501  502  0.00000000000E+00  0.00000000000E+00  0.48708784279E+03  0.48708784279E+03  0.00000000000E+00 0.  1.
         21   -1    0    0  502  503 -0.00000000000E+00 -0.00000000000E+00 -0.15846144775E+03  0.15846144775E+03  0.00000000000E+00 0.  1.
         -6    2    1    2    0  503  0.11960355201E+03 -0.37656275381E+02 -0.42775422472E+02  0.21791496604E+03  0.17301500203E+03 0.  0.
        -24    2    3    3    0    0  0.11534726067E+03 -0.49470390239E+02  0.24729130692E+02  0.14909168492E+03  0.76579961822E+02 0.  0.
          6    2    1    2  501    0 -0.11960355201E+03  0.37656275381E+02  0.37140181751E+03  0.42763432450E+03  0.17090582410E+03 0.  0.
         24    2    5    5    0    0 -0.50076788295E+02  0.11697802852E+02  0.32838807522E+03  0.34172690227E+03  0.79334888100E+02 0.  0.
          5    1    5    5  501    0 -0.69526763713E+02  0.25958472528E+02  0.43013742287E+02  0.85907422229E+02  0.47000000000E+01 0. -1.
        -13    1    6    6    0    0  0.20588015212E+02  0.38119063904E+01  0.11247889442E+03  0.11441109514E+03  0.00000000000E+00 0.  1.
         14    1    6    6    0    0 -0.70664803507E+02  0.78858964617E+01  0.21590918080E+03  0.22731580713E+03  0.00000000000E+00 0. -1.
         -5    1    3    3    0  503  0.42562913365E+01  0.11814114858E+02 -0.67504553164E+02  0.68823281117E+02  0.47000000000E+01 0.  1.
         13    1    4    4    0    0  0.48885658338E+02 -0.51758111046E+02 -0.13385794359E+02  0.72442315954E+02  0.00000000000E+00 0. -1.
        -14    1    4    4    0    0  0.66461602334E+02  0.22877208073E+01  0.38114925051E+02  0.76649368966E+02  0.00000000000E+00 0.  1.
</event>
<event>
12    1  0.1050869E+000  0.2715082E+03  0.7818608E-02  0.1101897E+00
         21   -1    0    0  503  502  0.00000000000E+00  0.00000000000E+00  0.79820451625E+02  0.79820451625E+02  0.00000000000E+00 0. -1.
         21   -1    0    0  501  503 -0.00000000000E+00 -0.00000000000E+00 -0.13019348063E+04  0.13019348063E+04  0.00000000000E+00 0. -1.
          6    2    1    2  501    0  0.20081385525E+03  0.61142784534E+02 -0.10079881956E+04  0.10439142330E+04  0.17219779013E+03 0.  0.
         24    2    3    3    0    0  0.85502670171E+02  0.74995583244E+02 -0.41832880901E+03  0.44290770095E+03  0.90736954960E+02 0.  0.
         -6    2    1    2    0  502 -0.20081385525E+03 -0.61142784534E+02 -0.21412615913E+03  0.33784102494E+03  0.15563387017E+03 0.  0.
        -24    2    5    5    0    0 -0.14950350055E+03  0.57506947957E+01 -0.10353620310E+03  0.19870181963E+03  0.79864263639E+02 0.  0.
          5    1    3    3  501    0  0.11531118508E+03 -0.13852798710E+02 -0.58965938655E+03  0.60100653206E+03  0.47000000000E+01 0. -1.
        -11    1    4    4    0    0  0.87405202317E+02  0.41921704528E+02 -0.38035691108E+03  0.39251557741E+03  0.00000000000E+00 0.  1.
         12    1    4    4    0    0 -0.19025321468E+01  0.33073878717E+02 -0.37971897930E+02  0.50392123535E+02  0.00000000000E+00 0. -1.
         -5    1    5    5    0  502 -0.51310354700E+02 -0.66893479330E+02 -0.11058995604E+03  0.13913920530E+03  0.47000000000E+01 0.  1.
         13    1    6    6    0    0 -0.65555943594E+01 -0.22868282322E+02 -0.13432275992E+02  0.27319593556E+02  0.00000000000E+00 0. -1.
        -14    1    6    6    0    0 -0.14294790619E+03  0.28618977117E+02 -0.90103927105E+02  0.17138222608E+03  0.00000000000E+00 0.  1.
</event>
<event>
12    1  0.1050869E+000  0.1784660E+03  0.7818608E-02  0.1169521E+00
         21   -1    0    0  501  502  0.00000000000E+00  0.00000000000E+00  0.98664382739E+03  0.98664382739E+03  0.00000000000E+00 0.  1.
         21   -1    0    0  502  503 -0.00000000000E+00 -0.00000000000E+00 -0.48226202480E+02  0.48226202480E+02  0.00000000000E+00 0.  1.
         -6    2    1    2    0  503 -0.47135883804E+02 -0.32360330458E+01  0.76747157672E+03  0.78774119202E+03  0.17114701596E+03 0.  0.
        -24    2    3    3    0    0 -0.98003621180E+02 -0.68647268002E+01  0.50856609835E+03  0.52381917540E+03  0.78071876417E+02 0.  0.
          6    2    1    2  501    0  0.47135883804E+02  0.32360330458E+01  0.17094604818E+03  0.24712883785E+03  0.17209836622E+03 0.  0.
         24    2    5    5    0    0  0.50043081618E+02 -0.30585616967E+02  0.18065060048E+03  0.21151108744E+03  0.93072609688E+02 0.  0.
          5    1    5    5  501    0 -0.29071978139E+01  0.33821650013E+02 -0.97045522962E+01  0.35617750406E+02  0.47000000000E+01 0. -1.
        -11    1    6    6    0    0 -0.98922004351E+01 -0.11152830631E+02 -0.47903857233E+01  0.15658513848E+02  0.00000000000E+00 0.  1.
         12    1    6    6    0    0  0.59935282053E+02 -0.19432786335E+02  0.18544098620E+03  0.19585257359E+03  0.00000000000E+00 0. -1.
         -5    1    3    3    0  503  0.50867737376E+02  0.36286937544E+01  0.25890547837E+03  0.26392201662E+03  0.47000000000E+01 0.  1.
         13    1    4    4    0    0 -0.71974098164E+02 -0.39899376948E+02  0.36838760901E+03  0.37746743113E+03  0.00000000000E+00 0. -1.
        -14    1    4    4    0    0 -0.26029523017E+02  0.33034650148E+02  0.14017848933E+03  0.14635174427E+03  0.00000000000E+00 0.  1.
</event>
<event>
12    1  0.1050869E+000  0.1855448E+03  0.7818608E-02  0.1162888E+00
         21   -1    0    0  501  502  0.00000000000E+00  0.00000000000E+00  0.46472166685E+03  0.46472166685E+03  0.00000000000E+00 0. -1.
         21   -1    0    0  502  503 -0.00000000000E+00 -0.00000000000E+00 -0.76129353412E+02  0.76129353412E+02  0.00000000000E+00 0. -1.
         -6    2    1    2    0  503 -0.15733612552E+02 -0.62777074660E+02  0.24538765286E+03  0.30763937869E+03  0.17389186145E+03 0.  0.
        -24    2    3    3    0    0  0.41411412012E+02 -0.36467913372E+02  0.21790084806E+03  0.23882557020E+03  0.80697333580E+02 0.  0.
          6    2    1    2  501    0  0.15733612552E+02  0.62777074660E+02  0.14320466058E+03  0.23321164157E+03  0.17231246991E+03 0.  0.
         24    2    5    5    0    0 -0.55404041763E+01  0.10449686771E+03  0.76042183802E+02  0.15119936684E+03  0.78285013736E+02 0.  0.
          5    1    5    5  501    0  0.21274016729E+02 -0.41719793053E+02  0.67162476774E+02  0.82012274731E+02  0.47000000000E+01 0. -1.
        -13    1    6    6    0    0  0.19410513739E+02 -0.21030260614E+01  0.20953370797E+02  0.28639736555E+02  0.00000000000E+00 0.  1.
         14    1    6    6    0    0 -0.24950917915E+02  0.10659989377E+03  0.55088813005E+02  0.12255963029E+03  0.00000000000E+00 0. -1.
         -5    1    3    3    0  503 -0.57145024564E+02 -0.26309161288E+02  0.27486804799E+02  0.68813808484E+02  0.47000000000E+01 0.  1.
         11    1    4    4    0    0  0.78966265826E+01 -0.47644209761E+02  0.18261576978E+03  0.18889374476E+03  0.00000000000E+00 0. -1.
        -12    1    4    4    0    0  0.33514785429E+02  0.11176296389E+02  0.35285078279E+02  0.49931825447E+02  0.00000000000E+00 0.  1.
</event>
<event>
12    1  0.1050869E+000  0.3184623E+03  0.7818608E-02  0.1076442E+00
         21   -1    0    0  503  502  0.00000000000E+00  0.00000000000E+00  0.55216596807E+03  0.55216596807E+03  0.00000000000E+00 0. -1.
         21   -1    0    0  501  503 -0.00000000000E+00 -0.00000000000E+00 -0.18849557866E+03  0.18849557866E+03  0.00000000000E+00 0. -1.
          6    2    1    2  501    0  0.85872591525E+02 -0.25310593531E+03  0.24373240987E+03  0.40102833056E+03  0.17315171909E+03 0.  0.
         24    2    3    3    0    0  0.12424229343E+03 -0.22700066194E+03  0.20475715282E+03  0.34024280609E+03  0.82910961096E+02 0.  0.
         -6    2    1    2    0  502 -0.85872591525E+02  0.25310593531E+03  0.11993797954E+03  0.33963321617E+03  0.17183971055E+03 0.  0.
        -24    2    5    5    0    0 -0.25417798819E+02  0.21332030187E+03  0.42423594979E+02  0.23348121005E+03  0.81006779642E+02 0.  0.
          5    1    3    3  501    0 -0.38369701905E+02 -0.26105273369E+02  0.38975257055E+02  0.60785524465E+02  0.47000000000E+01 0. -1.
        -11    1    4    4    0    0  0.42203968335E+02 -0.49314783145E+02  0.12900825531E+02  0.66178199426E+02  0.00000000000E+00 0.  1.
         12    1    4    4    0    0  0.82038325095E+02 -0.17768587880E+03  0.19185632729E+03  0.27406460667E+03  0.00000000000E+00 0. -1.
         -5    1    5    5    0  502 -0.60454792706E+02  0.39785633441E+02  0.77514384561E+02  0.10615200612E+03  0.47000000000E+01 0.  1.
         11    1    6    6    0    0 -0.22452079999E+02  0.75884431500E+01  0.19044416348E+01  0.23776191109E+02  0.00000000000E+00 0. -1.
        -12    1    6    6    0    0 -0.29657188197E+01  0.20573185872E+03  0.40519153344E+02  0.20970501894E+03  0.00000000000E+00 0.  1.
</event>
<event>
12    1  0.1050869E+000  0.2096628E+03  0.7818608E-02  0.1142266E+00
         21   -1    0    0  501  502  0.00000000000E+00  0.00000000000E+00  0.21705935155E+03  0.21705935155E+03  0.00000000000E+00 0. -1.
         21   -1    0    0  502  503 -0.00000000000E+00 -0.00000000000E+00 -0.21845844430E+03  0.21845844430E+03  0.00000000000E+00 0. -1.
         -6    2    1    2    0  503 -0.25565699165E+02  0.11660568859E+03  0.61855882080E+02  0.21859700590E+03  0.17236011504E+03 0.  0.
        -24    2    3    3    0    0  0.21158494063E+01  0.14432315007E+02 -0.15510444942E+02  0.87397520544E+02  0.84764285875E+02 0.  0.
          6    2    1    2  501    0  0.25565699165E+02 -0.11660568859E+03 -0.63254974832E+02  0.21692078995E+03  0.16971430608E+03 0.  0.
         24    2    5    5    0    0  0.50708329705E+02 -0.14262169293E+03 -0.48927504362E+02  0.17772447939E+03  0.79245238947E+02 0.  0.
          5    1    5    5  501    0 -0.25142630540E+02  0.26016004333E+02 -0.14327470470E+02  0.39196310566E+02  0.47000000000E+01 0. -1.
        -13    1    6    6    0    0  0.16765446778E+02 -0.92386195530E+02 -0.65962417183E+02  0.11474898610E+03  0.00000000000E+00 0.  1.
         14    1    6    6    0    0  0.33942882927E+02 -0.50235497397E+02  0.17034912821E+02  0.62975493288E+02  0.00000000000E+00 0. -1.
         -5    1    3    3    0  503 -0.27681548571E+02  0.10217337359E+03  0.77366327022E+02  0.13119948536E+03  0.47000000000E+01 0.  1.
         13    1    4    4    0    0 -0.10858990018E+02  0.47546469789E+02 -0.17400813631E+02  0.51781973394E+02  0.00000000000E+00 0. -1.
        -14    1    4    4    0    0  0.12974839424E+02 -0.33114154782E+02  0.18903686892E+01  0.35615547150E+02  0.00000000000E+00 0.  1.
</event>
<event>
12    1  0.1050869E+000  0.1860675E+03  0.7818608E-02  0.1162626E+00
         21   -1    0    0  501  502  0.00000000000E+00  0.00000000000E+00  0.91835325263E+03  0.91835325263E+03  0.00000000000E+00 0.  1.
         21   -1    0    0  502  503 -0.00000000000E+00 -0.00000000000E+00 -0.39193327658E+02  0.39193327658E+02  0.00000000000E+00 0.  1.
         -6    2    1    2    0  503 -0.66413399798E+02  0.48517628935E+01  0.55013687378E+03  0.58075098811E+03  0.17374363591E+03 0.  0.
        -24    2    3    3    0    0 -0.80632285510E+02  0.61186359393E+02  0.36932132116E+03  0.39077173255E+03  0.77839402957E+02 0.  0.
          6    2    1    2  501    0  0.66413399798E+02 -0.48517628935E+01  0.32902305120E+03  0.37679559218E+03  0.17112706039E+03 0.  0.
         24    2    5    5    0    0  0.42036717355E+02 -0.26251399426E+02  0.81564307419E+02  0.12717570724E+03  0.84051785754E+02 0.  0.
          5    1    5    5  501    0  0.24376682444E+02  0.21399636533E+02  0.24745874378E+03  0.24961988495E+03  0.47000000000E+01 0. -1.
        -11    1    6    6    0    0  0.42914459671E+02 -0.51026405720E+02  0.77196774160E+02  0.10200336696E+03  0.00000000000E+00 0.  1.
         12    1    6    6    0    0 -0.87774231645E+00  0.24775006294E+02  0.43675332597E+01  0.25172340281E+02  0.00000000000E+00 0. -1.
         -5    1    3    3    0  503  0.14218885712E+02 -0.56334596499E+02  0.18081555262E+03  0.18997925556E+03  0.47000000000E+01 0.  1.
         13    1    4    4    0    0 -0.25962074951E+02 -0.42028227844E+01  0.25827305078E+02  0.36861127800E+02  0.00000000000E+00 0. -1.
        -14    1    4    4    0    0 -0.54670210559E+02  0.65389182177E+02  0.34349401608E+03  0.35391060475E+03  0.00000000000E+00 0.  1.
</event>
<event>
12    1  0.1050869E+000  0.1946240E+03  0.7818608E-02  0.1156608E+00
         21   -1    0    0  503  502  0.00000000000E+00  0.00000000000E+00  0.12293969993E+03  0.12293969993E+03  0.00000000000E+00 0. -1.
         21   -1    0    0  501  503 -0.00000000000E+00 -0.00000000000E+00 -0.34974470555E+03  0.34974470555E+03  0.00000000000E+00 0. -1.
          6    2    1    2  501    0  0.26952164200E+02 -0.61353009029E+02 -0.15267006580E+02  0.18523559672E+03  0.17201317952E+03 0.  0.
         24    2    3    3    0    0  0.82592669192E+02 -0.26270881173E+02 -0.79064584922E+01  0.11888132663E+03  0.80984872253E+02 0.  0.
         -6    2    1    2    0  502 -0.26952164200E+02  0.61353009029E+02 -0.21153799904E+03  0.28744880876E+03  0.18272351175E+03 0.  0.
        -24    2    5    5    0    0 -0.56717748709E+02  0.98644918389E+02 -0.11434886731E+03  0.17907679276E+03  0.77750313878E+02 0.  0.
          5    1    3    3  501    0 -0.55640504992E+02 -0.35082127856E+02 -0.73605480882E+01  0.66354270087E+02  0.47000000000E+01 0. -1.
        -11    1    4    4    0    0  0.52805239245E+02 -0.28152931671E+02  0.32927461279E+02  0.68302258818E+02  0.00000000000E+00 0.  1.
         12    1    4    4    0    0  0.29787429947E+02  0.18820504972E+01 -0.40833919771E+02  0.50579067813E+02  0.00000000000E+00 0. -1.
         -5    1    5    5    0  502  0.29765584509E+02 -0.37291909360E+02 -0.97189131725E+02  0.10837201599E+03  0.47000000000E+01 0.  1.
         11    1    6    6    0    0 -0.20558217393E+02 -0.10113579353E+02 -0.14868535024E+02  0.27312966215E+02  0.00000000000E+00 0. -1.
        -12    1    6    6    0    0 -0.36159531316E+02  0.10875849774E+03 -0.99480332290E+02  0.15176382655E+03  0.00000000000E+00 0.  1.
</event>
<event>
12    1  0.1050869E+000  0.1878691E+03  0.7818608E-02  0.1160622E+00
         21   -1    0    0  503  502  0.00000000000E+00  0.00000000000E+00  0.12124497217E+04  0.12124497217E+04  0.00000000000E+00 0.  1.
         21   -1    0    0  501  503 -0.00000000000E+00 -0.00000000000E+00 -0.81669473199E+02  0.81669473199E+02  0.00000000000E+00 0.  1.
          6    2    1    2  501    0  0.32556270872E+02  0.66609132384E+02  0.10857458003E+04  0.11018796463E+04  0.17262133334E+03 0.  0.
         24    2    3    3    0    0  0.29054294551E+01  0.96446041439E+01  0.21987163893E+03  0.23361454667E+03  0.78299162830E+02 0.  0.
         -6    2    1    2    0  502 -0.32556270872E+02 -0.66609132384E+02  0.45034448180E+02  0.19223954860E+03  0.17155539989E+03 0.  0.
        -24    2    5    5    0    0 -0.32117937517E+02 -0.54418457826E+02 -0.36281256914E+02  0.10987973694E+03  0.82245343475E+02 0.  0.
          5    1    3    3  501    0  0.29650841417E+02  0.56964528240E+02  0.86587416136E+03  0.86826509960E+03  0.47000000000E+01 0. -1.
        -11    1    4    4    0    0  0.94316542500E+01  0.34793385970E+02  0.49291612276E+02  0.61067166709E+02  0.00000000000E+00 0.  1.
         12    1    4    4    0    0 -0.65262247949E+01 -0.25148781826E+02  0.17058002666E+03  0.17254737996E+03  0.00000000000E+00 0. -1.
         -5    1    5    5    0  502 -0.43833335505E+00 -0.12190674558E+02  0.81315705094E+02  0.82359811663E+02  0.47000000000E+01 0.  1.
         11    1    6    6    0    0 -0.59889189330E+02 -0.32315316797E+02 -0.20821965775E+02  0.71165644500E+02  0.00000000000E+00 0. -1.
        -12    1    6    6    0    0  0.27771251813E+02 -0.22103141029E+02 -0.15459291139E+02  0.38714092436E+02  0.00000000000E+00 0.  1.
</event>
<event>
12    1  0.1050869E+000  0.1735927E+03  0.7818608E-02  0.1174641E+00
         21   -1    0    0  501  502  0.00000000000E+00  0.00000000000E+00  0.13754201823E+03  0.13754201823E+03  0.00000000000E+00 0.  1.
         21   -1    0    0  502  503 -0.00000000000E+00 -0.00000000000E+00 -0.22384953984E+03  0.22384953984E+03  0.00000000000E+00 0.  1.
         -6    2    1    2    0  503  0.14388649199E+02  0.19852873866E+02 -0.75713815125E+02  0.18938584603E+03  0.17185239902E+03 0.  0.
        -24    2    3    3    0    0  0.27558397847E+02 -0.59424906889E+01  0.22394943623E+02  0.86983396573E+02  0.79182064206E+02 0.  0.
          6    2    1    2  501    0 -0.14388649199E+02 -0.19852873866E+02 -0.10593706484E+02  0.17200571204E+03  0.16991930006E+03 0.  0.
         24    2    5    5    0    0 -0.60853473546E+02 -0.36024890208E+02 -0.40928031523E+02  0.11401627085E+03  0.79521495818E+02 0.  0.
          5    1    5    5  501    0  0.46464824347E+02  0.16172016343E+02  0.30334325040E+02  0.57989441192E+02  0.47000000000E+01 0. -1.
        -13    1    6    6    0    0 -0.10301415393E+02  0.15666169996E+02  0.13847526175E+02  0.23308840010E+02  0.00000000000E+00 0.  1.
         14    1    6    6    0    0 -0.50552058153E+02 -0.51691060205E+02 -0.54775557698E+02  0.90707430841E+02  0.00000000000E+00 0. -1.
         -5    1    3    3    0  503 -0.13169748648E+02  0.25795364555E+02 -0.98108758749E+02  0.10240244946E+03  0.47000000000E+01 0.  1.
         11    1    4    4    0    0 -0.26210141950E+02 -0.11170126652E+02  0.15748685276E+02  0.32554022153E+02  0.00000000000E+00 0. -1.
        -12    1    4    4    0    0  0.53768539797E+02  0.52276359630E+01  0.66462583474E+01  0.54429374420E+02  0.00000000000E+00 0.  1.
</event>
<event>
12    1  0.1050869E+000  0.2439312E+03  0.7818608E-02  0.1117281E+00
         21   -1    0    0  501  502  0.00000000000E+00  0.00000000000E+00  0.12740836945E+04  0.12740836945E+04  0.00000000000E+00 0.  1.
         21   -1    0    0  502  503 -0.00000000000E+00 -0.00000000000E+00 -0.46615421661E+02  0.46615421661E+02  0.00000000000E+00 0.  1.
         -6    2    1    2    0  503  0.11691394231E+03  0.12844512861E+03  0.60514897473E+03  0.65228028038E+03  0.17057919447E+03 0.  0.
        -24    2    3    3    0    0  0.51100165392E+02  0.12700305072E+03  0.52405616672E+03  0.54772567105E+03  0.81409723349E+02 0.  0.
          6    2    1    2  501    0 -0.11691394231E+03 -0.12844512861E+03  0.62231929813E+03  0.66841883580E+03  0.17127583092E+03 0.  0.
         24    2    5    5    0    0 -0.30648674251E+02  0.63904153200E+01  0.17813837932E+03  0.19625244668E+03  0.76167985402E+02 0.  0.
          5    1    5    5  501    0 -0.86265268059E+02 -0.13483554393E+03  0.44418091881E+03  0.47216638912E+03  0.47000000000E+01 0. -1.
        -13    1    6    6    0    0 -0.10924668055E+02 -0.16191045711E+02  0.16004714620E+03  0.16123457241E+03  0.00000000000E+00 0.  1.
         14    1    6    6    0    0 -0.19724006196E+02  0.22581461031E+02  0.18091233121E+02  0.35017874273E+02  0.00000000000E+00 0. -1.
         -5    1    3    3    0  503  0.65813776918E+02  0.14420778932E+01  0.81092808002E+02  0.10455460932E+03  0.47000000000E+01 0.  1.
         13    1    4    4    0    0 -0.21486447920E+01  0.99163993299E+02  0.32552152664E+03  0.34029748537E+03  0.00000000000E+00 0. -1.
        -14    1    4    4    0    0  0.53248810184E+02  0.27839057418E+02  0.19853464009E+03  0.20742818569E+03  0.00000000000E+00 0.  1.
</event>
<event>
12    1  0.1050869E+000  0.6816685E+03  0.7818608E-02  0.9749322E-01
         21   -1    0    0  501  502  0.00000000000E+00  0.00000000000E+00  0.11637451537E+04  0.11637451537E+04  0.00000000000E+00 0. -1.
         21   -1    0    0  502  503 -0.00000000000E+00 -0.00000000000E+00 -0.53546884618E+03  0.53546884618E+03  0.00000000000E+00 0.  1.
         -6    2    1    2    0  503  0.45047708878E+03  0.48132182856E+03 -0.11485237381E+03  0.69079335395E+03  0.17147617888E+03 0.  0.
        -24    2    3    3    0    0  0.27233804434E+03  0.23759434290E+03 -0.12975517486E+02  0.37214371834E+03  0.87769589676E+02 0.  0.
          6    2    1    2  501    0 -0.45047708878E+03 -0.48132182856E+03  0.74312868138E+03  0.10084206460E+04  0.17341179883E+03 0.  0.
         24    2    5    5    0    0 -0.34899993579E+03 -0.44559669214E+03  0.65262322292E+03  0.86775357107E+03  0.81986717105E+02 0.  0.
          5    1    5    5  501    0 -0.10147715299E+03 -0.35725136420E+02  0.90505458461E+02  0.14066707491E+03  0.47000000000E+01 0. -1.
        -11    1    6    6    0    0 -0.16846913517E+02 -0.90060678068E+01  0.46350914656E+02  0.50133173068E+02  0.00000000000E+00 0.  1.
         12    1    6    6    0    0 -0.33215302227E+03 -0.43659062433E+03  0.60627230826E+03  0.81762039800E+03  0.00000000000E+00 0. -1.
         -5    1    3    3    0  503  0.17813904444E+03  0.24372748566E+03 -0.10187685632E+03  0.31864963561E+03  0.47000000000E+01 0.  1.
         11    1    4    4    0    0  0.19097940155E+03  0.20980181130E+03  0.73358643443E+01  0.28380230222E+03  0.00000000000E+00 0. -1.
        -12    1    4    4    0    0  0.81358642795E+02  0.27792531602E+02 -0.20311381830E+02  0.88341416120E+02  0.00000000000E+00 0.  1.
</event>
<event>
12    1  0.1050869E+000  0.2005392E+03  0.7818608E-02  0.1149769E+00
         21   -1    0    0  503  502  0.00000000000E+00  0.00000000000E+00  0.98614181801E+02  0.98614181801E+02  0.00000000000E+00 0. -1.
         21   -1    0    0  501  503 -0.00000000000E+00 -0.00000000000E+00 -0.48269259872E+03  0.48269259872E+03  0.00000000000E+00 0. -1.
          6    2    1    2  501    0  0.39849551273E+02 -0.90015516107E+02 -0.74988134425E+02  0.21410093381E+03  0.17471465215E+03 0.  0.
         24    2    3    3    0    0 -0.11128803270E+02 -0.11804937082E+03 -0.73037921462E+02  0.15570073713E+03  0.69632444731E+02 0.  0.
         -6    2    1    2    0  502 -0.39849551273E+02  0.90015516107E+02 -0.30909028249E+03  0.36720584671E+03  0.17208297780E+03 0.  0.
        -24    2    5    5    0    0  0.94221685975E+01  0.95557682065E+02 -0.28599628640E+03  0.31230738919E+03  0.80758786780E+02 0.  0.
          5    1    3    3  501    0  0.50978354543E+02  0.28033854709E+02 -0.19502129622E+01  0.58400196681E+02  0.47000000000E+01 0. -1.
        -11    1    4    4    0    0  0.13594293286E+02 -0.53392451285E+02 -0.33938345362E-01  0.55095914694E+02  0.00000000000E+00 0.  1.
         12    1    4    4    0    0 -0.24723096555E+02 -0.64656919530E+02 -0.73003983117E+02  0.10060482244E+03  0.00000000000E+00 0. -1.
         -5    1    5    5    0  502 -0.49271719871E+02 -0.55421659584E+01 -0.23093996086E+02  0.54898457517E+02  0.47000000000E+01 0.  1.
         13    1    6    6    0    0  0.41870005384E+02  0.51419860961E+02 -0.11497595598E+03  0.13272742710E+03  0.00000000000E+00 0. -1.
        -14    1    6    6    0    0 -0.32447836786E+02  0.44137821104E+02 -0.17102033043E+03  0.17957996209E+03  0.00000000000E+00 0.  1.
</event>
<event>
12    1  0.1050869E+000  0.2142570E+03  0.7818608E-02  0.1138334E+00
         21   -1    0    0  501  502  0.00000000000E+00  0.00000000000E+00  0.35728717541E+02  0.35728717541E+02  0.00000000000E+00 0. -1.
         21   -1    0    0  502  503 -0.00000000000E+00 -0.00000000000E+00 -0.14392906423E+04  0.14392906423E+04  0.00000000000E+00 0. -1.
         -6    2    1    2    0  503  0.11819290953E+03 -0.44541706505E+02 -0.45860220964E+03  0.50618379674E+03  0.17306796904E+03 0.  0.
        -24    2    3    3    0    0  0.29834143088E+01 -0.24163940440E+02 -0.28369341084E+03  0.29569945281E+03  0.79771036480E+02 0.  0.
          6    2    1    2  501    0 -0.11819290953E+03  0.44541706505E+02 -0.94495971510E+03  0.96883556309E+03  0.17245276937E+03 0.  0.
         24    2    5    5    0    0 -0.24423835468E+02  0.18563566800E+02 -0.20067201895E+03  0.21819998730E+03  0.80005284320E+02 0.  0.
          5    1    5    5  501    0 -0.93769074059E+02  0.25978139705E+02 -0.74428769616E+03  0.75063557579E+03  0.47000000000E+01 0. -1.
        -11    1    6    6    0    0 -0.42356559674E+02  0.37716866381E+02 -0.16042890733E+03  0.17015896821E+03  0.00000000000E+00 0.  1.
         12    1    6    6    0    0  0.17932724206E+02 -0.19153299581E+02 -0.40243111621E+02  0.48041019090E+02  0.00000000000E+00 0. -1.
         -5    1    3    3    0  503  0.11520949522E+03 -0.20377766064E+02 -0.17490879880E+03  0.21048434392E+03  0.47000000000E+01 0.  1.
         13    1    4    4    0    0  0.48822141584E+01  0.29390155948E+02 -0.10473700103E+03  0.10889194950E+03  0.00000000000E+00 0. -1.
        -14    1    4    4    0    0 -0.18987998496E+01 -0.53554096388E+02 -0.17895640981E+03  0.18680750331E+03  0.00000000000E+00 0.  1.
</event>
<event>
12    1  0.1050869E+000  0.2430421E+03  0.7818608E-02  0.1118006E+00
         21   -1    0    0  501  502  0.00000000000E+00  0.00000000000E+00  0.98685246459E+02  0.98685246459E+02  0.00000000000E+00 0.  1.
         21   -1    0    0  502  503 -0.00000000000E+00 -0.00000000000E+00 -0.59571652526E+03  0.59571652526E+03  0.00000000000E+00 0.  1.
         -6    2    1    2    0  503  0.16512544058E+03 -0.39865991392E+02 -0.25926220331E+03  0.35536790221E+03  0.17382102134E+03 0.  0.
        -24    2    3    3    0    0  0.25563195252E+02 -0.21175201890E+01 -0.37199360364E+02  0.90346084966E+02  0.78234658650E+02 0.  0.
          6    2    1    2  501    0 -0.16512544058E+03  0.39865991392E+02 -0.23776907550E+03  0.33903386951E+03  0.17191312636E+03 0.  0.
         24    2    5    5    0    0 -0.23999817222E+02  0.58398350101E+00 -0.36583392498E+02  0.90121662585E+02  0.78786021584E+02 0.  0.
          5    1    5    5  501    0 -0.14112562336E+03  0.39282007891E+02 -0.20118568300E+03  0.24891220693E+03  0.47000000000E+01 0. -1.
        -11    1    6    6    0    0  0.21331524506E+02 -0.97487003873E+01 -0.36786687516E+02  0.43627187343E+02  0.00000000000E+00 0.  1.
         12    1    6    6    0    0 -0.45331341728E+02  0.10332683888E+02  0.20329501851E+00  0.46494475243E+02  0.00000000000E+00 0. -1.
         -5    1    3    3    0  503  0.13956224533E+03 -0.37748471203E+02 -0.22206284294E+03  0.26502181725E+03  0.47000000000E+01 0.  1.
         13    1    4    4    0    0  0.30468535023E+02  0.33262571961E+02 -0.29226148577E+02  0.53748470495E+02  0.00000000000E+00 0. -1.
        -14    1    4    4    0    0 -0.49053397704E+01 -0.35380092150E+02 -0.79732117866E+01  0.36597614472E+02  0.00000000000E+00 0.  1.
</event>
<event>
12    1  0.1050869E+000  0.2412105E+03  0.7818608E-02  0.1119479E+00
         21   -1    0    0  503  502  0.00000000000E+00  0.00000000000E+00  0.21619252275E+03  0.21619252275E+03  0.00000000000E+00 0.  1.
         21   -1    0    0  501  503 -0.00000000000E+00 -0.00000000000E+00 -0.27632766747E+03  0.27632766747E+03  0.00000000000E+00 0.  1.
          6    2    1    2  501    0  0.14747444304E+03  0.75548466811E+02  0.17702958509E+02  0.24185924611E+03  0.17528895573E+03 0.  0.
         24    2    3    3    0    0  0.11239030781E+03 -0.12401534554E+02  0.44372054024E+02  0.14337356217E+03  0.76169021275E+02 0.  0.
         -6    2    1    2    0  502 -0.14747444304E+03 -0.75548466811E+02 -0.77838103230E+02  0.25066094411E+03  0.17121873846E+03 0.  0.
        -24    2    5    5    0    0 -0.49256490782E+02 -0.97719908630E+02 -0.26980427959E+02  0.13775863186E+03  0.79209309627E+02 0.  0.
          5    1    3    3  501    0  0.35084135226E+02  0.87950001365E+02 -0.26669095515E+02  0.98485683936E+02  0.47000000000E+01 0. -1.
        -11    1    4    4    0    0 -0.40331620562E+00 -0.22981412458E+02  0.58930264192E+01  0.23728374216E+02  0.00000000000E+00 0.  1.
         12    1    4    4    0    0  0.11279362402E+03  0.10579877904E+02  0.38479027605E+02  0.11964518796E+03  0.00000000000E+00 0. -1.
         -5    1    5    5    0  502 -0.98217952256E+02  0.22171441819E+02 -0.50857675271E+02  0.11290231225E+03  0.47000000000E+01 0.  1.
         11    1    6    6    0    0 -0.15774865763E+02 -0.51495355395E+02 -0.52522293088E+02  0.75227716224E+02  0.00000000000E+00 0. -1.
        -12    1    6    6    0    0 -0.33481625019E+02 -0.46224553235E+02  0.25541865129E+02  0.62530915634E+02  0.00000000000E+00 0.  1.
</event>
<event>
12    1  0.1050869E+000  0.3042363E+03  0.7818608E-02  0.1083182E+00
         21   -1    0    0  501  502  0.00000000000E+00  0.00000000000E+00  0.16881966854E+04  0.16881966854E+04  0.00000000000E+00 0. -1.
         21   -1    0    0  502  503 -0.00000000000E+00 -0.00000000000E+00 -0.82984646143E+02  0.82984646143E+02  0.00000000000E+00 0. -1.
         -6    2    1    2    0  503  0.19577969759E+03  0.15625593187E+03  0.28592542254E+03  0.41726963292E+03  0.17209007253E+03 0.  0.
        -24    2    3    3    0    0  0.12410687909E+03  0.23453331624E+02  0.17519141201E+03  0.23003279191E+03  0.79186351766E+02 0.  0.
          6    2    1    2  501    0 -0.19577969759E+03 -0.15625593187E+03  0.13192866167E+04  0.13539116986E+04  0.17266761248E+03 0.  0.
         24    2    5    5    0    0 -0.37177822560E+02 -0.10000699962E+03  0.67504993559E+03  0.68804272619E+03  0.79541102984E+02 0.  0.
          5    1    5    5  501    0 -0.15860187503E+03 -0.56248932258E+02  0.64423668109E+03  0.66586897239E+03  0.47000000000E+01 0. -1.
        -13    1    6    6    0    0 -0.29433690678E+02 -0.11043529557E+03  0.64840157274E+03  0.65839721764E+03  0.00000000000E+00 0.  1.
         14    1    6    6    0    0 -0.77441318825E+01  0.10428295955E+02  0.26648362843E+02  0.29645508553E+02  0.00000000000E+00 0. -1.
         -5    1    3    3    0  503  0.71672818496E+02  0.13280260025E+03  0.11073401053E+03  0.18723684101E+03  0.47000000000E+01 0.  1.
         13    1    4    4    0    0  0.51334760228E+02 -0.27858694975E+02  0.53221243233E+02  0.79018132252E+02  0.00000000000E+00 0. -1.
        -14    1    4    4    0    0  0.72772118864E+02  0.51312026599E+02  0.12197016878E+03  0.15101465965E+03  0.00000000000E+00 0.  1.
</event>
<event>
12    1  0.1050869E+000  0.3102354E+03  0.7818608E-02  0.1080357E+00
         21   -1    0    0  503  502  0.00000000000E+00  0.00000000000E+00  0.18126118142E+04  0.18126118142E+04  0.00000000000E+00 0.  1.
         21   -1    0    0  501  503 -0.00000000000E+00 -0.00000000000E+00 -0.61520238929E+02  0.61520238929E+02  0.00000000000E+00 0.  1.
          6    2    1    2  501    0  0.15647034609E+03  0.20535475380E+03  0.12271191838E+04  0.12657280570E+04  0.17202464639E+03 0.  0.
         24    2    3    3    0    0  0.10383853884E+03  0.58276466551E+02  0.75577800065E+03  0.76915305700E+03  0.78850809254E+02 0.  0.
         -6    2    1    2    0  502 -0.15647034609E+03 -0.20535475380E+03  0.52397239146E+03  0.60840399609E+03  0.17016113345E+03 0.  0.
        -24    2    5    5    0    0 -0.12000324062E+03 -0.10755452629E+03  0.43715921863E+03  0.47256088342E+03  0.78973743914E+02 0.  0.
          5    1    3    3  501    0  0.52631807253E+02  0.14707828725E+03  0.47134118316E+03  0.49657500003E+03  0.47000000000E+01 0. -1.
        -11    1    4    4    0    0  0.43832460558E+02  0.57296982252E+01  0.48116061765E+03  0.48318697625E+03  0.00000000000E+00 0.  1.
         12    1    4    4    0    0  0.60006078283E+02  0.52546768326E+02  0.27461738300E+03  0.28596608075E+03  0.00000000000E+00 0. -1.
         -5    1    5    5    0  502 -0.36467105471E+02 -0.97800227511E+02  0.86813172831E+02  0.13584311267E+03  0.47000000000E+01 0.  1.
         13    1    6    6    0    0 -0.10829365064E+03 -0.91801205733E+02  0.27757179723E+03  0.31177087542E+03  0.00000000000E+00 0. -1.
        -14    1    6    6    0    0 -0.11709589983E+02 -0.15753320557E+02  0.15958742140E+03  0.16079000800E+03  0.00000000000E+00 0.  1.
</event>
<event>
12    1  0.1050869E+000  0.2602936E+03  0.7818608E-02  0.1108783E+00
         21   -1    0    0  503  502  0.00000000000E+00  0.00000000000E+00  0.62504416564E+03  0.62504416564E+03  0.00000000000E+00 0. -1.
         21   -1    0    0  501  503 -0.00000000000E+00 -0.00000000000E+00 -0.10375136172E+03  0.10375136172E+03  0.00000000000E+00 0. -1.
          6    2    1    2  501    0  0.83206760091E+02 -0.15745095771E+03  0.23795679347E+03  0.34404620299E+03  0.17329219609E+03 0.  0.
         24    2    3    3    0    0  0.11022002966E+03 -0.14925956074E+03  0.14921690330E+03  0.25080633048E+03  0.78811545922E+02 0.  0.
         -6    2    1    2    0  502 -0.83206760091E+02  0.15745095771E+03  0.28333601045E+03  0.38474932437E+03  0.18983829640E+03 0.  0.
        -24    2    5    5    0    0  0.27033663926E+02  0.10831209904E+03  0.17637646445E+03  0.22341112989E+03  0.79633824235E+02 0.  0.
          5    1    3    3  501    0 -0.27013269565E+02 -0.81913969646E+01  0.88739890172E+02  0.93239872504E+02  0.47000000000E+01 0. -1.
        -13    1    4    4    0    0  0.81028800948E+02 -0.88853507280E+02  0.48226344783E+02  0.12956231192E+03  0.00000000000E+00 0.  1.
         14    1    4    4    0    0  0.29191228708E+02 -0.60406053462E+02  0.10099055851E+03  0.12124401856E+03  0.00000000000E+00 0. -1.
         -5    1    5    5    0  502 -0.11024042402E+03  0.49138858669E+02  0.10695954600E+03  0.16133819448E+03  0.47000000000E+01 0.  1.
         13    1    6    6    0    0  0.35951655267E+02  0.47293221890E+02  0.34465931411E+02  0.68680934627E+02  0.00000000000E+00 0. -1.
        -14    1    6    6    0    0 -0.89179913403E+01  0.61018877147E+02  0.14191053304E+03  0.15473019526E+03  0.00000000000E+00 0.  1.
</event>
<event>
12    1  0.1050869E+000  0.1839176E+03  0.7818608E-02  0.1164386E+00
         21   -1    0    0  501  502  0.00000000000E+00  0.00000000000E+00  0.29076184478E+02  0.29076184478E+02  0.00000000000E+00 0. -1.
         21   -1    0    0  502  503 -0.00000000000E+00 -0.00000000000E+00 -0.13138591340E+04  0.13138591340E+04  0.00000000000E+00 0. -1.
         -6    2    1    2    0  503 -0.37532898021E+02 -0.51863378892E+02 -0.41082953379E+03  0.45011840457E+03  0.17241561353E+03 0.  0.
        -24    2    3    3    0    0 -0.75520259016E+02  0.79933853130E+01 -0.28772769575E+03  0.30798457909E+03  0.79372982319E+02 0.  0.
          6    2    1    2  501    0  0.37532898021E+02  0.51863378892E+02 -0.87395341577E+03  0.89281691395E+03  0.17096473437E+03 0.  0.
         24    2    5    5    0    0  0.74721498931E+02  0.16595775560E+02 -0.75714181359E+03  0.76516960185E+03  0.79762594888E+02 0.  0.
          5    1    5    5  501    0 -0.37188600910E+02  0.35267603332E+02 -0.11681160218E+03  0.12764731210E+03  0.47000000000E+01 0. -1.
        -13    1    6    6    0    0  0.76185186166E+02  0.22208742867E+02 -0.39048944098E+03  0.39847134698E+03  0.00000000000E+00 0.  1.
         14    1    6    6    0    0 -0.14636872354E+01 -0.56129673067E+01 -0.36665237261E+03  0.36669825486E+03  0.00000000000E+00 0. -1.
         -5    1    3    3    0  503  0.37987360995E+02 -0.59856764205E+02 -0.12310183804E+03  0.14213382548E+03  0.47000000000E+01 0.  1.
         13    1    4    4    0    0 -0.78594388087E+02 -0.19832991291E+02 -0.19663551100E+03  0.21268744573E+03  0.00000000000E+00 0. -1.
        -14    1    4    4    0    0  0.30741290711E+01  0.27826376604E+02 -0.91092184746E+02  0.95297133358E+02  0.00000000000E+00 0.  1.
</event>
<event>
12    1  0.1050869E+000  0.2718541E+03  0.7818608E-02  0.1100303E+00
         21   -1    0    0  503  502  0.00000000000E+00  0.00000000000E+00  0.15604442222E+03  0.15604442222E+03  0.00000000000E+00 0. -1.
         21   -1    0    0  501  503 -0.00000000000E+00 -0.00000000000E+00 -0.47267521428E+03  0.47267521428E+03  0.00000000000E+00 0. -1.
          6    2    1    2  501    0  0.13292076395E+03 -0.16314652013E+03 -0.16095141136E+03  0.31544547861E+03  0.17121850553E+03 0.  0.
         24    2    3    3    0    0  0.12323503141E+03 -0.55783989159E+02 -0.66943921108E+02  0.17233704176E+03  0.83185581547E+02 0.  0.
         -6    2    1    2    0  502 -0.13292076395E+03  0.16314652013E+03 -0.15567938069E+03  0.31327415789E+03  0.17210436343E+03 0.  0.
        -24    2    5    5    0    0 -0.13651915957E+03  0.70396807924E+02 -0.69270921525E+02  0.18637274190E+03  0.79643875195E+02 0.  0.
          5    1    3    3  501    0  0.96857325354E+01 -0.10736253098E+03 -0.94007490256E+02  0.14310843685E+03  0.47000000000E+01 0. -1.
        -13    1    4    4    0    0  0.54781867541E+02 -0.39458671336E+02  0.97902242931E+01  0.68219412535E+02  0.00000000000E+00 0.  1.
         14    1    4    4    0    0  0.68453163870E+02 -0.16325317823E+02 -0.76734145401E+02  0.10411762923E+03  0.00000000000E+00 0. -1.
         -5    1    5    5    0  502  0.35983956287E+01  0.92749712210E+02 -0.86408459170E+02  0.12690141600E+03  0.47000000000E+01 0.  1.
         13    1    6    6    0    0 -0.24926687218E+02 -0.17822912452E+02 -0.95898073417E+01  0.32108571267E+02  0.00000000000E+00 0. -1.
        -14    1    6    6    0    0 -0.11159247236E+03  0.88219720376E+02 -0.59681114184E+02  0.15426417063E+03  0.00000000000E+00 0.  1.
</event>
<event>
12    1  0.1050869E+000  0.2235755E+03  0.7818608E-02  0.1131272E+00
         21   -1    0    0  503  502  0.00000000000E+00  0.00000000000E+00  0.59353360431E+03  0.59353360431E+03  0.00000000000E+00 0. -1.
         21   -1    0    0  501  503 -0.00000000000E+00 -0.00000000000E+00 -0.15356667400E+03  0.15356667400E+03  0.00000000000E+00 0. -1.
          6    2    1    2  501    0  0.13222760116E+03  0.54528273670E+02  0.47115069594E+03  0.52150644669E+03  0.17183865840E+03 0.  0.
         24    2    3    3    0    0  0.14783449234E+03  0.85098541932E+01  0.30485226750E+03  0.34819018293E+03  0.79837608589E+02 0.  0.
         -6    2    1    2    0  502 -0.13222760116E+03 -0.54528273670E+02 -0.31183765628E+02  0.22559383163E+03  0.17164695888E+03 0.  0.
        -24    2    5    5    0    0 -0.93479828583E+02 -0.51684412214E+02 -0.87765727763E+02  0.15679640532E+03  0.73976570169E+02 0.  0.
          5    1    3    3  501    0 -0.15606891179E+02  0.46018419477E+02  0.16629842844E+03  0.17331626376E+03  0.47000000000E+01 0. -1.
        -13    1    4    4    0    0  0.13514882626E+03  0.17085025597E+02  0.30367884793E+03  0.33283321051E+03  0.00000000000E+00 0.  1.
         14    1    4    4    0    0  0.12685666076E+02 -0.85751714042E+01  0.11734195724E+01  0.15356972420E+02  0.00000000000E+00 0. -1.
         -5    1    5    5    0  502 -0.38747772575E+02 -0.28438614558E+01  0.56581962135E+02  0.68797426308E+02  0.47000000000E+01 0.  1.
         11    1    6    6    0    0 -0.12044213281E+02 -0.41572686236E+02 -0.50957968826E+02  0.66858551445E+02  0.00000000000E+00 0. -1.
        -12    1    6    6    0    0 -0.81435615302E+02 -0.10111725978E+02 -0.36807758938E+02  0.89937853877E+02  0.00000000000E+00 0.  1.
</event>
<event>
12    1  0.1050869E+000  0.3139621E+03  0.7818608E-02  0.1079981E+00
         21   -1    0    0  501  502  0.00000000000E+00  0.00000000000E+00  0.21238772500E+03  0.21238772500E+03  0.00000000000E+00 0.  1.
         21   -1    0    0  502  503 -0.00000000000E+00 -0.00000000000E+00 -0.47998294391E+03  0.47998294391E+03  0.00000000000E+00 0.  1.
         -6    2    1    2    0  503 -0.87424705360E+02  0.23212198568E+03 -0.22888293625E+03  0.38853519298E+03  0.19247987514E+03 0.  0.
        -24    2    3    3    0    0 -0.99140586372E+00  0.16997813462E+02 -0.68399108851E+02  0.10653116182E+03  0.79878293667E+02 0.  0.
          6    2    1    2  501    0  0.87424705360E+02 -0.23212198568E+03 -0.38712282661E+02  0.30383547593E+03  0.17115390812E+03 0.  0.
         24    2    5    5    0    0 -0.20043506699E+02 -0.12265852971E+03 -0.17765172635E+02  0.14894023323E+03  0.80129486727E+02 0.  0.
          5    1    5    5  501    0  0.10746821206E+03 -0.10946345597E+03 -0.20947110026E+02  0.15489524271E+03  0.47000000000E+01 0. -1.
        -13    1    6    6    0    0 -0.10380494017E+02 -0.12678241316E+03 -0.32074563951E+02  0.13118808100E+03  0.00000000000E+00 0.  1.
         14    1    6    6    0    0 -0.96630126815E+01  0.41238834540E+01  0.14309391316E+02  0.17752152226E+02  0.00000000000E+00 0. -1.
         -5    1    3    3    0  503 -0.86433299497E+02  0.21512417221E+03 -0.16048382740E+03  0.28200403116E+03  0.47000000000E+01 0.  1.
         11    1    4    4    0    0 -0.18654895487E+02  0.44863606430E+02 -0.38229955041E+02  0.61824572541E+02  0.00000000000E+00 0. -1.
        -12    1    4    4    0    0  0.17663489623E+02 -0.27865792967E+02 -0.30169153810E+02  0.44706589280E+02  0.00000000000E+00 0.  1.
</event>
<event>
12    1  0.1050869E+000  0.3198376E+03  0.7818608E-02  0.1075767E+00
         21   -1    0    0  501  502  0.00000000000E+00  0.00000000000E+00  0.64953041683E+03  0.64953041683E+03  0.00000000000E+00 0.  1.
         21   -1    0    0  502  503 -0.00000000000E+00 -0.00000000000E+00 -0.16896512435E+03  0.16896512435E+03  0.00000000000E+00 0.  1.
         -6    2    1    2    0  503 -0.13331984031E+03  0.23442926297E+03  0.34764243441E+03  0.47213653347E+03  0.17124948140E+03 0.  0.
        -24    2    3    3    0    0 -0.35677146456E+01  0.63565910107E+02  0.86487876759E+02  0.13412219584E+03  0.80344614469E+02 0.  0.
          6    2    1    2  501    0  0.13331984031E+03 -0.23442926297E+03  0.13292285807E+03  0.34635900771E+03  0.17194422604E+03 0.  0.
         24    2    5    5    0    0  0.16949640089E+02 -0.57792964788E+02  0.55175247497E+01  0.99384081267E+02  0.78863397414E+02 0.  0.
          5    1    5    5  501    0  0.11637020022E+03 -0.17663629818E+03  0.12740533332E+03  0.24697492644E+03  0.47000000000E+01 0. -1.
        -11    1    6    6    0    0  0.16968120670E+02  0.18474030840E+01 -0.26630639423E+02  0.31631012840E+02  0.00000000000E+00 0.  1.
         12    1    6    6    0    0 -0.18480580260E-01 -0.59640367872E+02  0.32148164173E+02  0.67753068426E+02  0.00000000000E+00 0. -1.
         -5    1    3    3    0  503 -0.12975212566E+03  0.17086335286E+03  0.26115455766E+03  0.33801433764E+03  0.47000000000E+01 0.  1.
         13    1    4    4    0    0 -0.16509760855E+02  0.83245598528E+01  0.73670443755E+02  0.75955281470E+02  0.00000000000E+00 0. -1.
        -14    1    4    4    0    0  0.12942046210E+02  0.55241350254E+02  0.12817433004E+02  0.58166914366E+02  0.00000000000E+00 0.  1.
</event>
<event>
12    1  0.1050869E+000  0.4244533E+03  0.7818608E-02  0.1035631E+00
         21   -1    0    0  503  502  0.00000000000E+00  0.00000000000E+00  0.18823862175E+03  0.18823862175E+03  0.00000000000E+00 0.  1.
         21   -1    0    0  501  503 -0.00000000000E+00 -0.00000000000E+00 -0.98943055687E+03  0.98943055687E+03  0.00000000000E+00 0.  1.
          6    2    1    2  501    0 -0.38422728711E+03 -0.52504179169E+02 -0.29391750410E+03  0.51624044533E+03  0.17242215980E+03 0.  0.
         24    2    3    3    0    0 -0.12465989647E+03 -0.68733067366E+02 -0.96980670038E+02  0.18998163134E+03  0.80146400723E+02 0.  0.
         -6    2    1    2    0  502  0.38422728711E+03  0.52504179169E+02 -0.50727443102E+03  0.66142873330E+03  0.17254948237E+03 0.  0.
        -24    2    5    5    0    0  0.17829289285E+03  0.50477102921E+02 -0.34366637098E+03  0.39836453754E+03  0.79066027240E+02 0.  0.
          5    1    3    3  501    0 -0.25956739064E+03  0.16228888197E+02 -0.19693683406E+03  0.32625881399E+03  0.47000000000E+01 0. -1.
        -11    1    4    4    0    0  0.44819261080E+01 -0.17040874450E+02  0.40260698689E+01  0.18074520803E+02  0.00000000000E+00 0.  1.
         12    1    4    4    0    0 -0.12914182258E+03 -0.51692192916E+02 -0.10100673991E+03  0.17190711054E+03  0.00000000000E+00 0. -1.
         -5    1    5    5    0  502  0.20593439427E+03  0.20270762481E+01 -0.16360806004E+03  0.26306419576E+03  0.47000000000E+01 0.  1.
         13    1    6    6    0    0  0.15626452867E+03  0.57802703188E+02 -0.24021546207E+03  0.29234093732E+03  0.00000000000E+00 0. -1.
        -14    1    6    6    0    0  0.22028364173E+02 -0.73256002665E+01 -0.10345090891E+03  0.10602360021E+03  0.00000000000E+00 0.  1.
</event>
<event>
12    1  0.1050869E+000  0.2009026E+03  0.7818608E-02  0.1149376E+00
         21   -1    0    0  503  502  0.00000000000E+00  0.00000000000E+00  0.85070673494E+02  0.85070673494E+02  0.00000000000E+00 0.  1.
         21   -1    0    0  501  503 -0.00000000000E+00 -0.00000000000E+00 -0.52028627195E+03  0.52028627195E+03  0.00000000000E+00 0.  1.
          6    2    1    2  501    0 -0.11706671286E+02  0.10160962855E+03 -0.12445711367E+03  0.23632902701E+03  0.17291695434E+03 0.  0.
         24    2    3    3    0    0  0.66816097651E+02  0.60524944342E+02 -0.35119174897E+02  0.11040391505E+03  0.53179020498E+02 0.  0.
         -6    2    1    2    0  502  0.11706671286E+02 -0.10160962855E+03 -0.31075848478E+03  0.36902791842E+03  0.17073138535E+03 0.  0.
        -24    2    5    5    0    0  0.48776757898E+01 -0.69230740691E+02 -0.72849436461E+02  0.12878255878E+03  0.80381713559E+02 0.  0.
          5    1    3    3  501    0 -0.78522768937E+02  0.41084684212E+02 -0.89337938771E+02  0.12592511196E+03  0.47000000000E+01 0. -1.
        -13    1    4    4    0    0 -0.33484585844E+00  0.65327618457E+01  0.10905812764E+02  0.12717147916E+02  0.00000000000E+00 0.  1.
         14    1    4    4    0    0  0.67150943509E+02  0.53992182497E+02 -0.46024987661E+02  0.97686767139E+02  0.00000000000E+00 0. -1.
         -5    1    5    5    0  502  0.68289954964E+01 -0.32378887863E+02 -0.23790904832E+03  0.24024535965E+03  0.47000000000E+01 0.  1.
         11    1    6    6    0    0  0.28808987965E+01 -0.19201773892E+02  0.17076475122E+02  0.25857565644E+02  0.00000000000E+00 0. -1.
        -12    1    6    6    0    0  0.19967769934E+01 -0.50028966800E+02 -0.89925911583E+02  0.10292499313E+03  0.00000000000E+00 0.  1.
</event>
<event>
12    1  0.1050869E+000  0.1772533E+03  0.7818608E-02  0.1170830E+00
         21   -1    0    0  501  502  0.00000000000E+00  0.00000000000E+00  0.15857388993E+04  0.15857388993E+04  0.00000000000E+00 0.  1.
         21   -1    0    0  502  503 -0.00000000000E+00 -0.00000000000E+00 -0.19668420544E+02  0.19668420544E+02  0.00000000000E+00 0.  1.
         -6    2    1    2    0  503  0.21891469281E+02 -0.35944144083E+02  0.79694053129E+03  0.81611675052E+03  0.17076627928E+03 0.  0.
        -24    2    3    3    0    0  0.72323398454E+02 -0.83150144198E+01  0.64305444091E+03  0.65177026562E+03  0.77366993876E+02 0.  0.
          6    2    1    2  501    0 -0.21891469281E+02  0.35944144083E+02  0.76912994746E+03  0.78929056932E+03  0.17218451968E+03 0.  0.
         24    2    5    5    0    0  0.46643563642E+02  0.55913675011E+01  0.54863691118E+03  0.55635793779E+03  0.79528669130E+02 0.  0.
          5    1    5    5  501    0 -0.68535032923E+02  0.30352776582E+02  0.22049303628E+03  0.23293263153E+03  0.47000000000E+01 0. -1.
        -13    1    6    6    0    0 -0.13495930496E+02  0.25585963670E+02  0.16248877017E+03  0.16504357639E+03  0.00000000000E+00 0.  1.
         14    1    6    6    0    0  0.60139494138E+02 -0.19994596169E+02  0.38614814101E+03  0.39131436140E+03  0.00000000000E+00 0. -1.
         -5    1    3    3    0  503 -0.50431929173E+02 -0.27629129664E+02  0.15388609038E+03  0.16434648490E+03  0.47000000000E+01 0.  1.
         11    1    4    4    0    0  0.60641438784E+02 -0.25819503760E+02  0.26297338531E+03  0.27110704944E+03  0.00000000000E+00 0. -1.
        -12    1    4    4    0    0  0.11681959670E+02  0.17504489340E+02  0.38008105560E+03  0.38066321618E+03  0.00000000000E+00 0.  1.
</event>
<event>
12    1  0.1050869E+000  0.3624922E+03  0.7818608E-02  0.1057925E+00
         21   -1    0    0  501  502  0.00000000000E+00  0.00000000000E+00  0.11859131622E+03  0.11859131622E+03  0.00000000000E+00 0.  1.
         21   -1    0    0  502  503 -0.00000000000E+00 -0.00000000000E+00 -0.11040794758E+04  0.11040794758E+04  0.00000000000E+00 0.  1.
         -6    2    1    2    0  503 -0.11793192120E+03  0.29297266650E+03 -0.44513753412E+03  0.57199469732E+03  0.17114201157E+03 0.  0.
        -24    2    3    3    0    0 -0.10282123410E+03  0.27201711944E+03 -0.30279843941E+03  0.42725363301E+03  0.79330023041E+02 0.  0.
          6    2    1    2  501    0  0.11793192120E+03 -0.29297266650E+03 -0.54035062544E+03  0.65067609469E+03  0.17793161728E+03 0.  0.
         24    2    5    5    0    0  0.74775888778E+02 -0.29681741559E+03 -0.49753301530E+03  0.58958057138E+03  0.79838193201E+02 0.  0.
          5    1    5    5  501    0  0.43156032424E+02  0.38447490885E+01 -0.42817610138E+02  0.61095523306E+02  0.47000000000E+01 0. -1.
        -11    1    6    6    0    0  0.50239711403E+02 -0.65049288930E+02 -0.10915546224E+03  0.13663950208E+03  0.00000000000E+00 0.  1.
         12    1    6    6    0    0  0.24536177375E+02 -0.23176812666E+03 -0.38837755306E+03  0.45294106930E+03  0.00000000000E+00 0. -1.
         -5    1    3    3    0  503 -0.15110687101E+02  0.20955547064E+02 -0.14233909471E+03  0.14474106432E+03  0.47000000000E+01 0.  1.
         13    1    4    4    0    0 -0.16465547849E+01  0.55564502885E+02 -0.97515630343E+02  0.11224715268E+03  0.00000000000E+00 0. -1.
        -14    1    4    4    0    0 -0.10117467932E+03  0.21645261655E+03 -0.20528280907E+03  0.31500648033E+03  0.00000000000E+00 0.  1.
</event>
<event>
12    1  0.1050869E+000  0.2413387E+03  0.7818608E-02  0.1118975E+00
         21   -1    0    0  503  502  0.00000000000E+00  0.00000000000E+00  0.55066418716E+03  0.55066418716E+03  0.00000000000E+00 0.  1.
         21   -1    0    0  501  503 -0.00000000000E+00 -0.00000000000E+00 -0.13507142408E+03  0.13507142408E+03  0.00000000000E+00 0.  1.
          6    2    1    2  501    0 -0.15258849657E+03 -0.72998602214E+02  0.47740704464E+02  0.24601532673E+03  0.17214041045E+03 0.  0.
         24    2    3    3    0    0 -0.13014948940E+03 -0.10320528208E+03 -0.11872662316E+01  0.18411226648E+03  0.79408420374E+02 0.  0.
         -6    2    1    2    0  502  0.15258849657E+03  0.72998602214E+02  0.36785205862E+03  0.43972028451E+03  0.17154225825E+03 0.  0.
        -24    2    5    5    0    0  0.18134153139E+03  0.53225400974E+02  0.31429090794E+03  0.37562189638E+03  0.81211698119E+02 0.  0.
          5    1    3    3  501    0 -0.22439007170E+02  0.30206679870E+02  0.48927970695E+02  0.61903060247E+02  0.47000000000E+01 0. -1.
        -11    1    4    4    0    0 -0.42240529616E+02 -0.27407438136E+02 -0.37172388932E+02  0.62587670562E+02  0.00000000000E+00 0.  1.
         12    1    4    4    0    0 -0.87908959788E+02 -0.75797843948E+02  0.35985122700E+02  0.12152459592E+03  0.00000000000E+00 0. -1.
         -5    1    5    5    0  502 -0.28753034814E+02  0.19773201240E+02  0.53561150674E+02  0.64098388122E+02  0.47000000000E+01 0.  1.
         11    1    6    6    0    0  0.74203896221E+02  0.17989220850E+02  0.58884197532E+02  0.96421880298E+02  0.00000000000E+00 0. -1.
        -12    1    6    6    0    0  0.10713763517E+03  0.35236180124E+02  0.25540671041E+03  0.27920001609E+03  0.00000000000E+00 0.  1.
</event>
<event>
12    1  0.1050869E+000  0.6244091E+03  0.7818608E-02  0.9856150E-01
         21   -1    0    0  501  502  0.00000000000E+00  0.00000000000E+00  0.15352650374E+04  0.15352650374E+04  0.00000000000E+00 0.  1.
         21   -1    0    0  502  503 -0.00000000000E+00 -0.00000000000E+00 -0.28995353129E+03  0.28995353129E+03  0.00000000000E+00 0. -1.
         -6    2    1    2    0  503 -0.50714069944E+03 -0.32062648659E+03  0.30072666610E+03  0.69305352674E+03  0.17289774518E+03 0.  0.
        -24    2    3    3    0    0 -0.36110715579E+03 -0.26924932305E+03  0.28220986958E+03  0.53707157087E+03  0.76875781737E+02 0.  0.
          6    2    1    2  501    0  0.50714069944E+03  0.32062648659E+03  0.94458483996E+03  0.11321650419E+04  0.17194222661E+03 0.  0.
         24    2    5    5    0    0  0.26468657749E+03  0.16758615937E+03  0.61548188702E+03  0.69566053260E+03  0.83555480106E+02 0.  0.
          5    1    5    5  501    0  0.24245412195E+03  0.15304032722E+03  0.32910295295E+03  0.43650450931E+03  0.47000000000E+01 0. -1.
        -13    1    6    6    0    0  0.80983905505E+02  0.96910645211E+02  0.21297677595E+03  0.24760689247E+03  0.00000000000E+00 0.  1.
         14    1    6    6    0    0  0.18370267199E+03  0.70675514160E+02  0.40250511107E+03  0.44805364013E+03  0.00000000000E+00 0. -1.
         -5    1    3    3    0  503 -0.14603354365E+03 -0.51377163539E+02  0.18516796520E+02  0.15598195587E+03  0.47000000000E+01 0.  1.
         13    1    4    4    0    0 -0.13818686041E+03 -0.14687949452E+03  0.14239606619E+03  0.24687210042E+03  0.00000000000E+00 0. -1.
        -14    1    4    4    0    0 -0.22292029539E+03 -0.12236982853E+03  0.13981380339E+03  0.29019947045E+03  0.00000000000E+00 0.  1.
</event>
<event>
12    1  0.1050869E+000  0.2917085E+03  0.7818608E-02  0.1089590E+00
         21   -1    0    0  503  502  0.00000000000E+00  0.00000000000E+00  0.67736953042E+03  0.67736953042E+03  0.00000000000E+00 0. -1.
         21   -1    0    0  501  503 -0.00000000000E+00 -0.00000000000E+00 -0.44657971975E+03  0.44657971975E+03  0.00000000000E+00 0. -1.
          6    2    1    2  501    0 -0.12926123604E+03 -0.19813244337E+03  0.59207751577E+03  0.65959739887E+03  0.16896156857E+03 0.  0.
         24    2    3    3    0    0 -0.10941061278E+03 -0.14540307288E+03  0.28600418807E+03  0.34834604435E+03  0.80211191435E+02 0.  0.
         -6    2    1    2    0  502  0.12926123604E+03  0.19813244337E+03 -0.36128770511E+03  0.46435185131E+03  0.17067191829E+03 0.  0.
        -24    2    5    5    0    0  0.21453133487E+02  0.90278460214E+02 -0.23803672883E+03  0.26821934046E+03  0.81668188474E+02 0.  0.
          5    1    3    3  501    0 -0.19850623262E+02 -0.52729370486E+02  0.30607332771E+03  0.31125135452E+03  0.47000000000E+01 0. -1.
        -11    1    4    4    0    0 -0.61791042987E+02 -0.83542888984E+02  0.90368827512E+02  0.13771010231E+03  0.00000000000E+00 0.  1.
         12    1    4    4    0    0 -0.47619569790E+02 -0.61860183898E+02  0.19563536055E+03  0.21063594204E+03  0.00000000000E+00 0. -1.
         -5    1    5    5    0  502  0.10780810255E+03  0.10785398315E+03 -0.12325097628E+03  0.19613251085E+03  0.47000000000E+01 0.  1.
         11    1    6    6    0    0  0.22430847414E+02 -0.69347976034E+01 -0.26452467136E+02  0.35369016824E+02  0.00000000000E+00 0. -1.
        -12    1    6    6    0    0 -0.97771392709E+00  0.97213257818E+02 -0.21158426170E+03  0.23285032364E+03  0.00000000000E+00 0.  1.
</event>
<event>
12    1  0.1050869E+000  0.2774842E+03  0.7818608E-02  0.1097361E+00
         21   -1    0    0  501  502  0.00000000000E+00  0.00000000000E+00  0.15440521817E+04  0.15440521817E+04  0.00000000000E+00 0.  1.
         21   -1    0    0  502  503 -0.00000000000E+00 -0.00000000000E+00 -0.90552913577E+02  0.90552913577E+02  0.00000000000E+00 0.  1.
         -6    2    1    2    0  503 -0.12890434346E+03 -0.17248973362E+03  0.12756048117E+04  0.13049933413E+04  0.17167104384E+03 0.  0.
        -24    2    3    3    0    0 -0.13001378582E+03 -0.19236710529E+03  0.10388771944E+04  0.10673835866E+04  0.78314801341E+02 0.  0.
          6    2    1    2  501    0  0.12890434346E+03  0.17248973362E+03  0.17789445646E+03  0.32961175400E+03  0.17500980762E+03 0.  0.
         24    2    5    5    0    0  0.42775446190E+02  0.60453299967E+02  0.15068389539E+03  0.18562267787E+03  0.79156818618E+02 0.  0.
          5    1    5    5  501    0  0.86128897269E+02  0.11203643365E+03  0.27210561068E+02  0.14398907613E+03  0.47000000000E+01 0. -1.
        -13    1    6    6    0    0 -0.54387704474E+01 -0.13410778526E+02  0.48601870976E+02  0.50710660290E+02  0.00000000000E+00 0.  1.
         14    1    6    6    0    0  0.48214216638E+02  0.73864078492E+02  0.10208202442E+03  0.13491201758E+03  0.00000000000E+00 0. -1.
         -5    1    3    3    0  503  0.11094423563E+01  0.19877371667E+02  0.23672761725E+03  0.23760975471E+03  0.47000000000E+01 0.  1.
         13    1    4    4    0    0 -0.13957737548E+02 -0.26031638520E+02  0.51312291461E+02  0.59206552817E+02  0.00000000000E+00 0. -1.
        -14    1    4    4    0    0 -0.11605604827E+03 -0.16633546677E+03  0.98756490299E+03  0.10081770338E+04  0.00000000000E+00 0.  1.
</event>
<event>
12    1  0.1050869E+000  0.5259005E+03  0.7818608E-02  0.1007283E+00
         21   -1    0    0  503  502  0.00000000000E+00  0.00000000000E+00  0.34198997308E+03  0.34198997308E+03  0.00000000000E+00 0.  1.
         21   -1    0    0  501  503 -0.00000000000E+00 -0.00000000000E+00 -0.84002573227E+03  0.84002573227E+03  0.00000000000E+00 0. -1.
          6    2    1    2  501    0  0.72420883976E+02  0.49159918856E+03 -0.36566154576E+03  0.64053080617E+03  0.17221150069E+03 0.  0.
         24    2    3    3    0    0  0.30833272224E+02  0.11835713376E+03 -0.66276923019E+02  0.16022631602E+03  0.79503081901E+02 0.  0.
         -6    2    1    2    0  502 -0.72420883976E+02 -0.49159918856E+03 -0.13237421344E+03  0.54148489919E+03  0.16961254976E+03 0.  0.
        -24    2    5    5    0    0 -0.64109275369E+02 -0.24933239371E+03 -0.11307874740E+02  0.27048410382E+03  0.82201828729E+02 0.  0.
          5    1    3    3  501    0  0.41587611752E+02  0.37324205480E+03 -0.29938462274E+03  0.48030449015E+03  0.47000000000E+01 0. -1.
        -11    1    4    4    0    0  0.35363635314E+02  0.59094988528E+02 -0.73064062350E+02  0.10040498782E+03  0.00000000000E+00 0.  1.
         12    1    4    4    0    0 -0.45303630900E+01  0.59262145230E+02  0.67871393316E+01  0.59821328197E+02  0.00000000000E+00 0. -1.
         -5    1    5    5    0  502 -0.83116086065E+01 -0.24226679485E+03 -0.12106633870E+03  0.27100079537E+03  0.47000000000E+01 0.  1.
         11    1    6    6    0    0 -0.98418534195E+01 -0.17555549482E+03  0.11151904371E+02  0.17618444543E+03  0.00000000000E+00 0. -1.
        -12    1    6    6    0    0 -0.54267421950E+02 -0.73776898894E+02 -0.22459779111E+02  0.94299658394E+02  0.00000000000E+00 0.  1.
</event>
<event>
12    1  0.1050869E+000  0.2033479E+03  0.7818608E-02  0.1147073E+00
         21   -1    0    0  501  502  0.00000000000E+00  0.00000000000E+00  0.95061638972E+03  0.95061638972E+03  0.00000000000E+00 0. -1.
         21   -1    0    0  502  503 -0.00000000000E+00 -0.00000000000E+00 -0.61228619588E+02  0.61228619588E+02  0.00000000000E+00 0. -1.
         -6    2    1    2    0  503 -0.10927775817E+03  0.45148530358E+01  0.71747629761E+03  0.74556711626E+03  0.17069292573E+03 0.  0.
        -24    2    3    3    0    0 -0.14222765520E+03 -0.13509411095E+02  0.61121112170E+03  0.63276220758E+03  0.79986036059E+02 0.  0.
          6    2    1    2  501    0  0.10927775817E+03 -0.45148530358E+01  0.17191147252E+03  0.26627789305E+03  0.17143030540E+03 0.  0.
         24    2    5    5    0    0  0.14383248104E+03  0.11640755608E+02  0.13675589076E+03  0.21419106657E+03  0.79701628269E+02 0.  0.
          5    1    5    5  501    0 -0.34554722868E+02 -0.16155608644E+02  0.35155581764E+02  0.52086826475E+02  0.47000000000E+01 0. -1.
        -11    1    6    6    0    0  0.65352969886E+02 -0.33800909732E+02  0.52320674687E+02  0.90282695858E+02  0.00000000000E+00 0.  1.
         12    1    6    6    0    0  0.78479511150E+02  0.45441665340E+02  0.84435216073E+02  0.12390837071E+03  0.00000000000E+00 0. -1.
         -5    1    3    3    0  503  0.32949897028E+02  0.18024264130E+02  0.10626517590E+03  0.11280490868E+03  0.47000000000E+01 0.  1.
         11    1    4    4    0    0 -0.31585052095E+01  0.87629722892E+01  0.15560564243E+03  0.15588419354E+03  0.00000000000E+00 0. -1.
        -12    1    4    4    0    0 -0.13906914999E+03 -0.22272383384E+02  0.45560547927E+03  0.47687801405E+03  0.00000000000E+00 0.  1.
</event>
<event>
12    1  0.1050869E+000  0.3202970E+03  0.7818608E-02  0.1075537E+00
         21   -1    0    0  503  502  0.00000000000E+00  0.00000000000E+00  0.92873646927E+03  0.92873646927E+03  0.00000000000E+00 0.  1.
         21   -1    0    0  501  503 -0.00000000000E+00 -0.00000000000E+00 -0.11730643301E+03  0.11730643301E+03  0.00000000000E+00 0.  1.
          6    2    1    2  501    0 -0.24181874707E+03  0.11962622320E+03  0.53285001584E+03  0.62170679012E+03  0.17263676836E+03 0.  0.
         24    2    3    3    0    0 -0.15629730596E+03  0.70873481792E+01  0.25744873952E+03  0.31211533630E+03  0.81590755100E+02 0.  0.
         -6    2    1    2    0  502  0.24181874707E+03 -0.11962622320E+03  0.27858002043E+03  0.42433611216E+03  0.17224276064E+03 0.  0.
        -24    2    5    5    0    0  0.24516494680E+03 -0.12418604216E+03  0.20880040804E+03  0.35417007119E+03  0.79440573497E+02 0.  0.
          5    1    3    3  501    0 -0.85521441103E+02  0.11253887502E+03  0.27540127632E+03  0.30959145382E+03  0.47000000000E+01 0. -1.
        -11    1    4    4    0    0 -0.10027778091E+03 -0.19916386800E+02  0.21110406091E+03  0.23455749901E+03  0.00000000000E+00 0.  1.
         12    1    4    4    0    0 -0.56019525052E+02  0.27003734979E+02  0.46344678603E+02  0.77557837287E+02  0.00000000000E+00 0. -1.
         -5    1    5    5    0  502 -0.33461997362E+01  0.45598189573E+01  0.69779612386E+02  0.70166040977E+02  0.47000000000E+01 0.  1.
         13    1    6    6    0    0  0.20716783785E+03 -0.67691607181E+02  0.16174625380E+03  0.27140839586E+03  0.00000000000E+00 0. -1.
        -14    1    6    6    0    0  0.37997108954E+02 -0.56494434978E+02  0.47054154240E+02  0.82761675331E+02  0.00000000000E+00 0.  1.
</event>
<event>
12    1  0.1050869E+000  0.2540857E+03  0.7818608E-02  0.1110826E+00
         21   -1    0    0  503  502  0.00000000000E+00  0.00000000000E+00  0.51810601279E+03  0.51810601279E+03  0.00000000000E+00 0. -1.
         21   -1    0    0  501  503 -0.00000000000E+00 -0.00000000000E+00 -0.12458174128E+03  0.12458174128E+03  0.00000000000E+00 0. -1.
          6    2    1    2  501    0  0.17457597468E+02  0.18614877373E+03  0.18313069102E+03  0.31280141110E+03  0.17132349262E+03 0.  0.
         24    2    3    3    0    0  0.26517518588E+02  0.87762315999E+02  0.17699704446E+03  0.21369697702E+03  0.77026237964E+02 0.  0.
         -6    2    1    2    0  502 -0.17457597468E+02 -0.18614877373E+03  0.21039358048E+03  0.32988634297E+03  0.17205640616E+03 0.  0.
        -24    2    5    5    0    0  0.96279256403E+01 -0.17554858150E+03  0.10631359040E+03  0.22171645819E+03  0.83340307836E+02 0.  0.
          5    1    3    3  501    0 -0.90599211195E+01  0.98386457728E+02  0.61336465523E+01  0.99104434083E+02  0.47000000000E+01 0. -1.
        -11    1    4    4    0    0  0.40417119910E+02  0.37549239375E+02  0.13799704622E+03  0.14861585960E+03  0.00000000000E+00 0.  1.
         12    1    4    4    0    0 -0.13899601323E+02  0.50213076624E+02  0.38999998247E+02  0.65081117417E+02  0.00000000000E+00 0. -1.
         -5    1    5    5    0  502 -0.27085523108E+02 -0.10600192225E+02  0.10407999008E+03  0.10816988478E+03  0.47000000000E+01 0.  1.
         11    1    6    6    0    0  0.17649416889E+02 -0.63079430185E+02 -0.17689310377E+01  0.65525915072E+02  0.00000000000E+00 0. -1.
        -12    1    6    6    0    0 -0.80214912487E+01 -0.11246915132E+03  0.10808252144E+03  0.15619054312E+03  0.00000000000E+00 0.  1.
</event>
<event>
12    1  0.1050869E+000  0.2538596E+03  0.7818608E-02  0.1111401E+00
         21   -1    0    0  501  502  0.00000000000E+00  0.00000000000E+00  0.42533380054E+03  0.42533380054E+03  0.00000000000E+00 0.  1.
         21   -1    0    0  502  503 -0.00000000000E+00 -0.00000000000E+00 -0.17229642841E+03  0.17229642841E+03  0.00000000000E+00 0.  1.
         -6    2    1    2    0  503  0.13357798476E+03  0.12326349965E+03  0.18697363330E+02  0.25454719477E+03  0.17722221817E+03 0.  0.
        -24    2    3    3    0    0  0.34361003807E+02  0.98844324774E+02 -0.38498732267E+02  0.13735594611E+03  0.80209877341E+02 0.  0.
          6    2    1    2  501    0 -0.13357798476E+03 -0.12326349965E+03  0.23434000881E+03  0.34308303419E+03  0.17249278322E+03 0.  0.
         24    2    5    5    0    0  0.38886890196E+01 -0.43635333494E+02  0.10013218974E+03  0.13506486204E+03  0.79352991779E+02 0.  0.
          5    1    5    5  501    0 -0.13746667378E+03 -0.79628166152E+02  0.13420781906E+03  0.20801817214E+03  0.47000000000E+01 0. -1.
        -11    1    6    6    0    0  0.78767595612E+01  0.20409357793E+02  0.91100439687E+01  0.23697639710E+02  0.00000000000E+00 0.  1.
         12    1    6    6    0    0 -0.39880705416E+01 -0.64044691287E+02  0.91022145773E+02  0.11136722233E+03  0.00000000000E+00 0. -1.
         -5    1    3    3    0  503  0.99216980951E+02  0.24419174872E+02  0.57196095597E+02  0.11719124866E+03  0.47000000000E+01 0.  1.
         13    1    4    4    0    0 -0.20008847600E+02  0.11361317304E+02 -0.24155263038E+02  0.33360309435E+02  0.00000000000E+00 0. -1.
        -14    1    4    4    0    0  0.54369851407E+02  0.87483007471E+02 -0.14343469230E+02  0.10399563668E+03  0.00000000000E+00 0.  1.
</event>
<event>
12    1  0.1050869E+000  0.2378755E+03  0.7818608E-02  0.1122483E+00
         21   -1    0    0  503  502  0.00000000000E+00  0.00000000000E+00  0.24263891521E+03  0.24263891521E+03  0.00000000000E+00 0.  1.
         21   -1    0    0  501  503 -0.00000000000E+00 -0.00000000000E+00 -0.48664145744E+03  0.48664145744E+03  0.00000000000E+00 0.  1.
          6    2    1    2  501    0 -0.14152201376E+03 -0.58403482470E+02  0.14394129916E+03  0.27803574109E+03  0.18205858556E+03 0.  0.
         24    2    3    3    0    0 -0.14103520692E+03 -0.22392070281E+02  0.40028884159E+02  0.16795877357E+03  0.78838465544E+02 0.  0.
         -6    2    1    2    0  502  0.14152201376E+03  0.58403482470E+02 -0.38794384139E+03  0.45124463156E+03  0.17228420211E+03 0.  0.
        -24    2    5    5    0    0  0.62782767813E+02  0.88653917148E+02 -0.30182413907E+03  0.33060611872E+03  0.80008761118E+02 0.  0.
          5    1    3    3  501    0 -0.48680684445E+00 -0.36011412189E+02  0.10391241500E+03  0.11007696752E+03  0.47000000000E+01 0. -1.
        -11    1    4    4    0    0 -0.92105827508E+02  0.13648137864E+02  0.51064760792E+02  0.10619493831E+03  0.00000000000E+00 0.  1.
         12    1    4    4    0    0 -0.48929379409E+02 -0.36040208145E+02 -0.11035876632E+02  0.61763835256E+02  0.00000000000E+00 0. -1.
         -5    1    5    5    0  502  0.78739245949E+02 -0.30250434678E+02 -0.86119702327E+02  0.12063851284E+03  0.47000000000E+01 0.  1.
         11    1    6    6    0    0  0.83084916160E+01  0.67436432551E+02 -0.10321681220E+03  0.12357351572E+03  0.00000000000E+00 0. -1.
        -12    1    6    6    0    0  0.54474276196E+02  0.21217484597E+02 -0.19860732687E+03  0.20703260300E+03  0.00000000000E+00 0.  1.
</event>
<event>
12    1  0.1050869E+000  0.3029721E+03  0.7818608E-02  0.1084794E+00
         21   -1    0    0  503  502  0.00000000000E+00  0.00000000000E+00  0.68518512037E+03  0.68518512037E+03  0.00000000000E+00 0.  1.
         21   -1    0    0  501  503 -0.00000000000E+00 -0.00000000000E+00 -0.18366584718E+03  0.18366584718E+03  0.00000000000E+00 0.  1.
          6    2    1    2  501    0  0.22722708205E+03  0.74520313036E+02  0.48724066782E+03  0.57375564206E+03  0.18602861219E+03 0.  0.
         24    2    3    3    0    0  0.24973250276E+03  0.48213210240E+02  0.44563008693E+03  0.51942252085E+03  0.80763507970E+02 0.  0.
         -6    2    1    2    0  502 -0.22722708205E+03 -0.74520313036E+02  0.14278605369E+02  0.29509532548E+03  0.17231351856E+03 0.  0.
        -24    2    5    5    0    0 -0.23247332899E+03 -0.99574182793E+02 -0.76824433798E+00  0.26503343627E+03  0.79267052242E+02 0.  0.
          5    1    3    3  501    0 -0.22505420704E+02  0.26307102797E+02  0.41610580892E+02  0.54333121213E+02  0.47000000000E+01 0. -1.
        -11    1    4    4    0    0  0.10909837021E+03 -0.11917377227E+02  0.23238989971E+03  0.25700105788E+03  0.00000000000E+00 0.  1.
         12    1    4    4    0    0  0.14063413254E+03  0.60130587466E+02  0.21324018721E+03  0.26242146297E+03  0.00000000000E+00 0. -1.
         -5    1    5    5    0  502  0.52462469424E+01  0.25053869757E+02  0.15046849707E+02  0.30061889210E+02  0.47000000000E+01 0.  1.
         11    1    6    6    0    0 -0.44826313892E+02 -0.33076762293E+02 -0.30868897016E+02  0.63689555062E+02  0.00000000000E+00 0. -1.
        -12    1    6    6    0    0 -0.18764701510E+03 -0.66497420500E+02  0.30100652678E+02  0.20134388121E+03  0.00000000000E+00 0.  1.
</event>
<event>
12    1  0.1050869E+000  0.1728864E+03  0.7818608E-02  0.1174977E+00
         21   -1    0    0  503  502  0.00000000000E+00  0.00000000000E+00  0.20609556867E+03  0.20609556867E+03  0.00000000000E+00 0. -1.
         21   -1    0    0  501  503 -0.00000000000E+00 -0.00000000000E+00 -0.16216807439E+03  0.16216807439E+03  0.00000000000E+00 0. -1.
          6    2    1    2  501    0 -0.51861448481E+00 -0.17305387060E+02  0.82407072814E+02  0.19114677554E+03  0.17159958849E+03 0.  0.
         24    2    3    3    0    0 -0.14998500823E+02 -0.41762639018E+02  0.11536156882E+03  0.14737563107E+03  0.80263391591E+02 0.  0.
         -6    2    1    2    0  502  0.51861448481E+00  0.17305387060E+02 -0.38479578535E+02  0.17711686751E+03  0.17201732881E+03 0.  0.
        -24    2    5    5    0    0 -0.58073579223E+00  0.43904195047E+02 -0.84489608445E+02  0.12375285333E+03  0.79046563329E+02 0.  0.
          5    1    3    3  501    0  0.14479886338E+02  0.24457251958E+02 -0.32954496001E+02  0.43771144472E+02  0.47000000000E+01 0. -1.
        -11    1    4    4    0    0 -0.44123573431E+02 -0.11367695226E+02  0.81411163523E+02  0.93294650293E+02  0.00000000000E+00 0.  1.
         12    1    4    4    0    0  0.29125072608E+02 -0.30394943792E+02  0.33950405293E+02  0.54080980780E+02  0.00000000000E+00 0. -1.
         -5    1    5    5    0  502  0.10993502770E+01 -0.26598807987E+02  0.46010029910E+02  0.53364014183E+02  0.47000000000E+01 0.  1.
         13    1    6    6    0    0  0.99293179362E+00 -0.20251171014E+02 -0.37561003719E+01  0.20620478438E+02  0.00000000000E+00 0. -1.
        -14    1    6    6    0    0 -0.15736675859E+01  0.64155366061E+02 -0.80733508074E+02  0.10313237489E+03  0.00000000000E+00 0.  1.
</event>
<event>
12    1  0.1050869E+000  0.2160669E+03  0.7818608E-02  0.1137197E+00
         21   -1    0    0  503  502  0.00000000000E+00  0.00000000000E+00  0.84971880999E+02  0.84971880999E+02  0.00000000000E+00 0.  1.
         21   -1    0    0  501  503 -0.00000000000E+00 -0.00000000000E+00 -0.58880867102E+03  0.58880867102E+03  0.00000000000E+00 0.  1.
          6    2    1    2  501    0  0.84990029224E+02  0.98258050270E+02 -0.15885714306E+03  0.26672299780E+03  0.17037492815E+03 0.  0.
         24    2    3    3    0    0  0.28340639448E+01  0.41148492334E+02 -0.19252205338E+02  0.94901192212E+02  0.83272795877E+02 0.  0.
         -6    2    1    2    0  502 -0.84990029224E+02 -0.98258050270E+02 -0.34497964696E+03  0.40705755422E+03  0.17264688274E+03 0.  0.
        -24    2    5    5    0    0 -0.80875848585E+02  0.54079163884E+01 -0.16634640769E+03  0.20042870024E+03  0.77009013004E+02 0.  0.
          5    1    3    3  501    0  0.82155965279E+02  0.57109557935E+02 -0.13960493772E+03  0.17182180559E+03  0.47000000000E+01 0. -1.
        -13    1    4    4    0    0 -0.15872407477E+02  0.77739596916E+01  0.28608585564E+02  0.33627651366E+02  0.00000000000E+00 0.  1.
         14    1    4    4    0    0  0.18706471422E+02  0.33374532643E+02 -0.47860790902E+02  0.61273540847E+02  0.00000000000E+00 0. -1.
         -5    1    5    5    0  502 -0.41141806390E+01 -0.10366596666E+03 -0.17863323927E+03  0.20662885398E+03  0.47000000000E+01 0.  1.
         11    1    6    6    0    0 -0.40861272090E+02 -0.31693006697E+02 -0.11226045569E+03  0.12359813972E+03  0.00000000000E+00 0. -1.
        -12    1    6    6    0    0 -0.40014576495E+02  0.37100923085E+02 -0.54085951996E+02  0.76830560516E+02  0.00000000000E+00 0.  1.
</event>
<event>
12    1  0.1050869E+000  0.1809509E+03  0.7818608E-02  0.1166896E+00
         21   -1    0    0  501  502  0.00000000000E+00  0.00000000000E+00  0.63327983072E+03  0.63327983072E+03  0.00000000000E+00 0. -1.
         21   -1    0    0  502  503 -0.00000000000E+00 -0.00000000000E+00 -0.52014002480E+02  0.52014002480E+02  0.00000000000E+00 0. -1.
         -6    2    1    2    0  503  0.12454382226E+02  0.54641558306E+02  0.26367189596E+03  0.31976799363E+03  0.17201130631E+03 0.  0.
        -24    2    3    3    0    0  0.67548106240E+02  0.13363940573E+02  0.12422703703E+03  0.16418483633E+03  0.82358740809E+02 0.  0.
          6    2    1    2  501    0 -0.12454382226E+02 -0.54641558306E+02  0.31759393227E+03  0.36552583957E+03  0.17205354412E+03 0.  0.
         24    2    5    5    0    0  0.27618436577E+02  0.28198200312E+02  0.13047569385E+03  0.15695071745E+03  0.77792701993E+02 0.  0.
          5    1    5    5  501    0 -0.40072818803E+02 -0.82839758619E+02  0.18711823843E+03  0.20857512212E+03  0.47000000000E+01 0. -1.
        -13    1    6    6    0    0 -0.99788541407E+01  0.32577227073E+02  0.18541218553E+02  0.38789560956E+02  0.00000000000E+00 0.  1.
         14    1    6    6    0    0  0.37597290717E+02 -0.43790267606E+01  0.11193447529E+03  0.11816115649E+03  0.00000000000E+00 0. -1.
         -5    1    3    3    0  503 -0.55093724014E+02  0.41277617733E+02  0.13944485894E+03  0.15558315730E+03  0.47000000000E+01 0.  1.
         11    1    4    4    0    0  0.73354725436E+02 -0.57170674095E+01  0.54233343826E+02  0.91404902418E+02  0.00000000000E+00 0. -1.
        -12    1    4    4    0    0 -0.58066191961E+01  0.19081007982E+02  0.69993693202E+02  0.72779933911E+02  0.00000000000E+00 0.  1.
</event>
<event>
12    1  0.1050869E+000  0.1929110E+03  0.7818608E-02  0.1158594E+00
         21   -1    0    0  501  502  0.00000000000E+00  0.00000000000E+00  0.24344820257E+03  0.24344820257E+03  0.00000000000E+00 0. -1.
         21   -1    0    0  502  503 -0.00000000000E+00 -0.00000000000E+00 -0.18620583443E+03  0.18620583443E+03  0.00000000000E+00 0. -1.
         -6    2    1    2    0  503  0.47714712252E+02  0.30504102337E+02 -0.74868142879E+02  0.19584245760E+03  0.17187738465E+03 0.  0.
        -24    2    3    3    0    0  0.38175835594E+02 -0.48511991005E+02 -0.29115524162E+02  0.10391898239E+03  0.78362194066E+02 0.  0.
          6    2    1    2  501    0 -0.47714712252E+02 -0.30504102337E+02  0.13211051102E+03  0.23381157940E+03  0.18441115344E+03 0.  0.
         24    2    5    5    0    0 -0.44897295353E+02 -0.10123176771E+01  0.16570390310E+03  0.18877482561E+03  0.78494326943E+02 0.  0.
          5    1    5    5  501    0 -0.28174168992E+01 -0.29491784660E+02 -0.33593392084E+02  0.45036753792E+02  0.47000000000E+01 0. -1.
        -13    1    6    6    0    0 -0.20962633233E+02  0.34447486239E+02  0.43579124708E+02  0.59373406594E+02  0.00000000000E+00 0.  1.
         14    1    6    6    0    0 -0.23934662119E+02 -0.35459803916E+02  0.12212477839E+03  0.12940141901E+03  0.00000000000E+00 0. -1.
         -5    1    3    3    0  503  0.95388766582E+01  0.79016093342E+02 -0.45752618717E+02  0.91923475208E+02  0.47000000000E+01 0.  1.
         13    1    4    4    0    0  0.26176325711E+02 -0.43818245648E+02  0.18729455383E+02  0.54369395604E+02  0.00000000000E+00 0. -1.
        -14    1    4    4    0    0  0.11999509882E+02 -0.46937453567E+01 -0.47844979544E+02  0.49549586784E+02  0.00000000000E+00 0.  1.
</event>
<event>
12    1  0.1050869E+000  0.3040797E+03  0.7818608E-02  0.1083249E+00
         21   -1    0    0  503  502  0.00000000000E+00  0.00000000000E+00  0.80462188247E+03  0.80462188247E+03  0.00000000000E+00 0. -1.
         21   -1    0    0  501  503 -0.00000000000E+00 -0.00000000000E+00 -0.13110185981E+03  0.13110185981E+03  0.00000000000E+00 0. -1.
          6    2    1    2  501    0 -0.24908251137E+03 -0.29770198702E+02  0.17202348768E+03  0.34936588347E+03  0.17186063544E+03 0.  0.
         24    2    3    3    0    0 -0.18638828575E+03 -0.80139899157E+02  0.95217505448E+02  0.23806035100E+03  0.80270547988E+02 0.  0.
         -6    2    1    2    0  502  0.24908251137E+03  0.29770198702E+02  0.50149653497E+03  0.58635785880E+03  0.17143045759E+03 0.  0.
        -24    2    5    5    0    0  0.17012937983E+03  0.67750802253E+02  0.26944047392E+03  0.33826870406E+03  0.91067942088E+02 0.  0.
          5    1    3    3  501    0 -0.62694225619E+02  0.50369700455E+02  0.76805982235E+02  0.11130553246E+03  0.47000000000E+01 0. -1.
        -11    1    4    4    0    0 -0.58231821447E+02  0.27093950978E+01  0.55231202641E+02  0.80304243947E+02  0.00000000000E+00 0.  1.
         12    1    4    4    0    0 -0.12815646430E+03 -0.82849294255E+02  0.39986302808E+02  0.15775610706E+03  0.00000000000E+00 0. -1.
         -5    1    5    5    0  502  0.78953131536E+02 -0.37980603551E+02  0.23205606106E+03  0.24808915474E+03  0.47000000000E+01 0.  1.
         13    1    6    6    0    0  0.62628885211E+02 -0.15914678211E+02  0.11831002590E+03  0.13480696004E+03  0.00000000000E+00 0. -1.
        -14    1    6    6    0    0  0.10750049462E+03  0.83665480464E+02  0.15113044801E+03  0.20346174402E+03  0.00000000000E+00 0.  1.
</event>
<event>
12    1  0.1050869E+000  0.2176147E+03  0.7818608E-02  0.1135912E+00
         21   -1    0    0  501  502  0.00000000000E+00  0.00000000000E+00  0.20458860013E+03  0.20458860013E+03  0.00000000000E+00 0.  1.
         21   -1    0    0  502  503 -0.00000000000E+00 -0.00000000000E+00 -0.27469486770E+03  0.27469486770E+03  0.00000000000E+00 0.  1.
         -6    2    1    2    0  503  0.10874670013E+02 -0.13169064968E+03  0.61546246957E+02  0.22494402113E+03  0.17132187971E+03 0.  0.
        -24    2    3    3    0    0  0.69920509693E+02 -0.10617931208E+03  0.29404122902E+02  0.15288539453E+03  0.79664405013E+02 0.  0.
          6    2    1    2  501    0 -0.10874670013E+02  0.13169064968E+03 -0.13165251452E+03  0.25433944670E+03  0.17290310554E+03 0.  0.
         24    2    5    5    0    0 -0.10690758056E+02  0.15378846298E+03 -0.67998530129E+02  0.18679489174E+03  0.80643337151E+02 0.  0.
          5    1    5    5  501    0 -0.18391195697E+00 -0.22097813295E+02 -0.63653984396E+02  0.67544554965E+02  0.47000000000E+01 0. -1.
        -11    1    6    6    0    0 -0.18515158013E+02  0.68981423903E+00  0.12735274052E+01  0.18571720221E+02  0.00000000000E+00 0.  1.
         12    1    6    6    0    0  0.78243999567E+01  0.15309864874E+03 -0.69272057534E+02  0.16822317152E+03  0.00000000000E+00 0. -1.
         -5    1    3    3    0  503 -0.59045839680E+02 -0.25511337601E+02  0.32142124055E+02  0.72058626607E+02  0.47000000000E+01 0.  1.
         13    1    4    4    0    0  0.51528390805E+02 -0.90013907057E+02 -0.12379530423E+02  0.10445540338E+03  0.00000000000E+00 0. -1.
        -14    1    4    4    0    0  0.18392118888E+02 -0.16165405023E+02  0.41783653325E+02  0.48429991141E+02  0.00000000000E+00 0.  1.
</event>
<event>
12    1  0.1050869E+000  0.2322737E+03  0.7818608E-02  0.1125181E+00
         21   -1    0    0  501  502  0.00000000000E+00  0.00000000000E+00  0.45767835360E+03  0.45767835360E+03  0.00000000000E+00 0.  1.
         21   -1    0    0  502  503 -0.00000000000E+00 -0.00000000000E+00 -0.15483893256E+03  0.15483893256E+03  0.00000000000E+00 0.  1.
         -6    2    1    2    0  503  0.97981530852E+02 -0.12082629565E+03  0.30200773188E+03  0.38099833192E+03  0.17248676674E+03 0.  0.
        -24    2    3    3    0    0  0.10552764937E+03 -0.14990224513E+03  0.27711435751E+03  0.34170297812E+03  0.79760831508E+02 0.  0.
          6    2    1    2  501    0 -0.97981530852E+02  0.12082629565E+03  0.83168916707E+00  0.23151895424E+03  0.17146708243E+03 0.  0.
         24    2    5    5    0    0  0.95762374621E+01  0.63329617677E+02  0.28531393618E+02  0.10636343047E+03  0.79979960746E+02 0.  0.
          5    1    5    5  501    0 -0.10755776831E+03  0.57496677975E+02 -0.27699704451E+02  0.12515552377E+03  0.47000000000E+01 0. -1.
        -11    1    6    6    0    0  0.25853955827E+02 -0.34152251976E+01  0.27153668323E+02  0.37648539128E+02  0.00000000000E+00 0.  1.
         12    1    6    6    0    0 -0.16277718365E+02  0.66744842875E+02  0.13777252948E+01  0.68714891345E+02  0.00000000000E+00 0. -1.
         -5    1    3    3    0  503 -0.75461185220E+01  0.29075949475E+02  0.24893374375E+02  0.39295353802E+02  0.47000000000E+01 0.  1.
         13    1    4    4    0    0  0.74420272555E+02 -0.91344177551E+02  0.10713515701E+03  0.15924847757E+03  0.00000000000E+00 0. -1.
        -14    1    4    4    0    0  0.31107376819E+02 -0.58558067577E+02  0.16997920049E+03  0.18245450055E+03  0.00000000000E+00 0.  1.
</event>
<event>
12    1  0.1050869E+000  0.2648334E+03  0.7818608E-02  0.1104667E+00
         21   -1    0    0  503  502  0.00000000000E+00  0.00000000000E+00  0.10815969519E+04  0.10815969519E+04  0.00000000000E+00 0. -1.
         21   -1    0    0  501  503 -0.00000000000E+00 -0.00000000000E+00 -0.73035734966E+02  0.73035734966E+02  0.00000000000E+00 0. -1.
          6    2    1    2  501    0  0.19438975406E+03 -0.32288535441E+02  0.30116335240E+03  0.39928610327E+03  0.17291645795E+03 0.  0.
         24    2    3    3    0    0  0.21584690746E+03 -0.33063238556E+02  0.24642112454E+03  0.34029617948E+03  0.85994499513E+02 0.  0.
         -6    2    1    2    0  502 -0.19438975406E+03  0.32288535441E+02  0.70739786449E+03  0.75534658356E+03  0.17693726742E+03 0.  0.
        -24    2    5    5    0    0 -0.27235240821E+02  0.29116027172E+02  0.16508025660E+03  0.18782462457E+03  0.80231521827E+02 0.  0.
          5    1    3    3  501    0 -0.21457153404E+02  0.77470311459E+00  0.54742227857E+02  0.58989923783E+02  0.47000000000E+01 0. -1.
        -11    1    4    4    0    0  0.89929159545E+02 -0.10974981499E+01  0.16222326305E+03  0.18548543154E+03  0.00000000000E+00 0.  1.
         12    1    4    4    0    0  0.12591774791E+03 -0.31965740406E+02  0.84197861498E+02  0.15481074795E+03  0.00000000000E+00 0. -1.
         -5    1    5    5    0  502 -0.16715451324E+03  0.31725082699E+01  0.54231760789E+03  0.56752195899E+03  0.47000000000E+01 0.  1.
         11    1    6    6    0    0  0.25811048780E+02  0.11388562586E+02  0.89227324405E+02  0.93581114641E+02  0.00000000000E+00 0. -1.
        -12    1    6    6    0    0 -0.53046289601E+02  0.17727464585E+02  0.75852932194E+02  0.94243509927E+02  0.00000000000E+00 0.  1.
</event>
<event>
12    1  0.1050869E+000  0.3143575E+03  0.7818608E-02  0.1078285E+00
         21   -1    0    0  501  502  0.00000000000E+00  0.00000000000E+00  0.40452122366E+03  0.40452122366E+03  0.00000000000E+00 0.  1.
         21   -1    0    0  502  503 -0.00000000000E+00 -0.00000000000E+00 -0.28162225603E+03  0.28162225603E+03  0.00000000000E+00 0.  1.
         -6    2    1    2    0  503  0.22189875896E+03 -0.14027387589E+03  0.18645551899E+03  0.36542540952E+03  0.17278382411E+03 0.  0.
        -24    2    3    3    0    0  0.23599737081E+03 -0.12960457593E+03  0.13575265399E+03  0.31152294819E+03  0.78266589646E+02 0.  0.
          6    2    1    2  501    0 -0.22189875896E+03  0.14027387589E+03 -0.63556551362E+02  0.32071807017E+03  0.17293011833E+03 0.  0.
         24    2    5    5    0    0 -0.22386239488E+03  0.10601176881E+03 -0.14890445243E+02  0.26098342585E+03  0.80856392706E+02 0.  0.
          5    1    5    5  501    0  0.19636359163E+01  0.34262107076E+02 -0.48666106119E+02  0.59734644320E+02  0.47000000000E+01 0. -1.
        -11    1    6    6    0    0 -0.71373122566E+02  0.18838102085E+02  0.30014752761E+02  0.79686147468E+02  0.00000000000E+00 0.  1.
         12    1    6    6    0    0 -0.15248927231E+03  0.87173666724E+02 -0.44905198004E+02  0.18129727838E+03  0.00000000000E+00 0. -1.
         -5    1    3    3    0  503 -0.14098611849E+02 -0.10669299960E+02  0.50702865002E+02  0.53902461327E+02  0.47000000000E+01 0.  1.
         13    1    4    4    0    0  0.15307126203E+03 -0.11923753640E+03  0.11447909994E+03  0.22528618615E+03  0.00000000000E+00 0. -1.
        -14    1    4    4    0    0  0.82926108776E+02 -0.10367039521E+02  0.21273554054E+02  0.86236762041E+02  0.00000000000E+00 0.  1.
</event>
<event>
12    1  0.1050869E+000  0.1788566E+03  0.7818608E-02  0.1169516E+00
         21   -1    0    0  503  502  0.00000000000E+00  0.00000000000E+00  0.17189781039E+03  0.17189781039E+03  0.00000000000E+00 0. -1.
         21   -1    0    0  501  503 -0.00000000000E+00 -0.00000000000E+00 -0.36714159764E+03  0.36714159764E+03  0.00000000000E+00 0. -1.
          6    2    1    2  501    0  0.42512166966E+02  0.15923610942E+02  0.93299209239E+02  0.19955928536E+03  0.17046501167E+03 0.  0.
         24    2    3    3    0    0 -0.23757513359E+02  0.43249813452E+02  0.87444601594E+02  0.12748461363E+03  0.78554456023E+02 0.  0.
         -6    2    1    2    0  502 -0.42512166966E+02 -0.15923610942E+02 -0.28854299649E+03  0.33948012267E+03  0.17299955820E+03 0.  0.
        -24    2    5    5    0    0 -0.21968729172E+02  0.49552649393E+02 -0.10115915077E+03  0.13987058096E+03  0.79953208255E+02 0.  0.
          5    1    3    3  501    0  0.66269680325E+02 -0.27326202510E+02  0.58546076452E+01  0.72074671728E+02  0.47000000000E+01 0. -1.
        -13    1    4    4    0    0  0.15056973474E+01  0.31215196411E+01  0.79295286711E+02  0.79370986538E+02  0.00000000000E+00 0.  1.
         14    1    4    4    0    0 -0.25263210706E+02  0.40128293811E+02  0.81493148825E+01  0.48113627097E+02  0.00000000000E+00 0. -1.
         -5    1    5    5    0  502 -0.20543437794E+02 -0.65476260335E+02 -0.18738384572E+03  0.19960954171E+03  0.47000000000E+01 0.  1.
         13    1    6    6    0    0  0.30197038233E+02  0.17974476817E+02 -0.43786109490E+02  0.56144156590E+02  0.00000000000E+00 0. -1.
        -14    1    6    6    0    0 -0.52165767405E+02  0.31578172576E+02 -0.57373041281E+02  0.83726424372E+02  0.00000000000E+00 0.  1.
</event>
<event>
12    1  0.1050869E+000  0.1936791E+03  0.7818608E-02  0.1155916E+00
         21   -1    0    0  503  502  0.00000000000E+00  0.00000000000E+00  0.43957742343E+02  0.43957742343E+02  0.00000000000E+00 0.  1.
         21   -1    0    0  501  503 -0.00000000000E+00 -0.00000000000E+00 -0.10175099594E+04  0.10175099594E+04  0.00000000000E+00 0.  1.
          6    2    1    2  501    0 -0.30660153379E+02 -0.83407337953E+02 -0.26785988564E+03  0.33054578964E+03  0.17208942932E+03 0.  0.
         24    2    3    3    0    0  0.45624323665E+02 -0.69970726168E+02 -0.15424280447E+03  0.19295656365E+03  0.80398453316E+02 0.  0.
         -6    2    1    2    0  502  0.30660153379E+02  0.83407337953E+02 -0.70569233140E+03  0.73092191209E+03  0.16836967049E+03 0.  0.
        -24    2    5    5    0    0  0.49489415318E+01  0.72158077594E+02 -0.68990549946E+03  0.69838076374E+03  0.80838188927E+02 0.  0.
          5    1    3    3  501    0 -0.76284477044E+02 -0.13436611785E+02 -0.11361708118E+03  0.13758922599E+03  0.47000000000E+01 0. -1.
        -13    1    4    4    0    0  0.92757735587E+01  0.48128973524E+00 -0.91193539075E+02  0.91665332508E+02  0.00000000000E+00 0.  1.
         14    1    4    4    0    0  0.36348550106E+02 -0.70452015904E+02 -0.63049265391E+02  0.10129123114E+03  0.00000000000E+00 0. -1.
         -5    1    5    5    0  502  0.25711211847E+02  0.11249260359E+02 -0.15786831946E+02  0.32541148354E+02  0.47000000000E+01 0.  1.
         11    1    6    6    0    0 -0.17320482000E+02 -0.63056870352E+01 -0.26992115606E+03  0.27054979444E+03  0.00000000000E+00 0. -1.
        -12    1    6    6    0    0  0.22269423532E+02  0.78463764629E+02 -0.41998434340E+03  0.42783096929E+03  0.00000000000E+00 0.  1.
</event>
<event>
12    1  0.1050869E+000  0.7331059E+03  0.7818608E-02  0.9662282E-01
         21   -1    0    0  503  502  0.00000000000E+00  0.00000000000E+00  0.29248753137E+04  0.29248753137E+04  0.00000000000E+00 0.  1.
         21   -1    0    0  501  503 -0.00000000000E+00 -0.00000000000E+00 -0.77282892194E+03  0.77282892194E+03  0.00000000000E+00 0. -1.
          6    2    1    2  501    0 -0.16955660946E+03  0.69197185621E+03 -0.53820189396E+03  0.90935702826E+03  0.17232072593E+03 0.  0.
         24    2    3    3    0    0 -0.19619205340E+03  0.64483080435E+03 -0.49616489099E+03  0.84064803858E+03  0.78812674478E+02 0.  0.
         -6    2    1    2    0  502  0.16955660946E+03 -0.69197185621E+03  0.26902482857E+04  0.27883472074E+04  0.17282886474E+03 0.  0.
        -24    2    5    5    0    0  0.19363462304E+03 -0.62152764451E+03  0.24660906381E+04  0.25521039457E+04  0.88546791230E+02 0.  0.
          5    1    3    3  501    0  0.26635443941E+02  0.47141051855E+02 -0.42037002973E+02  0.68708989680E+02  0.47000000000E+01 0. -1.
        -11    1    4    4    0    0 -0.21830037228E+02  0.42456731380E+02 -0.60484587274E+02  0.77055239034E+02  0.00000000000E+00 0.  1.
         12    1    4    4    0    0 -0.17436201618E+03  0.60237407297E+03 -0.43568030372E+03  0.76359279955E+03  0.00000000000E+00 0. -1.
         -5    1    5    5    0  502 -0.24078013576E+02 -0.70444211697E+02  0.22415764763E+03  0.23624326168E+03  0.47000000000E+01 0.  1.
         13    1    6    6    0    0  0.14721023945E+03 -0.48096524310E+03  0.20375771114E+04  0.20987422197E+04  0.00000000000E+00 0. -1.
        -14    1    6    6    0    0  0.46424383586E+02 -0.14056240141E+03  0.42851352669E+03  0.45336172604E+03  0.00000000000E+00 0.  1.
</event>
<event>
12    1  0.1050869E+000  0.1928784E+03  0.7818608E-02  0.1156966E+00
         21   -1    0    0  503  502  0.00000000000E+00  0.00000000000E+00  0.30840233840E+04  0.30840233840E+04  0.00000000000E+00 0. -1.
         21   -1    0    0  501  503 -0.00000000000E+00 -0.00000000000E+00 -0.18408491280E+02  0.18408491280E+02  0.00000000000E+00 0. -1.
          6    2    1    2  501    0  0.39918017473E+02  0.67723170543E+02  0.24523354580E+04  0.24595370464E+04  0.17086078605E+03 0.  0.
         24    2    3    3    0    0  0.33104325489E+02  0.99204450218E+02  0.22983138622E+04  0.23021132892E+04  0.80879958989E+02 0.  0.
         -6    2    1    2    0  502 -0.39918017473E+02 -0.67723170543E+02  0.61327943473E+03  0.64289482887E+03  0.17613125781E+03 0.  0.
        -24    2    5    5    0    0  0.41456061269E+02 -0.83969716884E+01  0.27122501658E+03  0.28629329558E+03  0.81312528746E+02 0.  0.
          5    1    3    3  501    0  0.68136919840E+01 -0.31481279675E+02  0.15402159574E+03  0.15742375718E+03  0.47000000000E+01 0. -1.
        -11    1    4    4    0    0  0.24216605490E+02 -0.72081120355E+01  0.48581678979E+03  0.48647338478E+03  0.00000000000E+00 0.  1.
         12    1    4    4    0    0  0.88877199985E+01  0.10641256225E+03  0.18124970725E+04  0.18156399044E+04  0.00000000000E+00 0. -1.
         -5    1    5    5    0  502 -0.81374078741E+02 -0.59326198855E+02  0.34205441815E+03  0.35660153328E+03  0.47000000000E+01 0.  1.
         11    1    6    6    0    0  0.43870515453E+02 -0.32915713008E+02  0.24167337962E+03  0.24781866094E+03  0.00000000000E+00 0. -1.
        -12    1    6    6    0    0 -0.24144541845E+01  0.24518741320E+02  0.29551636951E+02  0.38474634650E+02  0.00000000000E+00 0.  1.
</event>
<event>
12    1  0.1050869E+000  0.3691947E+03  0.7818608E-02  0.1055024E+00
         21   -1    0    0  503  502  0.00000000000E+00  0.00000000000E+00  0.13610364091E+04  0.13610364091E+04  0.00000000000E+00 0. -1.
         21   -1    0    0  501  503 -0.00000000000E+00 -0.00000000000E+00 -0.10126744239E+03  0.10126744239E+03  0.00000000000E+00 0. -1.
          6    2    1    2  501    0 -0.61716903015E+02  0.32069908034E+03  0.70875568613E+03  0.79903891079E+03  0.17167318392E+03 0.  0.
         24    2    3    3    0    0 -0.45509702609E+02  0.81647871633E+02  0.30599436955E+03  0.33037386850E+03  0.82321508827E+02 0.  0.
         -6    2    1    2    0  502  0.61716903015E+02 -0.32069908034E+03  0.55101328054E+03  0.66326494066E+03  0.17218556830E+03 0.  0.
        -24    2    5    5    0    0  0.67635394480E+02 -0.94210692579E+02  0.24358820305E+03  0.28134310756E+03  0.79803072132E+02 0.  0.
          5    1    3    3  501    0 -0.16207200406E+02  0.23905120871E+03  0.40276131658E+03  0.46866504229E+03  0.47000000000E+01 0. -1.
        -11    1    4    4    0    0 -0.49251981768E+02  0.96452647315E+02  0.25256864672E+03  0.27480864649E+03  0.00000000000E+00 0.  1.
         12    1    4    4    0    0  0.37422791595E+01 -0.14804775681E+02  0.53425722830E+02  0.55565222002E+02  0.00000000000E+00 0. -1.
         -5    1    5    5    0  502 -0.59184914654E+01 -0.22648838776E+03  0.30742507748E+03  0.38192183310E+03  0.47000000000E+01 0.  1.
         13    1    6    6    0    0  0.23157782423E+02 -0.23542213249E+02  0.11957024558E+02  0.35121063875E+02  0.00000000000E+00 0. -1.
        -14    1    6    6    0    0  0.44477612058E+02 -0.70668479330E+02  0.23163117850E+03  0.24622204369E+03  0.00000000000E+00 0.  1.
</event>
<event>
12    1  0.1050869E+000  0.1979339E+03  0.7818608E-02  0.1151529E+00
         21   -1    0    0  501  502  0.00000000000E+00  0.00000000000E+00  0.57649975333E+02  0.57649975333E+02  0.00000000000E+00 0. -1.
         21   -1    0    0  502  503 -0.00000000000E+00 -0.00000000000E+00 -0.72644288091E+03  0.72644288091E+03  0.00000000000E+00 0. -1.
         -6    2    1    2    0  503 -0.77521461509E+02 -0.58069501649E+02 -0.43443445103E+03  0.47733285391E+03  0.17242887567E+03 0.  0.
        -24    2    3    3    0    0 -0.10627095805E+03 -0.68550053898E+01 -0.34973704508E+03  0.37415728145E+03  0.79606299577E+02 0.  0.
          6    2    1    2  501    0  0.77521461509E+02  0.58069501649E+02 -0.23435845454E+03  0.30676000233E+03  0.17261567078E+03 0.  0.
         24    2    5    5    0    0  0.95361442501E+02  0.81795031818E+02 -0.12686998994E+03  0.19514895572E+03  0.78758419385E+02 0.  0.
          5    1    5    5  501    0 -0.17839980993E+02 -0.23725530169E+02 -0.10748846460E+03  0.11161104661E+03  0.47000000000E+01 0. -1.
        -11    1    6    6    0    0  0.96962993398E+00  0.28896512831E+00  0.99607286934E+01  0.10011982779E+02  0.00000000000E+00 0.  1.
         12    1    6    6    0    0  0.94391812567E+02  0.81506066689E+02 -0.13683071864E+03  0.18513697294E+03  0.00000000000E+00 0. -1.
         -5    1    3    3    0  503  0.28749496545E+02 -0.51214496259E+02 -0.84697405947E+02  0.10317557246E+03  0.47000000000E+01 0.  1.
         11    1    4    4    0    0 -0.45480706154E+02  0.33051840308E+02 -0.19911075950E+03  0.20689614140E+03  0.00000000000E+00 0. -1.
        -12    1    4    4    0    0 -0.60790251900E+02 -0.39906845697E+02 -0.15062628558E+03  0.16726114004E+03  0.00000000000E+00 0.  1.
</event>
<event>
12    1  0.1050869E+000  0.2546269E+03  0.7818608E-02  0.1110484E+00
         21   -1    0    0  501  502  0.00000000000E+00  0.00000000000E+00  0.53567515013E+03  0.53567515013E+03  0.00000000000E+00 0.  1.
         21   -1    0    0  502  503 -0.00000000000E+00 -0.00000000000E+00 -0.12124799229E+03  0.12124799229E+03  0.00000000000E+00 0.  1.
         -6    2    1    2    0  503  0.16124891417E+03  0.93710670126E+02  0.18790736888E+03  0.31645539521E+03  0.17335494184E+03 0.  0.
        -24    2    3    3    0    0  0.17997457350E+03  0.46468049128E+02  0.13635320777E+03  0.24391273821E+03  0.79693788328E+02 0.  0.
          6    2    1    2  501    0 -0.16124891417E+03 -0.93710670126E+02  0.22651978896E+03  0.34046774721E+03  0.17269675760E+03 0.  0.
         24    2    5    5    0    0 -0.68901122142E+02 -0.15987384412E+01  0.15577244886E+03  0.19200900284E+03  0.88614224306E+02 0.  0.
          5    1    5    5  501    0 -0.92347792031E+02 -0.92111931685E+02  0.70747340096E+02  0.14845874438E+03  0.47000000000E+01 0. -1.
        -13    1    6    6    0    0 -0.83409195226E+02 -0.22787725894E+02  0.12366085062E+03  0.15089194901E+03  0.00000000000E+00 0.  1.
         14    1    6    6    0    0  0.14508073085E+02  0.21188987453E+02  0.32111598242E+02  0.41117053828E+02  0.00000000000E+00 0. -1.
         -5    1    3    3    0  503 -0.18725659327E+02  0.47242620998E+02  0.51554161116E+02  0.72542656998E+02  0.47000000000E+01 0.  1.
         11    1    4    4    0    0  0.89848276733E+02  0.63966585971E+02  0.78900305948E+02  0.13560861046E+03  0.00000000000E+00 0. -1.
        -12    1    4    4    0    0  0.90126296767E+02 -0.17498536843E+02  0.57452901819E+02  0.10830412775E+03  0.00000000000E+00 0.  1.
</event>
<event>
12    1  0.1050869E+000  0.2232973E+03  0.7818608E-02  0.1131481E+00
         21   -1    0    0  503  502  0.00000000000E+00  0.00000000000E+00  0.22443465771E+04  0.22443465771E+04  0.00000000000E+00 0.  1.
         21   -1    0    0  501  503 -0.00000000000E+00 -0.00000000000E+00 -0.53300366268E+02  0.53300366268E+02  0.00000000000E+00 0.  1.
          6    2    1    2  501    0 -0.24777429666E+02  0.14006434970E+03  0.19729050228E+04  0.19854815241E+04  0.17190320200E+03 0.  0.
         24    2    3    3    0    0  0.36549315114E+01  0.17503315346E+02  0.43725753045E+03  0.44468143429E+03  0.78915812685E+02 0.  0.
         -6    2    1    2    0  502  0.24777429666E+02 -0.14006434970E+03  0.21814118811E+03  0.31216541925E+03  0.17213287875E+03 0.  0.
        -24    2    5    5    0    0  0.11787996339E+02 -0.99393223166E+02  0.23364818422E+03  0.26649898913E+03  0.80076635459E+02 0.  0.
          5    1    3    3  501    0 -0.28432361177E+02  0.12256103436E+03  0.15356474923E+04  0.15408000899E+04  0.47000000000E+01 0. -1.
        -13    1    4    4    0    0 -0.36346514157E+02  0.17403202930E+02  0.24681714800E+03  0.25008527568E+03  0.00000000000E+00 0.  1.
         14    1    4    4    0    0  0.40001445668E+02  0.10011241616E+00  0.19044038245E+03  0.19459615861E+03  0.00000000000E+00 0. -1.
         -5    1    5    5    0  502  0.12989433327E+02 -0.40671126535E+02 -0.15506996112E+02  0.45666430123E+02  0.47000000000E+01 0.  1.
         11    1    6    6    0    0 -0.17327395126E+02 -0.80177912844E+02  0.10521586686E+03  0.13341332381E+03  0.00000000000E+00 0. -1.
        -12    1    6    6    0    0  0.29115391464E+02 -0.19215310321E+02  0.12843231736E+03  0.13308566532E+03  0.00000000000E+00 0.  1.
</event>
<event>
12    1  0.1050869E+000  0.2984410E+03  0.7818608E-02  0.1086057E+00
         21   -1    0    0  503  502  0.00000000000E+00  0.00000000000E+00  0.10176834261E+03  0.10176834261E+03  0.00000000000E+00 0. -1.
         21   -1    0    0  501  503 -0.00000000000E+00 -0.00000000000E+00 -0.10655959034E+04  0.10655959034E+04  0.00000000000E+00 0. -1.
          6    2    1    2  501    0  0.10756533827E+03 -0.21853544912E+03 -0.72933360585E+03  0.78803207477E+03  0.17244998614E+03 0.  0.
         24    2    3    3    0    0  0.12896738265E+02 -0.14559404782E+03 -0.30575039410E+03  0.34788730412E+03  0.78602291683E+02 0.  0.
         -6    2    1    2    0  502 -0.10756533827E+03  0.21853544912E+03 -0.23449395495E+03  0.37933217125E+03  0.17198091962E+03 0.  0.
        -24    2    5    5    0    0 -0.24468393084E+02  0.18063450734E+03 -0.11895173716E+03  0.23197655452E+03  0.80225174192E+02 0.  0.
          5    1    3    3  501    0  0.94668600004E+02 -0.72941401305E+02 -0.42358321175E+03  0.44014477065E+03  0.47000000000E+01 0. -1.
        -13    1    4    4    0    0  0.28808379347E+02 -0.12756286210E+03 -0.29256238513E+03  0.32046053688E+03  0.00000000000E+00 0.  1.
         14    1    4    4    0    0 -0.15911641082E+02 -0.18031185723E+02 -0.13188008970E+02  0.27426767237E+02  0.00000000000E+00 0. -1.
         -5    1    5    5    0  502 -0.83096945185E+02  0.37900941786E+02 -0.11554221780E+03  0.14735561673E+03  0.47000000000E+01 0.  1.
         11    1    6    6    0    0 -0.26515688883E+02  0.42258981098E+02 -0.61943992611E+00  0.49892754446E+02  0.00000000000E+00 0. -1.
        -12    1    6    6    0    0  0.20472957999E+01  0.13837552624E+03 -0.11833229723E+03  0.18208380008E+03  0.00000000000E+00 0.  1.
</event>
<event>
12    1  0.1050869E+000  0.3566840E+03  0.7818608E-02  0.1059953E+00
         21   -1    0    0  503  502  0.00000000000E+00  0.00000000000E+00  0.24899489095E+03  0.24899489095E+03  0.00000000000E+00 0. -1.
         21   -1    0    0  501  503 -0.00000000000E+00 -0.00000000000E+00 -0.56478872957E+03  0.56478872957E+03  0.00000000000E+00 0.  1.
          6    2    1    2  501    0 -0.28769286806E+01 -0.31249750741E+03 -0.31554280476E+02  0.35807698586E+03  0.17193163272E+03 0.  0.
         24    2    3    3    0    0 -0.57398027759E+02 -0.16765739133E+03  0.23292249171E+02  0.19381670069E+03  0.74958989689E+02 0.  0.
         -6    2    1    2    0  502  0.28769286806E+01  0.31249750741E+03 -0.28423955814E+03  0.45570663466E+03  0.17091940090E+03 0.  0.
        -24    2    5    5    0    0 -0.53521308762E+02  0.22227452225E+03 -0.24168963079E+03  0.34101777489E+03  0.74891597843E+02 0.  0.
          5    1    3    3  501    0  0.54521099078E+02 -0.14484011608E+03 -0.54846529647E+02  0.16426028517E+03  0.47000000000E+01 0. -1.
        -13    1    4    4    0    0 -0.66518692493E+02 -0.84785423952E+02  0.20665887431E+01  0.10778485680E+03  0.00000000000E+00 0.  1.
         14    1    4    4    0    0  0.91206647347E+01 -0.82871967381E+02  0.21225660428E+02  0.86031843891E+02  0.00000000000E+00 0. -1.
         -5    1    5    5    0  502  0.56398237442E+02  0.90222985163E+02 -0.42549927355E+02  0.11468885977E+03  0.47000000000E+01 0.  1.
         11    1    6    6    0    0 -0.21685744674E+02  0.14959353545E+03 -0.10880025662E+03  0.18624176012E+03  0.00000000000E+00 0. -1.
        -12    1    6    6    0    0 -0.31835564088E+02  0.72680986801E+02 -0.13288937416E+03  0.15477601477E+03  0.00000000000E+00 0.  1.
</event>
<event>
12    1  0.1050869E+000  0.2928786E+03  0.7818608E-02  0.1088957E+00
         21   -1    0    0  503  502  0.00000000000E+00  0.00000000000E+00  0.31068821269E+03  0.31068821269E+03  0.00000000000E+00 0.  1.
         21   -1    0    0  501  503 -0.00000000000E+00 -0.00000000000E+00 -0.32442122949E+03  0.32442122949E+03  0.00000000000E+00 0.  1.
          6    2    1    2  501    0 -0.22476056737E+03  0.75646306054E+02 -0.13036166601E+03  0.31986335208E+03  0.17052484797E+03 0.  0.
         24    2    3    3    0    0 -0.14100361475E+03 -0.19558560665E+02 -0.92528353058E+02  0.18745246382E+03  0.79450446237E+02 0.  0.
         -6    2    1    2    0  502  0.22476056737E+03 -0.75646306054E+02  0.11662864921E+03  0.31524609009E+03  0.17186674850E+03 0.  0.
        -24    2    5    5    0    0  0.23081471483E+03 -0.76149598525E+02  0.13879940033E+03  0.29178253942E+03  0.82447455031E+02 0.  0.
          5    1    3    3  501    0 -0.83756952623E+02  0.95204866720E+02 -0.37833312956E+02  0.13241088826E+03  0.47000000000E+01 0. -1.
        -11    1    4    4    0    0 -0.32698685395E+02  0.20839897974E+02 -0.52199450101E+02  0.65025287119E+02  0.00000000000E+00 0.  1.
         12    1    4    4    0    0 -0.10830492935E+03 -0.40398458639E+02 -0.40328902957E+02  0.12242717670E+03  0.00000000000E+00 0. -1.
         -5    1    5    5    0  502 -0.60541474644E+01  0.50329247039E+00 -0.22170751121E+02  0.23463550671E+02  0.47000000000E+01 0.  1.
         13    1    6    6    0    0  0.12070643004E+03 -0.58943465642E+02  0.33463448802E+02  0.13843473842E+03  0.00000000000E+00 0. -1.
        -14    1    6    6    0    0  0.11010828479E+03 -0.17206132883E+02  0.10533595153E+03  0.15334780101E+03  0.00000000000E+00 0.  1.
</event>
<event>
12    1  0.1050869E+000  0.1991616E+03  0.7818608E-02  0.1151927E+00
         21   -1    0    0  501  502  0.00000000000E+00  0.00000000000E+00  0.52998244544E+03  0.52998244544E+03  0.00000000000E+00 0. -1.
         21   -1    0    0  502  503 -0.00000000000E+00 -0.00000000000E+00 -0.98910336902E+02  0.98910336902E+02  0.00000000000E+00 0. -1.
         -6    2    1    2    0  503 -0.43413708439E+02  0.87323724322E+02  0.49684117936E+02  0.19863454064E+03  0.16576183593E+03 0.  0.
        -24    2    3    3    0    0 -0.54833231938E+02 -0.44575693063E+01  0.35302137542E+02  0.10491611803E+03  0.82064594427E+02 0.  0.
          6    2    1    2  501    0  0.43413708439E+02 -0.87323724322E+02  0.38138799060E+03  0.43025824170E+03  0.17365244676E+03 0.  0.
         24    2    5    5    0    0  0.96784542114E+02 -0.63074666587E+02  0.27454854084E+03  0.30830242710E+03  0.79547621731E+02 0.  0.
          5    1    5    5  501    0 -0.53370833675E+02 -0.24249057736E+02  0.10683944977E+03  0.12195581460E+03  0.47000000000E+01 0. -1.
        -13    1    6    6    0    0  0.43630603019E+01 -0.45431554188E+02  0.10261417951E+03  0.11230642122E+03  0.00000000000E+00 0.  1.
         14    1    6    6    0    0  0.92421481812E+02 -0.17643112398E+02  0.17193436132E+03  0.19599600588E+03  0.00000000000E+00 0. -1.
         -5    1    3    3    0  503  0.11419523499E+02  0.91781293629E+02  0.14381980395E+02  0.93718422613E+02  0.47000000000E+01 0.  1.
         13    1    4    4    0    0  0.22453051020E+01  0.28986180385E+02 -0.16884609358E+01  0.29122001109E+02  0.00000000000E+00 0. -1.
        -14    1    4    4    0    0 -0.57078537040E+02 -0.33443749691E+02  0.36990598478E+02  0.75794116920E+02  0.00000000000E+00 0.  1.
</event>
<event>
12    1  0.1050869E+000  0.3937743E+03  0.7818608E-02  0.1045972E+00
         21   -1    0    0  501  502  0.00000000000E+00  0.00000000000E+00  0.34502143243E+03  0.34502143243E+03  0.00000000000E+00 0.  1.
         21   -1    0    0  502  503 -0.00000000000E+00 -0.00000000000E+00 -0.45901599231E+03  0.45901599231E+03  0.00000000000E+00 0.  1.
         -6    2    1    2    0  503  0.34876704664E+03 -0.60312189261E+02  0.17568840959E+01  0.39360274481E+03  0.17217439149E+03 0.  0.
        -24    2    3    3    0    0  0.27194922654E+03 -0.10336877415E+03 -0.15991641415E+02  0.30364749402E+03  0.85466851721E+02 0.  0.
          6    2    1    2  501    0 -0.34876704664E+03  0.60312189261E+02 -0.11575144397E+03  0.41043467993E+03  0.17257524941E+03 0.  0.
         24    2    5    5    0    0 -0.16288816014E+03 -0.57433008307E+01 -0.24749252382E+01  0.18290897167E+03  0.82970045478E+02 0.  0.
          5    1    5    5  501    0 -0.18587888651E+03  0.66055490092E+02 -0.11327651873E+03  0.22752570825E+03  0.47000000000E+01 0. -1.
        -13    1    6    6    0    0 -0.12472327708E+02 -0.26795212024E+02  0.81412486472E+01  0.30656520928E+02  0.00000000000E+00 0.  1.
         14    1    6    6    0    0 -0.15041583243E+03  0.21051911193E+02 -0.10616173885E+02  0.15225245075E+03  0.00000000000E+00 0. -1.
         -5    1    3    3    0  503  0.76817820100E+02  0.43056584888E+02  0.17748525511E+02  0.89955250792E+02  0.47000000000E+01 0.  1.
         13    1    4    4    0    0  0.11699715185E+03 -0.16607467225E+02  0.26369939312E+02  0.12107648495E+03  0.00000000000E+00 0. -1.
        -14    1    4    4    0    0  0.15495207469E+03 -0.86761306924E+02 -0.42361580727E+02  0.18257100907E+03  0.00000000000E+00 0.  1.
</event>
<event>
12    1  0.1050869E+000  0.2158759E+03  0.7818608E-02  0.1137265E+00
         21   -1    0    0  501  502  0.00000000000E+00  0.00000000000E+00  0.12836264537E+04  0.12836264537E+04  0.00000000000E+00 0. -1.
         21   -1    0    0  502  503 -0.00000000000E+00 -0.00000000000E+00 -0.37871129501E+02  0.37871129501E+02  0.00000000000E+00 0. -1.
         -6    2    1    2    0  503  0.27548063920E+02  0.12583466407E+03  0.48069007018E+03  0.52693960661E+03  0.17323148367E+03 0.  0.
        -24    2    3    3    0    0  0.77699118865E+02  0.53358128314E+02  0.21707797697E+03  0.24894427889E+03  0.77240941068E+02 0.  0.
          6    2    1    2  501    0 -0.27548063920E+02 -0.12583466407E+03  0.76506525399E+03  0.79455797656E+03  0.17147675280E+03 0.  0.
         24    2    5    5    0    0 -0.38179789156E+02 -0.12898643526E+03  0.76657540093E+03  0.78241969881E+03  0.80296593889E+02 0.  0.
          5    1    5    5  501    0  0.10631725236E+02  0.31517711941E+01 -0.15101469376E+01  0.12138277758E+02  0.47000000000E+01 0. -1.
        -11    1    6    6    0    0 -0.23414665620E+02 -0.83542685906E+02  0.27108765508E+03  0.28463334955E+03  0.00000000000E+00 0.  1.
         12    1    6    6    0    0 -0.14765123536E+02 -0.45443749354E+02  0.49548774584E+03  0.49778634926E+03  0.00000000000E+00 0. -1.
         -5    1    3    3    0  503 -0.50151054945E+02  0.72476535752E+02  0.26361209321E+03  0.27799532772E+03  0.47000000000E+01 0.  1.
         11    1    4    4    0    0  0.47033168156E+02  0.23018751295E+01  0.15873098469E+03  0.16556854483E+03  0.00000000000E+00 0. -1.
        -12    1    4    4    0    0  0.30665950709E+02  0.51056253185E+02  0.58346992280E+02  0.83375734061E+02  0.00000000000E+00 0.  1.
</event>
<event>
12    1  0.1050869E+000  0.1900105E+03  0.7818608E-02  0.1159307E+00
         21   -1    0    0  501  502  0.00000000000E+00  0.00000000000E+00  0.84770764962E+03  0.84770764962E+03  0.00000000000E+00 0.  1.
         21   -1    0    0  502  503 -0.00000000000E+00 -0.00000000000E+00 -0.58853014153E+02  0.58853014153E+02  0.00000000000E+00 0. -1.
         -6    2    1    2    0  503  0.76115879322E+02  0.21644695966E+01  0.63595956744E+03  0.66267360357E+03  0.16998065020E+03 0.  0.
        -24    2    3    3    0    0  0.89196321501E+02  0.52159217550E+02  0.51174316984E+03  0.52805422821E+03  0.79269340289E+02 0.  0.
          6    2    1    2  501    0 -0.76115879322E+02 -0.21644695966E+01  0.15289506803E+03  0.24388706020E+03  0.17408527879E+03 0.  0.
         24    2    5    5    0    0  0.10550311110E+02 -0.46641981429E+02  0.78685557507E+02  0.12133740057E+03  0.79022555778E+02 0.  0.
          5    1    5    5  501    0 -0.86666190432E+02  0.44477511833E+02  0.74209510527E+02  0.12254965963E+03  0.47000000000E+01 0. -1.
        -13    1    6    6    0    0 -0.18646284943E+02 -0.13234607242E+02 -0.77800941081E+01  0.24153025388E+02  0.00000000000E+00 0.  1.
         14    1    6    6    0    0  0.29196596053E+02 -0.33407374187E+02  0.86465651615E+02  0.97184375186E+02  0.00000000000E+00 0. -1.
         -5    1    3    3    0  503 -0.13080442179E+02 -0.49994747954E+02  0.12421639760E+03  0.13461937537E+03  0.47000000000E+01 0.  1.
         13    1    4    4    0    0  0.10421839497E+03  0.44109533923E+02  0.44159466136E+03  0.45586507848E+03  0.00000000000E+00 0. -1.
        -14    1    4    4    0    0 -0.15022073464E+02  0.80496836274E+01  0.70148508471E+02  0.72189149728E+02  0.00000000000E+00 0.  1.
</event>
<event>
12    1  0.1050869E+000  0.3990428E+03  0.7818608E-02  0.1044163E+00
         21   -1    0    0  503  502  0.00000000000E+00  0.00000000000E+00  0.30966366704E+04  0.30966366704E+04  0.00000000000E+00 0.  1.
         21   -1    0    0  501  503 -0.00000000000E+00 -0.00000000000E+00 -0.80813760291E+02  0.80813760291E+02  0.00000000000E+00 0.  1.
          6    2    1    2  501    0  0.29462502270E+03  0.20609730599E+03  0.54782656403E+03  0.67740219913E+03  0.17169680135E+03 0.  0.
         24    2    3    3    0    0  0.89471734040E+02  0.79878622233E+02  0.29501246885E+03  0.32818008543E+03  0.79271850070E+02 0.  0.
         -6    2    1    2    0  502 -0.29462502270E+03 -0.20609730599E+03  0.24679963461E+04  0.25000482315E+04  0.17307568381E+03 0.  0.
        -24    2    5    5    0    0 -0.20677345334E+03 -0.21515823867E+03  0.20240884600E+04  0.20474155989E+04  0.76994885684E+02 0.  0.
          5    1    3    3  501    0  0.20515328866E+03  0.12621868375E+03  0.25281409518E+03  0.34922211371E+03  0.47000000000E+01 0. -1.
        -11    1    4    4    0    0  0.10205323793E+02 -0.14819979632E+02  0.60760107922E+02  0.63368534342E+02  0.00000000000E+00 0.  1.
         12    1    4    4    0    0  0.79266410247E+02  0.94698601865E+02  0.23425236093E+03  0.26481155109E+03  0.00000000000E+00 0. -1.
         -5    1    5    5    0  502 -0.87851569365E+02  0.90609326824E+01  0.44390788611E+03  0.45263263259E+03  0.47000000000E+01 0.  1.
         11    1    6    6    0    0 -0.12080954789E+03 -0.11050256878E+03  0.85736116043E+03  0.87285389612E+03  0.00000000000E+00 0. -1.
        -12    1    6    6    0    0 -0.85963905448E+02 -0.10465566989E+03  0.11667272995E+04  0.11745617028E+04  0.00000000000E+00 0.  1.
</event>
<event>
12    1  0.1050869E+000  0.2443083E+03  0.7818608E-02  0.1117207E+00
         21   -1    0    0  501  502  0.00000000000E+00  0.00000000000E+00  0.75833441682E+03  0.75833441682E+03  0.00000000000E+00 0. -1.
         21   -1    0    0  502  503 -0.00000000000E+00 -0.00000000000E+00 -0.10039803598E+03  0.10039803598E+03  0.00000000000E+00 0. -1.
         -6    2    1    2    0  503  0.11102944686E+03 -0.13226305845E+03  0.52999608744E+03  0.58295130775E+03  0.17063211834E+03 0.  0.
        -24    2    3    3    0    0 -0.62329484207E+01 -0.59902986836E+02  0.15172542832E+03  0.18033830391E+03  0.76642552025E+02 0.  0.
          6    2    1    2  501    0 -0.11102944686E+03  0.13226305845E+03  0.12794029339E+03  0.27578114505E+03  0.17281627987E+03 0.  0.
         24    2    5    5    0    0 -0.65491066263E+02 -0.30862168723E-01  0.23837614168E+02  0.10132518108E+03  0.73549165593E+02 0.  0.
          5    1    5    5  501    0 -0.45538380597E+02  0.13229392062E+03  0.10410267922E+03  0.17445596396E+03  0.47000000000E+01 0. -1.
        -11    1    6    6    0    0 -0.31245448537E+02  0.19677779142E+02 -0.20257582032E+02  0.42117249151E+02  0.00000000000E+00 0.  1.
         12    1    6    6    0    0 -0.34245617727E+02 -0.19708641311E+02  0.44095196200E+02  0.59207931932E+02  0.00000000000E+00 0. -1.
         -5    1    3    3    0  503  0.11726239528E+03 -0.72360071618E+02  0.37827065912E+03  0.40261300384E+03  0.47000000000E+01 0.  1.
         13    1    4    4    0    0  0.13661763866E+02  0.60885351570E+01  0.14709455223E+01  0.15029229289E+02  0.00000000000E+00 0. -1.
        -14    1    4    4    0    0 -0.19894712286E+02 -0.65991521993E+02  0.15025448280E+03  0.16530907462E+03  0.00000000000E+00 0.  1.
</event>
<event>
12    1  0.1050869E+000  0.1744358E+03  0.7818608E-02  0.1174795E+00
         21   -1    0    0  501  502  0.00000000000E+00  0.00000000000E+00  0.28645187375E+03  0.28645187375E+03  0.00000000000E+00 0.  1.
         21   -1    0    0  502  503 -0.00000000000E+00 -0.00000000000E+00 -0.10643328060E+03  0.10643328060E+03  0.00000000000E+00 0.  1.
         -6    2    1    2    0  503 -0.21288057561E+02 -0.16644495027E+02  0.12529853541E+03  0.21006791075E+03  0.16642891437E+03 0.  0.
        -24    2    3    3    0    0 -0.74077321847E+02 -0.68668058742E+01  0.10706537716E+03  0.15317460983E+03  0.80404374729E+02 0.  0.
          6    2    1    2  501    0  0.21288057561E+02  0.16644495027E+02  0.54720057734E+02  0.18281724360E+03  0.17233002997E+03 0.  0.
         24    2    5    5    0    0 -0.36689834987E+02 -0.13349624436E+02  0.73213788144E+02  0.11480848467E+03  0.79349687550E+02 0.  0.
          5    1    5    5  501    0  0.57977892548E+02  0.29994119463E+02 -0.18493730410E+02  0.68008758929E+02  0.47000000000E+01 0. -1.
        -11    1    6    6    0    0 -0.22398228163E+02 -0.70242195927E+01 -0.13242101974E+02  0.26951318157E+02  0.00000000000E+00 0.  1.
         12    1    6    6    0    0 -0.14291606824E+02 -0.63254048436E+01  0.86455890117E+02  0.87857166515E+02  0.00000000000E+00 0. -1.
         -5    1    3    3    0  503  0.52789264286E+02 -0.97776891525E+01  0.18233158249E+02  0.56893300913E+02  0.47000000000E+01 0.  1.
         11    1    4    4    0    0  0.15144356933E+02 -0.10116001975E+02  0.30671292890E+02  0.35670902013E+02  0.00000000000E+00 0. -1.
        -12    1    4    4    0    0 -0.89221678780E+02  0.32491961007E+01  0.76394084273E+02  0.11750370782E+03  0.00000000000E+00 0.  1.
</event>
<event>
12    1  0.1050869E+000  0.4177613E+03  0.7818608E-02  0.1037982E+00
         21   -1    0    0  503  502  0.00000000000E+00  0.00000000000E+00  0.56811290766E+03  0.56811290766E+03  0.00000000000E+00 0.  1.
         21   -1    0    0  501  503 -0.00000000000E+00 -0.00000000000E+00 -0.35887902177E+03  0.35887902177E+03  0.00000000000E+00 0.  1.
          6    2    1    2  501    0 -0.36895758861E+02 -0.37915672523E+03 -0.73819094243E+02  0.42423319318E+03  0.17147426693E+03 0.  0.
         24    2    3    3    0    0  0.38411590892E+02 -0.13558686456E+03 -0.27077619888E+02  0.16499521491E+03  0.81430800623E+02 0.  0.
         -6    2    1    2    0  502  0.36895758861E+02  0.37915672523E+03  0.28305298013E+03  0.50275873625E+03  0.16591033123E+03 0.  0.
        -24    2    5    5    0    0  0.72526082970E+02  0.14534699801E+03  0.10917511524E+03  0.20917380741E+03  0.73815265228E+02 0.  0.
          5    1    3    3  501    0 -0.75307349754E+02 -0.24356986067E+03 -0.46741474355E+02  0.25923797827E+03  0.47000000000E+01 0. -1.
        -11    1    4    4    0    0  0.54298246093E+01 -0.86963411455E+02  0.20361563776E+02  0.89480228020E+02  0.00000000000E+00 0.  1.
         12    1    4    4    0    0  0.32981766283E+02 -0.48623453105E+02 -0.47439183664E+02  0.75514986895E+02  0.00000000000E+00 0. -1.
         -5    1    5    5    0  502 -0.35630324109E+02  0.23380972722E+03  0.17387786490E+03  0.29358492884E+03  0.47000000000E+01 0.  1.
         11    1    6    6    0    0  0.72348742910E+01  0.55427084551E+02  0.73750689553E+02  0.92540095728E+02  0.00000000000E+00 0. -1.
        -12    1    6    6    0    0  0.65291208679E+02  0.89919913454E+02  0.35424425682E+02  0.11663371168E+03  0.00000000000E+00 0.  1.
</event>
<event>
12    1  0.1050869E+000  0.2337197E+03  0.7818608E-02  0.1125979E+00
         21   -1    0    0  501  502  0.00000000000E+00  0.00000000000E+00  0.64002117193E+03  0.64002117193E+03  0.00000000000E+00 0.  1.
         21   -1    0    0  502  503 -0.00000000000E+00 -0.00000000000E+00 -0.17350762590E+03  0.17350762590E+03  0.00000000000E+00 0.  1.
         -6    2    1    2    0  503 -0.73262047383E+02  0.12179345555E+03 -0.60440748462E+02  0.24140834176E+03  0.18553686964E+03 0.  0.
        -24    2    3    3    0    0 -0.84449635558E+02  0.21378624247E+02  0.60151461521E+01  0.12038447468E+03  0.82870098588E+02 0.  0.
          6    2    1    2  501    0  0.73262047383E+02 -0.12179345555E+03  0.52695429448E+03  0.57212045607E+03  0.17158092660E+03 0.  0.
         24    2    5    5    0    0 -0.15690289086E+01 -0.51534688182E+02  0.38783329885E+03  0.39916749773E+03  0.79131141851E+02 0.  0.
          5    1    5    5  501    0  0.74831076291E+02 -0.70258767367E+02  0.13912099563E+03  0.17295295833E+03  0.47000000000E+01 0. -1.
        -13    1    6    6    0    0  0.25598595775E+02 -0.54938453393E+02  0.18959191452E+03  0.19904425593E+03  0.00000000000E+00 0.  1.
         14    1    6    6    0    0 -0.27167624684E+02  0.34037652110E+01  0.19824138433E+03  0.20012324180E+03  0.00000000000E+00 0. -1.
         -5    1    3    3    0  503  0.11187588175E+02  0.10041483130E+03 -0.66455894614E+02  0.12102386708E+03  0.47000000000E+01 0.  1.
         13    1    4    4    0    0 -0.70609698547E+02  0.51029708048E+02  0.86996303355E+01  0.87552522524E+02  0.00000000000E+00 0. -1.
        -14    1    4    4    0    0 -0.13839937011E+02 -0.29651083800E+02 -0.26844841833E+01  0.32831952155E+02  0.00000000000E+00 0.  1.
</event>
<event>
12    1  0.1050869E+000  0.2128076E+03  0.7818608E-02  0.1139453E+00
         21   -1    0    0  503  502  0.00000000000E+00  0.00000000000E+00  0.21115084023E+04  0.21115084023E+04  0.00000000000E+00 0. -1.
         21   -1    0    0  501  503 -0.00000000000E+00 -0.00000000000E+00 -0.21567958680E+02  0.21567958680E+02  0.00000000000E+00 0. -1.
          6    2    1    2  501    0 -0.94843149895E+02  0.83453515389E+02  0.11377629621E+04  0.11574078553E+04  0.17067124352E+03 0.  0.
         24    2    3    3    0    0 -0.80418661979E+02 -0.12062267637E+02  0.66549926944E+03  0.67534311273E+03  0.81156532690E+02 0.  0.
         -6    2    1    2    0  502  0.94843149895E+02 -0.83453515389E+02  0.95217748151E+03  0.97566850563E+03  0.17125234091E+03 0.  0.
        -24    2    5    5    0    0  0.96229000904E+01 -0.83982375581E+02  0.35972502975E+03  0.37709957204E+03  0.75208713484E+02 0.  0.
          5    1    3    3  501    0 -0.14424487916E+02  0.95515783026E+02  0.47226369264E+03  0.48206474258E+03  0.47000000000E+01 0. -1.
        -11    1    4    4    0    0 -0.24972939423E+02 -0.30045061907E+02  0.46232609692E+03  0.46397389295E+03  0.00000000000E+00 0.  1.
         12    1    4    4    0    0 -0.55445722557E+02  0.17982794270E+02  0.20317317252E+03  0.21136921979E+03  0.00000000000E+00 0. -1.
         -5    1    5    5    0  502  0.85220249805E+02  0.52886019151E+00  0.59245245176E+03  0.59856893359E+03  0.47000000000E+01 0.  1.
         11    1    6    6    0    0 -0.95867758271E+01 -0.26416513779E+01  0.16368632060E+03  0.16398809757E+03  0.00000000000E+00 0. -1.
        -12    1    6    6    0    0  0.19209675918E+02 -0.81340724203E+02  0.19603870915E+03  0.21311147446E+03  0.00000000000E+00 0.  1.
</event>
<event>
12    1  0.1050869E+000  0.2100024E+03  0.7818608E-02  0.1141621E+00
         21   -1    0    0  501  502  0.00000000000E+00  0.00000000000E+00  0.18778639880E+02  0.18778639880E+02  0.00000000000E+00 0.  1.
         21   -1    0    0  502  503 -0.00000000000E+00 -0.00000000000E+00 -0.25868398839E+04  0.25868398839E+04  0.00000000000E+00 0.  1.
         -6    2    1    2    0  503  0.10173344652E+03  0.63551525179E+02 -0.16813628167E+04  0.16943912760E+04  0.17202437152E+03 0.  0.
        -24    2    3    3    0    0  0.87387675418E+02  0.80934855946E+02 -0.81618683590E+03  0.82890901215E+03  0.82110551078E+02 0.  0.
          6    2    1    2  501    0 -0.10173344652E+03 -0.63551525179E+02 -0.88669842737E+03  0.91122724780E+03  0.17237315786E+03 0.  0.
         24    2    5    5    0    0 -0.39000574357E+02 -0.10296600235E+03 -0.51658745715E+03  0.53374461968E+03  0.76796326161E+02 0.  0.
          5    1    5    5  501    0 -0.62732872160E+02  0.39414477168E+02 -0.37011097022E+03  0.37748262812E+03  0.47000000000E+01 0. -1.
        -11    1    6    6    0    0 -0.18508227912E+01 -0.37435332197E+02 -0.58308887415E+02  0.69316347230E+02  0.00000000000E+00 0.  1.
         12    1    6    6    0    0 -0.37149751565E+02 -0.65530670151E+02 -0.45827856973E+03  0.46442827245E+03  0.00000000000E+00 0. -1.
         -5    1    3    3    0  503  0.14345771099E+02 -0.17383330767E+02 -0.86517598075E+03  0.86548226383E+03  0.47000000000E+01 0.  1.
         13    1    4    4    0    0  0.96474872027E+02  0.89268516503E+02 -0.76819500917E+03  0.77935860879E+03  0.00000000000E+00 0. -1.
        -14    1    4    4    0    0 -0.90871966094E+01 -0.83336605569E+01 -0.47991826733E+02  0.49550403365E+02  0.00000000000E+00 0.  1.
</event>
<event>
12    1  0.1050869E+000  0.2034939E+03  0.7818608E-02  0.1146980E+00
         21   -1    0    0  503  502  0.00000000000E+00  0.00000000000E+00  0.11349719288E+03  0.11349719288E+03  0.00000000000E+00 0.  1.
         21   -1    0    0  501  503 -0.00000000000E+00 -0.00000000000E+00 -0.42723979945E+03  0.42723979945E+03  0.00000000000E+00 0.  1.
          6    2    1    2  501    0 -0.87352930594E+02  0.66404667357E+02 -0.52192778136E+02  0.20934890856E+03  0.17047804872E+03 0.  0.
         24    2    3    3    0    0 -0.13488536905E+02  0.58008887558E+02  0.23400412337E+02  0.10322229446E+03  0.80995624034E+02 0.  0.
         -6    2    1    2    0  502  0.87352930594E+02 -0.66404667357E+02 -0.26154982844E+03  0.33138808377E+03  0.17137571292E+03 0.  0.
        -24    2    5    5    0    0  0.80365068970E+01 -0.14918473932E+02 -0.42923840319E+02  0.93141707382E+02  0.80905965656E+02 0.  0.
          5    1    3    3  501    0 -0.73864393689E+02  0.83957797989E+01 -0.75593190473E+02  0.10612661410E+03  0.47000000000E+01 0. -1.
        -13    1    4    4    0    0 -0.26564552232E+02 -0.11168200944E+02  0.14502081090E+02  0.32260106998E+02  0.00000000000E+00 0.  1.
         14    1    4    4    0    0  0.13076015326E+02  0.69177088502E+02  0.88983312470E+01  0.70962187462E+02  0.00000000000E+00 0. -1.
         -5    1    5    5    0  502  0.79316423697E+02 -0.51486193425E+02 -0.21862598812E+03  0.23824637639E+03  0.47000000000E+01 0.  1.
         13    1    6    6    0    0  0.42186395295E+02 -0.79800210549E+01 -0.77497356710E+01  0.43628328950E+02  0.00000000000E+00 0. -1.
        -14    1    6    6    0    0 -0.34149888398E+02 -0.69384528768E+01 -0.35174104648E+02  0.49513378431E+02  0.00000000000E+00 0.  1.
</event>
<event>
12    1  0.1050869E+000  0.2002224E+03  0.7818608E-02  0.1149753E+00
         21   -1    0    0  503  502  0.00000000000E+00  0.00000000000E+00  0.21389802890E+02  0.21389802890E+02  0.00000000000E+00 0. -1.
         21   -1    0    0  501  503 -0.00000000000E+00 -0.00000000000E+00 -0.20101053493E+04  0.20101053493E+04  0.00000000000E+00 0. -1.
          6    2    1    2  501    0 -0.21047541474E+02  0.98124360833E+02 -0.72392449708E+03  0.75110297978E+03  0.17325593664E+03 0.  0.
         24    2    3    3    0    0  0.27626478269E+02 -0.14960498445E+02 -0.18736099847E+03  0.20057611974E+03  0.64339701942E+02 0.  0.
         -6    2    1    2    0  502  0.21047541474E+02 -0.98124360833E+02 -0.12647910493E+04  0.12803921724E+04  0.17215204760E+03 0.  0.
        -24    2    5    5    0    0 -0.52456995062E+02 -0.71916874442E+02 -0.70450712210E+03  0.71468030374E+03  0.80708601164E+02 0.  0.
          5    1    3    3  501    0 -0.48674019743E+02  0.11308485928E+03 -0.53656349860E+03  0.55052686004E+03  0.47000000000E+01 0. -1.
        -13    1    4    4    0    0 -0.45285175657E+01  0.17708507379E+02 -0.10258739942E+03  0.10420303846E+03  0.00000000000E+00 0.  1.
         14    1    4    4    0    0  0.32154995835E+02 -0.32669005825E+02 -0.84773599055E+02  0.96373081281E+02  0.00000000000E+00 0. -1.
         -5    1    5    5    0  502  0.73504536536E+02 -0.26207486390E+02 -0.56028392719E+03  0.56571186862E+03  0.47000000000E+01 0.  1.
         13    1    6    6    0    0 -0.16333407305E+02 -0.17799370920E+02 -0.48823899432E+03  0.48883628483E+03  0.00000000000E+00 0. -1.
        -14    1    6    6    0    0 -0.36123587758E+02 -0.54117503522E+02 -0.21626812778E+03  0.22584401890E+03  0.00000000000E+00 0.  1.
</event>
<event>
12    1  0.1050869E+000  0.3060855E+03  0.7818608E-02  0.1082468E+00
         21   -1    0    0  503  502  0.00000000000E+00  0.00000000000E+00  0.52934952683E+03  0.52934952683E+03  0.00000000000E+00 0. -1.
         21   -1    0    0  501  503 -0.00000000000E+00 -0.00000000000E+00 -0.23189426131E+03  0.23189426131E+03  0.00000000000E+00 0. -1.
          6    2    1    2  501    0 -0.10156263233E+02  0.25216093151E+03  0.33541163270E+03  0.45281388469E+03  0.16985630914E+03 0.  0.
         24    2    3    3    0    0 -0.27504052847E+02  0.15358690054E+03  0.29794655586E+03  0.34583955427E+03  0.80544634877E+02 0.  0.
         -6    2    1    2    0  502  0.10156263233E+02 -0.25216093151E+03 -0.37956367178E+02  0.30842990346E+03  0.17320518028E+03 0.  0.
        -24    2    5    5    0    0 -0.10741739269E+02 -0.54225258675E+02  0.23934905405E+02  0.99940391225E+02  0.79746087431E+02 0.  0.
          5    1    3    3  501    0  0.17347789614E+02  0.98574030966E+02  0.37465076833E+02  0.10697433041E+03  0.47000000000E+01 0. -1.
        -13    1    4    4    0    0 -0.88686628690E+01  0.39793308370E+02  0.21028883919E+02  0.45873462165E+02  0.00000000000E+00 0.  1.
         14    1    4    4    0    0 -0.18635389978E+02  0.11379359217E+03  0.27691767195E+03  0.29996609211E+03  0.00000000000E+00 0. -1.
         -5    1    5    5    0  502  0.20898002503E+02 -0.19793567283E+03 -0.61891272583E+02  0.20848951223E+03  0.47000000000E+01 0.  1.
         11    1    6    6    0    0  0.22040917501E+02 -0.41466218337E+02  0.39603791257E+02  0.61430526527E+02  0.00000000000E+00 0. -1.
        -12    1    6    6    0    0 -0.32782656770E+02 -0.12759040339E+02 -0.15668885852E+02  0.38509864699E+02  0.00000000000E+00 0.  1.
</event>
<event>
12    1  0.1050869E+000  0.6238829E+03  0.7818608E-02  0.9857586E-01
         21   -1    0    0  503  502  0.00000000000E+00  0.00000000000E+00  0.81677902565E+03  0.81677902565E+03  0.00000000000E+00 0.  1.
         21   -1    0    0  501  503 -0.00000000000E+00 -0.00000000000E+00 -0.48699666543E+03  0.48699666543E+03  0.00000000000E+00 0.  1.
          6    2    1    2  501    0 -0.28010113825E+03  0.53018110532E+03  0.26419038861E+03  0.67751492320E+03  0.17228249369E+03 0.  0.
         24    2    3    3    0    0 -0.22854538241E+03  0.42332437085E+03  0.27244414590E+03  0.55849151302E+03  0.79059741321E+02 0.  0.
         -6    2    1    2    0  502  0.28010113825E+03 -0.53018110532E+03  0.65591971610E+02  0.62626076788E+03  0.16837930564E+03 0.  0.
        -24    2    5    5    0    0  0.70064058245E+02 -0.20220977781E+03  0.62365108948E+02  0.23675689206E+03  0.79791306679E+02 0.  0.
          5    1    3    3  501    0 -0.51555755833E+02  0.10685673447E+03 -0.82537572916E+01  0.11902341018E+03  0.47000000000E+01 0. -1.
        -11    1    4    4    0    0 -0.14200801098E+03  0.18230262442E+03  0.13995172449E+03  0.27016107647E+03  0.00000000000E+00 0.  1.
         12    1    4    4    0    0 -0.86537371436E+02  0.24102174643E+03  0.13249242141E+03  0.28833043654E+03  0.00000000000E+00 0. -1.
         -5    1    5    5    0  502  0.21003708000E+03 -0.32797132750E+03  0.32268626620E+01  0.38950387583E+03  0.47000000000E+01 0.  1.
         11    1    6    6    0    0  0.43661416447E+02 -0.28694083540E+02  0.21832680463E+02  0.56624514590E+02  0.00000000000E+00 0. -1.
        -12    1    6    6    0    0  0.26402641798E+02 -0.17351569427E+03  0.40532428485E+02  0.18013237747E+03  0.00000000000E+00 0.  1.
</event>
<event>
12    1  0.1050869E+000  0.3694566E+03  0.7818608E-02  0.1054918E+00
         21   -1    0    0  501  502  0.00000000000E+00  0.00000000000E+00  0.41526918642E+03  0.41526918642E+03  0.00000000000E+00 0. -1.
         21   -1    0    0  502  503 -0.00000000000E+00 -0.00000000000E+00 -0.54966214570E+03  0.54966214570E+03  0.00000000000E+00 0.  1.
         -6    2    1    2    0  503 -0.19334565382E+03 -0.26334845247E+03  0.23882501922E+03  0.43977436148E+03  0.17213119977E+03 0.  0.
        -24    2    3    3    0    0 -0.52448112585E+02 -0.16714426206E+03  0.16623020045E+03  0.25430344437E+03  0.79685340086E+02 0.  0.
          6    2    1    2  501    0  0.19334565382E+03  0.26334845247E+03 -0.37321797849E+03  0.52515697064E+03  0.17252024539E+03 0.  0.
         24    2    5    5    0    0  0.14542308803E+03  0.14847199276E+03 -0.32070457867E+03  0.38997960393E+03  0.77722953751E+02 0.  0.
          5    1    5    5  501    0  0.47922565790E+02  0.11487645971E+03 -0.52513399826E+02  0.13517736671E+03  0.47000000000E+01 0. -1.
        -13    1    6    6    0    0  0.84061519907E+01  0.45411144684E+02 -0.10291275548E+03  0.11280013606E+03  0.00000000000E+00 0.  1.
         14    1    6    6    0    0  0.13701693604E+03  0.10306084807E+03 -0.21779182318E+03  0.27717946788E+03  0.00000000000E+00 0. -1.
         -5    1    3    3    0  503 -0.14089754124E+03 -0.96204190414E+02  0.72594818770E+02  0.18547091711E+03  0.47000000000E+01 0.  1.
         11    1    4    4    0    0 -0.53860471123E+02 -0.94964185352E+02  0.13990094461E+03  0.17745822368E+03  0.00000000000E+00 0. -1.
        -12    1    4    4    0    0  0.14123585380E+01 -0.72180076707E+02  0.26329255843E+02  0.76845220693E+02  0.00000000000E+00 0.  1.
</event>
<event>
12    1  0.1050869E+000  0.2011098E+03  0.7818608E-02  0.1150683E+00
         21   -1    0    0  501  502  0.00000000000E+00  0.00000000000E+00  0.50612519143E+03  0.50612519143E+03  0.00000000000E+00 0.  1.
         21   -1    0    0  502  503 -0.00000000000E+00 -0.00000000000E+00 -0.14997287413E+03  0.14997287413E+03  0.00000000000E+00 0.  1.
         -6    2    1    2    0  503  0.10112933915E+02  0.10236510890E+03  0.40568437018E+03  0.44897833520E+03  0.16254491783E+03 0.  0.
        -24    2    3    3    0    0  0.23139463649E+02  0.12085903771E+03  0.39857055627E+03  0.42480371570E+03  0.80357742443E+02 0.  0.
          6    2    1    2  501    0 -0.10112933915E+02 -0.10236510890E+03 -0.49532052881E+02  0.20711973037E+03  0.17281282213E+03 0.  0.
         24    2    5    5    0    0 -0.23950561538E+02 -0.75697526026E+02 -0.99114881675E+02  0.14895456187E+03  0.77845724925E+02 0.  0.
          5    1    5    5  501    0  0.13837627623E+02 -0.26667582877E+02  0.49582828793E+02  0.58165168494E+02  0.47000000000E+01 0. -1.
        -11    1    6    6    0    0 -0.15595253446E+02 -0.28348560579E+02 -0.95392417687E+02  0.10073016514E+03  0.00000000000E+00 0.  1.
         12    1    6    6    0    0 -0.83553080925E+01 -0.47348965447E+02 -0.37224639881E+01  0.48224396734E+02  0.00000000000E+00 0. -1.
         -5    1    3    3    0  503 -0.13026529734E+02 -0.18493928803E+02  0.71138139097E+01  0.24174619497E+02  0.47000000000E+01 0.  1.
         11    1    4    4    0    0  0.54666232833E+01  0.68132027609E+02  0.10018388448E+03  0.12127929694E+03  0.00000000000E+00 0. -1.
        -12    1    4    4    0    0  0.17672840366E+02  0.52727010098E+02  0.29838667180E+03  0.30352441876E+03  0.00000000000E+00 0.  1.
</event>
<event>
12    1  0.1050869E+000  0.2397502E+03  0.7818608E-02  0.1119995E+00
         21   -1    0    0  503  502  0.00000000000E+00  0.00000000000E+00  0.16779145578E+03  0.16779145578E+03  0.00000000000E+00 0. -1.
         21   -1    0    0  501  503 -0.00000000000E+00 -0.00000000000E+00 -0.34238939475E+03  0.34238939475E+03  0.00000000000E+00 0. -1.
          6    2    1    2  501    0 -0.30128113910E+02 -0.16261822702E+03 -0.82528368531E+02  0.25355687787E+03  0.17357352244E+03 0.  0.
         24    2    3    3    0    0 -0.15285917772E+02 -0.13910446198E+03 -0.12383655889E+03  0.20354043533E+03  0.80681502654E+02 0.  0.
         -6    2    1    2    0  502  0.30128113910E+02  0.16261822702E+03 -0.92069570441E+02  0.25662397266E+03  0.17328204331E+03 0.  0.
        -24    2    5    5    0    0 -0.29163868854E+02  0.24603888705E+02 -0.25548056217E+02  0.92274653658E+02  0.80037653297E+02 0.  0.
          5    1    3    3  501    0 -0.14842196138E+02 -0.23513765041E+02  0.41308190364E+02  0.50016442534E+02  0.47000000000E+01 0. -1.
        -13    1    4    4    0    0  0.17636018571E+02 -0.70147731733E+01 -0.38361148315E+02  0.42799695019E+02  0.00000000000E+00 0.  1.
         14    1    4    4    0    0 -0.32921936343E+02 -0.13208968881E+03 -0.85475410580E+02  0.16074074031E+03  0.00000000000E+00 0. -1.
         -5    1    5    5    0  502  0.59291982764E+02  0.13801433832E+03 -0.66521514224E+02  0.16434931900E+03  0.47000000000E+01 0.  1.
         13    1    6    6    0    0 -0.11403846101E+01 -0.83658301060E+01  0.24617918743E+02  0.26025555012E+02  0.00000000000E+00 0. -1.
        -14    1    6    6    0    0 -0.28023484244E+02  0.32969718811E+02 -0.50165974961E+02  0.66249098646E+02  0.00000000000E+00 0.  1.
</event>
<event>
12    1  0.1050869E+000  0.1836466E+03  0.7818608E-02  0.1166761E+00
         21   -1    0    0  501  502  0.00000000000E+00  0.00000000000E+00  0.54141523666E+03  0.54141523666E+03  0.00000000000E+00 0.  1.
         21   -1    0    0  502  503 -0.00000000000E+00 -0.00000000000E+00 -0.12881456931E+03  0.12881456931E+03  0.00000000000E+00 0.  1.
         -6    2    1    2    0  503 -0.32846047429E+02 -0.47497821368E+01  0.45574365286E+03  0.49135359550E+03  0.18062296484E+03 0.  0.
        -24    2    3    3    0    0 -0.61848594028E+02  0.69059252289E+01  0.44706727309E+03  0.45857596915E+03  0.80931035002E+02 0.  0.
          6    2    1    2  501    0  0.32846047429E+02  0.47497821368E+01 -0.43142985511E+02  0.17887621046E+03  0.17039353922E+03 0.  0.
         24    2    5    5    0    0  0.19688170792E+02 -0.36943166110E+02  0.29018641895E+02  0.94372825193E+02  0.79446377930E+02 0.  0.
          5    1    5    5  501    0  0.13157876637E+02  0.41692948247E+02 -0.72161627406E+02  0.84503385263E+02  0.47000000000E+01 0. -1.
        -13    1    6    6    0    0  0.67256956631E+01 -0.25147664983E+02 -0.25902550387E+02  0.36723046617E+02  0.00000000000E+00 0.  1.
         14    1    6    6    0    0  0.12962475129E+02 -0.11795501127E+02  0.54921192282E+02  0.57649778577E+02  0.00000000000E+00 0. -1.
         -5    1    3    3    0  503  0.29002546598E+02 -0.11655707366E+02  0.86763797683E+01  0.32777626352E+02  0.47000000000E+01 0.  1.
         13    1    4    4    0    0 -0.43721510845E+02 -0.30281998290E+02  0.16160770266E+03  0.17013412206E+03  0.00000000000E+00 0. -1.
        -14    1    4    4    0    0 -0.18127083182E+02  0.37187923519E+02  0.28545957043E+03  0.28844184709E+03  0.00000000000E+00 0.  1.
</event>
<event>
12    1  0.1050869E+000  0.4512082E+03  0.7818608E-02  0.1027371E+00
         21   -1    0    0  501  502  0.00000000000E+00  0.00000000000E+00  0.87683130366E+03  0.87683130366E+03  0.00000000000E+00 0. -1.
         21   -1    0    0  502  503 -0.00000000000E+00 -0.00000000000E+00 -0.23482844175E+03  0.23482844175E+03  0.00000000000E+00 0. -1.
         -6    2    1    2    0  503 -0.22658450331E+03  0.35001579730E+03  0.38056985561E+03  0.59018490024E+03  0.17214298117E+03 0.  0.
        -24    2    3    3    0    0 -0.10068121198E+03  0.91295748780E+02  0.18180758920E+03  0.24044752617E+03  0.79305694350E+02 0.  0.
          6    2    1    2  501    0  0.22658450331E+03 -0.35001579730E+03  0.26143300630E+03  0.52147484517E+03  0.17244477915E+03 0.  0.
         24    2    5    5    0    0  0.18327577328E+03 -0.22830813820E+03  0.24731929250E+03  0.39143759167E+03  0.79636302574E+02 0.  0.
          5    1    5    5  501    0  0.43308730031E+02 -0.12170765910E+03  0.14113713801E+02  0.13003725350E+03  0.47000000000E+01 0. -1.
        -11    1    6    6    0    0  0.32342595981E+02 -0.99485156150E+02  0.76357882178E+02  0.12951396056E+03  0.00000000000E+00 0.  1.
         12    1    6    6    0    0  0.15093317730E+03 -0.12882298205E+03  0.17096141032E+03  0.26192363111E+03  0.00000000000E+00 0. -1.
         -5    1    3    3    0  503 -0.12590329133E+03  0.25872004852E+03  0.19876226641E+03  0.34973737407E+03  0.47000000000E+01 0.  1.
         13    1    4    4    0    0 -0.50766682360E+01  0.37411103628E+02  0.14677046018E+02  0.40506529287E+02  0.00000000000E+00 0. -1.
        -14    1    4    4    0    0 -0.95604543744E+02  0.53884645152E+02  0.16713054318E+03  0.19994099688E+03  0.00000000000E+00 0.  1.
</event>
<event>
12    1  0.1050869E+000  0.5972038E+03  0.7818608E-02  0.9912676E-01
         21   -1    0    0  503  502  0.00000000000E+00  0.00000000000E+00  0.14602416961E+04  0.14602416961E+04  0.00000000000E+00 0.  1.
         21   -1    0    0  501  503 -0.00000000000E+00 -0.00000000000E+00 -0.24590414981E+03  0.24590414981E+03  0.00000000000E+00 0.  1.
          6    2    1    2  501    0 -0.38953116785E+01  0.57079026779E+03  0.69672995642E+03  0.91584842973E+03  0.16591868735E+03 0.  0.
         24    2    3    3    0    0  0.46387055328E+02  0.26166837718E+03  0.28034208832E+03  0.39480562306E+03  0.81594699554E+02 0.  0.
         -6    2    1    2    0  502  0.38953116785E+01 -0.57079026779E+03  0.51760758984E+03  0.79029741616E+03  0.17560092729E+03 0.  0.
        -24    2    5    5    0    0  0.21847662709E+02 -0.11723893077E+03  0.12955632687E+03  0.19310651291E+03  0.79265353363E+02 0.  0.
          5    1    3    3  501    0 -0.50282367007E+02  0.30912189061E+03  0.41638786810E+03  0.52104280668E+03  0.47000000000E+01 0. -1.
        -13    1    4    4    0    0 -0.45175259780E+01 -0.13906669596E+00 -0.31989158193E+01  0.55371872757E+01  0.00000000000E+00 0.  1.
         14    1    4    4    0    0  0.50904581306E+02  0.26180744388E+03  0.28354100414E+03  0.38926843578E+03  0.00000000000E+00 0. -1.
         -5    1    5    5    0  502 -0.17952351030E+02 -0.45355133703E+03  0.38805126297E+03  0.59719090325E+03  0.47000000000E+01 0.  1.
         11    1    6    6    0    0 -0.23620937360E+02 -0.81341034487E+02  0.85249786484E+02  0.12017420134E+03  0.00000000000E+00 0. -1.
        -12    1    6    6    0    0  0.45468600069E+02 -0.35897896278E+02  0.44306540382E+02  0.72932311564E+02  0.00000000000E+00 0.  1.
</event>
<event>
12    1  0.1050869E+000  0.2357434E+03  0.7818608E-02  0.1122702E+00
         21   -1    0    0  501  502  0.00000000000E+00  0.00000000000E+00  0.70238092577E+02  0.70238092577E+02  0.00000000000E+00 0. -1.
         21   -1    0    0  502  503 -0.00000000000E+00 -0.00000000000E+00 -0.79485227753E+03  0.79485227753E+03  0.00000000000E+00 0. -1.
         -6    2    1    2    0  503  0.13920177646E+03  0.79182778815E+02 -0.32988036607E+03  0.40531897604E+03  0.17267127552E+03 0.  0.
        -24    2    3    3    0    0  0.76909143567E+02  0.20404859142E+00 -0.80246677570E+02  0.13614044723E+03  0.78610648833E+02 0.  0.
          6    2    1    2  501    0 -0.13920177646E+03 -0.79182778815E+02 -0.39473381889E+03  0.45977139407E+03  0.17299682079E+03 0.  0.
         24    2    5    5    0    0 -0.12362399962E+03 -0.97552597716E+02 -0.39779916043E+03  0.43504077143E+03  0.78847309164E+02 0.  0.
          5    1    5    5  501    0 -0.15577776838E+02  0.18369818901E+02  0.30653415408E+01  0.24730622645E+02  0.47000000000E+01 0. -1.
        -11    1    6    6    0    0 -0.24954441032E+02 -0.54279768472E+02 -0.21206319555E+03  0.22031753516E+03  0.00000000000E+00 0.  1.
         12    1    6    6    0    0 -0.98669558589E+02 -0.43272829244E+02 -0.18573596488E+03  0.21472323626E+03  0.00000000000E+00 0. -1.
         -5    1    3    3    0  503  0.62292632891E+02  0.78978730224E+02 -0.24963368850E+03  0.26917852881E+03  0.47000000000E+01 0.  1.
         13    1    4    4    0    0  0.33204245394E+02 -0.12381327291E+02 -0.83332975367E+02  0.90554977562E+02  0.00000000000E+00 0. -1.
        -14    1    4    4    0    0  0.43704898173E+02  0.12585375882E+02  0.30862977980E+01  0.45585469664E+02  0.00000000000E+00 0.  1.
</event>
<event>
12    1  0.1050869E+000  0.2250726E+03  0.7818608E-02  0.1130242E+00
         21   -1    0    0  501  502  0.00000000000E+00  0.00000000000E+00  0.12501907618E+04  0.12501907618E+04  0.00000000000E+00 0. -1.
         21   -1    0    0  502  503 -0.00000000000E+00 -0.00000000000E+00 -0.40590582073E+02  0.40590582073E+02  0.00000000000E+00 0. -1.
         -6    2    1    2    0  503  0.13391721358E+03  0.55358094915E+02  0.56426891706E+03  0.60732679233E+03  0.17160443805E+03 0.  0.
        -24    2    3    3    0    0  0.21959657095E+02  0.43577343710E+02  0.38138616726E+03  0.39252113429E+03  0.78969746497E+02 0.  0.
          6    2    1    2  501    0 -0.13391721358E+03 -0.55358094915E+02  0.64533126268E+03  0.68345455155E+03  0.17221889177E+03 0.  0.
         24    2    5    5    0    0 -0.14750275229E+03 -0.94766822093E+01  0.40642212094E+03  0.43975527191E+03  0.79742644435E+02 0.  0.
          5    1    5    5  501    0  0.13585538712E+02 -0.45881412706E+02  0.23890914173E+03  0.24369927964E+03  0.47000000000E+01 0. -1.
        -13    1    6    6    0    0 -0.56509271242E+02  0.10429363363E+02  0.25956658278E+03  0.26585123707E+03  0.00000000000E+00 0.  1.
         14    1    6    6    0    0 -0.90993481048E+02 -0.19906045572E+02  0.14685553816E+03  0.17390403483E+03  0.00000000000E+00 0. -1.
         -5    1    3    3    0  503  0.11195755648E+03  0.11780751205E+02  0.18288274979E+03  0.21480565804E+03  0.47000000000E+01 0.  1.
         13    1    4    4    0    0 -0.29847426087E+02  0.12240515297E+02  0.13675975726E+03  0.14051309641E+03  0.00000000000E+00 0. -1.
        -14    1    4    4    0    0  0.51807083182E+02  0.31336828413E+02  0.24462641001E+03  0.25200803788E+03  0.00000000000E+00 0.  1.
</event>
<event>
12    1  0.1050869E+000  0.1913934E+03  0.7818608E-02  0.1157225E+00
         21   -1    0    0  501  502  0.00000000000E+00  0.00000000000E+00  0.67563639070E+02  0.67563639070E+02  0.00000000000E+00 0.  1.
         21   -1    0    0  502  503 -0.00000000000E+00 -0.00000000000E+00 -0.11621605692E+04  0.11621605692E+04  0.00000000000E+00 0.  1.
         -6    2    1    2    0  503 -0.81007317129E+02 -0.10704412526E+02 -0.98094424842E+02  0.21500815658E+03  0.17300063969E+03 0.  0.
        -24    2    3    3    0    0 -0.12422594791E+03 -0.41541813401E+01 -0.78484382694E+02  0.16686878258E+03  0.78968657812E+02 0.  0.
          6    2    1    2  501    0  0.81007317129E+02  0.10704412526E+02 -0.99650250529E+03  0.10147160517E+04  0.17307412469E+03 0.  0.
         24    2    5    5    0    0  0.16915182301E+02 -0.52346843448E+02 -0.41205350204E+03  0.42337351980E+03  0.80191853156E+02 0.  0.
          5    1    5    5  501    0  0.64092134828E+02  0.63051255974E+02 -0.58444900325E+03  0.59134253190E+03  0.47000000000E+01 0. -1.
        -13    1    6    6    0    0  0.23283185884E+02  0.12888943270E+02 -0.65931219221E+02  0.71099629194E+02  0.00000000000E+00 0.  1.
         14    1    6    6    0    0 -0.63680035829E+01 -0.65235786718E+02 -0.34612228282E+03  0.35227389060E+03  0.00000000000E+00 0. -1.
         -5    1    3    3    0  503  0.43218630785E+02 -0.65502311858E+01 -0.19610042148E+02  0.48139373995E+02  0.47000000000E+01 0.  1.
         11    1    4    4    0    0 -0.10881994346E+03 -0.27426389835E+02 -0.81646234823E+02  0.13878074295E+03  0.00000000000E+00 0. -1.
        -12    1    4    4    0    0 -0.15406004457E+02  0.23272208495E+02  0.31618521293E+01  0.28088039633E+02  0.00000000000E+00 0.  1.
</event>
<event>
12    1  0.1050869E+000  0.1834669E+03  0.7818608E-02  0.1167465E+00
         21   -1    0    0  503  502  0.00000000000E+00  0.00000000000E+00  0.13513662008E+03  0.13513662008E+03  0.00000000000E+00 0. -1.
         21   -1    0    0  501  503 -0.00000000000E+00 -0.00000000000E+00 -0.35619028186E+03  0.35619028186E+03  0.00000000000E+00 0. -1.
          6    2    1    2  501    0  0.48686542871E+02  0.27011373199E+02  0.36450334045E+02  0.17514910058E+03  0.16201415630E+03 0.  0.
         24    2    3    3    0    0  0.28279845587E+01 -0.38326286847E+02  0.34639380512E+02  0.95165435100E+02  0.79872846421E+02 0.  0.
         -6    2    1    2    0  502 -0.48686542871E+02 -0.27011373199E+02 -0.25750399582E+03  0.31617780136E+03  0.17481447443E+03 0.  0.
        -24    2    5    5    0    0 -0.19762941193E+02  0.73760462824E+01 -0.35431982305E+02  0.89556667000E+02  0.79498373133E+02 0.  0.
          5    1    3    3  501    0  0.45858558312E+02  0.65337660046E+02  0.18109535328E+01  0.79983665479E+02  0.47000000000E+01 0. -1.
        -13    1    4    4    0    0  0.26959153400E+02 -0.14040639090E+02  0.49304056518E+02  0.57920855374E+02  0.00000000000E+00 0.  1.
         14    1    4    4    0    0 -0.24131168841E+02 -0.24285647757E+02 -0.14664676006E+02  0.37244579726E+02  0.00000000000E+00 0. -1.
         -5    1    5    5    0  502 -0.28923601678E+02 -0.34387419481E+02 -0.22207201351E+03  0.22662113436E+03  0.47000000000E+01 0.  1.
         11    1    6    6    0    0 -0.25247577086E+02 -0.31348108338E+02 -0.29713138182E+02  0.50030137175E+02  0.00000000000E+00 0. -1.
        -12    1    6    6    0    0  0.54846358928E+01  0.38724154620E+02 -0.57188441226E+01  0.39526529825E+02  0.00000000000E+00 0.  1.
</event>
<event>
12    1  0.1050869E+000  0.3053085E+03  0.7818608E-02  0.1082893E+00
         21   -1    0    0  503  502  0.00000000000E+00  0.00000000000E+00  0.78647193060E+03  0.78647193060E+03  0.00000000000E+00 0.  1.
         21   -1    0    0  501  503 -0.00000000000E+00 -0.00000000000E+00 -0.25470000272E+03  0.25470000272E+03  0.00000000000E+00 0.  1.
          6    2    1    2  501    0 -0.24093725786E+03 -0.60263166606E+02 -0.11553224447E+03  0.32643678876E+03  0.17756932750E+03 0.  0.
         24    2    3    3    0    0 -0.56261778369E+02 -0.64539636818E+02 -0.20385734258E+02  0.11859485524E+03  0.79488421185E+02 0.  0.
         -6    2    1    2    0  502  0.24093725786E+03  0.60263166606E+02  0.64730417235E+03  0.71473514456E+03  0.17366987028E+03 0.  0.
        -24    2    5    5    0    0  0.24114201415E+03  0.13428101680E+02  0.56954586038E+03  0.62383954339E+03  0.80395919738E+02 0.  0.
          5    1    3    3  501    0 -0.18467547950E+03  0.42764702119E+01 -0.95146510208E+02  0.20784193352E+03  0.47000000000E+01 0. -1.
        -13    1    4    4    0    0 -0.55628397647E+01  0.17391270285E+02 -0.12070004880E+02  0.21888044367E+02  0.00000000000E+00 0.  1.
         14    1    4    4    0    0 -0.50698938605E+02 -0.81930907103E+02 -0.83157293778E+01  0.96706810874E+02  0.00000000000E+00 0. -1.
         -5    1    5    5    0  502 -0.20475628752E+00  0.46835064926E+02  0.77758311967E+02  0.90895601168E+02  0.47000000000E+01 0.  1.
         11    1    6    6    0    0  0.17554322156E+03  0.43928542121E+02  0.43357061472E+03  0.46981764271E+03  0.00000000000E+00 0. -1.
        -12    1    6    6    0    0  0.65598792589E+02 -0.30500440441E+02  0.13597524566E+03  0.15402190068E+03  0.00000000000E+00 0.  1.
</event>
<event>
12    1  0.1050869E+000  0.4067745E+03  0.7818608E-02  0.1041495E+00
         21   -1    0    0  501  502  0.00000000000E+00  0.00000000000E+00  0.42453546339E+03  0.42453546339E+03  0.00000000000E+00 0. -1.
         21   -1    0    0  502  503 -0.00000000000E+00 -0.00000000000E+00 -0.42805209010E+03  0.42805209010E+03  0.00000000000E+00 0. -1.
         -6    2    1    2    0  503  0.39947326518E+02 -0.36605773245E+03  0.12643579232E+03  0.42555933161E+03  0.17181583965E+03 0.  0.
        -24    2    3    3    0    0 -0.26245138031E+02 -0.30429062472E+03  0.97704917169E+02  0.33045848436E+03  0.79843393491E+02 0.  0.
          6    2    1    2  501    0 -0.39947326518E+02  0.36605773245E+03 -0.12995241903E+03  0.42702822189E+03  0.17283349991E+03 0.  0.
         24    2    5    5    0    0 -0.80877105375E+02  0.19137561603E+03 -0.41095292087E+02  0.22676148076E+03  0.81032175937E+02 0.  0.
          5    1    5    5  501    0  0.40929778857E+02  0.17468211642E+03 -0.88857126940E+02  0.20026674113E+03  0.47000000000E+01 0. -1.
        -13    1    6    6    0    0 -0.72766507798E+02  0.13829512786E+03 -0.63366848732E+02  0.16862937041E+03  0.00000000000E+00 0.  1.
         14    1    6    6    0    0 -0.81105975771E+01  0.53080488175E+02  0.22271556646E+02  0.58132110347E+02  0.00000000000E+00 0. -1.
         -5    1    3    3    0  503  0.66192464549E+02 -0.61767107738E+02  0.28730875150E+02  0.95100847253E+02  0.47000000000E+01 0.  1.
         11    1    4    4    0    0  0.23423501732E+02 -0.52589726080E+02  0.30944922993E+02  0.65359987620E+02  0.00000000000E+00 0. -1.
        -12    1    4    4    0    0 -0.49668639763E+02 -0.25170089864E+03  0.66759994176E+02  0.26509849674E+03  0.00000000000E+00 0.  1.
</event>
<event>
12    1  0.1050869E+000  0.2093394E+03  0.7818608E-02  0.1142233E+00
         21   -1    0    0  503  502  0.00000000000E+00  0.00000000000E+00  0.51683516656E+02  0.51683516656E+02  0.00000000000E+00 0.  1.
         21   -1    0    0  501  503 -0.00000000000E+00 -0.00000000000E+00 -0.85301837923E+03  0.85301837923E+03  0.00000000000E+00 0.  1.
          6    2    1    2  501    0 -0.10848719099E+03 -0.47472664974E+02 -0.44382921585E+03  0.49041540958E+03  0.17175498998E+03 0.  0.
         24    2    3    3    0    0 -0.13842706406E+03 -0.63574855867E+02 -0.33982991309E+03  0.38090001556E+03  0.79978982650E+02 0.  0.
         -6    2    1    2    0  502  0.10848719099E+03  0.47472664974E+02 -0.35750564673E+03  0.41428648631E+03  0.17262641967E+03 0.  0.
        -24    2    5    5    0    0  0.12406469092E+01 -0.19360483191E+02 -0.17883414995E+03  0.19539362514E+03  0.76293171666E+02 0.  0.
          5    1    3    3  501    0  0.29939873070E+02  0.16102190892E+02 -0.10399930276E+03  0.10951539401E+03  0.47000000000E+01 0. -1.
        -13    1    4    4    0    0 -0.33435190106E+02 -0.25532199282E+02 -0.30308723472E+02  0.51850013077E+02  0.00000000000E+00 0.  1.
         14    1    4    4    0    0 -0.10499187395E+03 -0.38042656585E+02 -0.30952118961E+03  0.32905000249E+03  0.00000000000E+00 0. -1.
         -5    1    5    5    0  502  0.10724654408E+03  0.66833148165E+02 -0.17867149678E+03  0.21889286117E+03  0.47000000000E+01 0.  1.
         11    1    6    6    0    0  0.24383095114E+02  0.81409696794E+01 -0.20073971916E+02  0.32615564737E+02  0.00000000000E+00 0. -1.
        -12    1    6    6    0    0 -0.23142448205E+02 -0.27501452870E+02 -0.15876017803E+03  0.16277806040E+03  0.00000000000E+00 0.  1.
</event>
<event>
12    1  0.1050869E+000  0.2919068E+03  0.7818608E-02  0.1089433E+00
         21   -1    0    0  501  502  0.00000000000E+00  0.00000000000E+00  0.42881479674E+03  0.42881479674E+03  0.00000000000E+00 0.  1.
         21   -1    0    0  502  503 -0.00000000000E+00 -0.00000000000E+00 -0.20663533791E+03  0.20663533791E+03  0.00000000000E+00 0. -1.
         -6    2    1    2    0  503  0.20566596508E+03  0.11579171896E+03  0.47232157796E+02  0.29513241715E+03  0.17078072358E+03 0.  0.
        -24    2    3    3    0    0  0.15296195972E+03  0.14505518609E+03  0.14428154175E+02  0.22634102711E+03  0.81140130562E+02 0.  0.
          6    2    1    2  501    0 -0.20566596508E+03 -0.11579171896E+03  0.17494730103E+03  0.34031771751E+03  0.17176547773E+03 0.  0.
         24    2    5    5    0    0 -0.73948590299E+02 -0.66179866685E+02  0.15016019995E+03  0.19732368587E+03  0.80872631918E+02 0.  0.
          5    1    5    5  501    0 -0.13171737478E+03 -0.49611852278E+02  0.24787101083E+02  0.14299403165E+03  0.47000000000E+01 0. -1.
        -13    1    6    6    0    0  0.29700603101E+01  0.13039477667E+02  0.36440740075E+02  0.38817222637E+02  0.00000000000E+00 0.  1.
         14    1    6    6    0    0 -0.76918650609E+02 -0.79219344353E+02  0.11371945988E+03  0.15850646323E+03  0.00000000000E+00 0. -1.
         -5    1    3    3    0  503  0.52704005366E+02 -0.29263467125E+02  0.32804003621E+02  0.68791390038E+02  0.47000000000E+01 0.  1.
         13    1    4    4    0    0  0.81884120269E+02  0.29184769913E+02 -0.12326596892E+02  0.87799230852E+02  0.00000000000E+00 0. -1.
        -14    1    4    4    0    0  0.71077839447E+02  0.11587041618E+03  0.26754751066E+02  0.13854179626E+03  0.00000000000E+00 0.  1.
</event>
<event>
12    1  0.1050869E+000  0.1858425E+03  0.7818608E-02  0.1162435E+00
         21   -1    0    0  501  502  0.00000000000E+00  0.00000000000E+00  0.94354600841E+02  0.94354600841E+02  0.00000000000E+00 0. -1.
         21   -1    0    0  502  503 -0.00000000000E+00 -0.00000000000E+00 -0.37998571057E+03  0.37998571057E+03  0.00000000000E+00 0. -1.
         -6    2    1    2    0  503  0.21224417329E+02  0.64705124910E+02 -0.94835543385E+02  0.20799393126E+03  0.17213502280E+03 0.  0.
        -24    2    3    3    0    0 -0.22059817255E+02 -0.20740454051E+02 -0.15752279987E+02  0.83692988077E+02  0.76417144391E+02 0.  0.
          6    2    1    2  501    0 -0.21224417329E+02 -0.64705124910E+02 -0.19079556634E+03  0.26634638015E+03  0.17291679213E+03 0.  0.
         24    2    5    5    0    0 -0.79267713040E+02 -0.38061897777E+02 -0.14695664393E+03  0.18873950643E+03  0.79336421024E+02 0.  0.
          5    1    5    5  501    0  0.58043295711E+02 -0.26643227133E+02 -0.43838922419E+02  0.77606873715E+02  0.47000000000E+01 0. -1.
        -13    1    6    6    0    0 -0.46244368892E+02 -0.61648567324E+02 -0.10628812850E+03  0.13128691392E+03  0.00000000000E+00 0.  1.
         14    1    6    6    0    0 -0.33023344148E+02  0.23586669547E+02 -0.40668515428E+02  0.57452592510E+02  0.00000000000E+00 0. -1.
         -5    1    3    3    0  503  0.43284234584E+02  0.85445578961E+02 -0.79083263398E+02  0.12430094319E+03  0.47000000000E+01 0.  1.
         11    1    4    4    0    0 -0.25749272532E+02  0.99388149955E+01 -0.37023194702E+02  0.46179238034E+02  0.00000000000E+00 0. -1.
        -12    1    4    4    0    0  0.36894552771E+01 -0.30679269047E+02  0.21270914715E+02  0.37513750043E+02  0.00000000000E+00 0.  1.
</event>
<event>
12    1  0.1050869E+000  0.2384130E+03  0.7818608E-02  0.1121129E+00
         21   -1    0    0  503  502  0.00000000000E+00  0.00000000000E+00  0.11784143353E+04  0.11784143353E+04  0.00000000000E+00 0.  1.
         21   -1    0    0  501  503 -0.00000000000E+00 -0.00000000000E+00 -0.63089578389E+02  0.63089578389E+02  0.00000000000E+00 0.  1.
          6    2    1    2  501    0 -0.49915756290E+02  0.15613112739E+03  0.25168440863E+03  0.34556006070E+03  0.17087481482E+03 0.  0.
         24    2    3    3    0    0  0.14498772861E+02  0.98803308084E+02  0.74743119818E+02  0.14866917691E+03  0.80893028756E+02 0.  0.
         -6    2    1    2    0  502  0.49915756290E+02 -0.15613112739E+03  0.86364034831E+03  0.89594385301E+03  0.17312488227E+03 0.  0.
        -24    2    5    5    0    0 -0.13451029846E+02 -0.36118359257E+02  0.19701264664E+03  0.21562554757E+03  0.78707863309E+02 0.  0.
          5    1    3    3  501    0 -0.64414529151E+02  0.57327819307E+02  0.17694128881E+03  0.19689088379E+03  0.47000000000E+01 0. -1.
        -13    1    4    4    0    0  0.40692686559E+02  0.92695189750E+02  0.63608195762E+02  0.11955875338E+03  0.00000000000E+00 0.  1.
         14    1    4    4    0    0 -0.26193913699E+02  0.61081183337E+01  0.11134924056E+02  0.29110423531E+02  0.00000000000E+00 0. -1.
         -5    1    5    5    0  502  0.63366786137E+02 -0.12001276813E+03  0.66662770166E+03  0.68031830545E+03  0.47000000000E+01 0.  1.
         11    1    6    6    0    0  0.32036298932E+02 -0.25169046301E+02  0.86318284591E+02  0.95449733345E+02  0.00000000000E+00 0. -1.
        -12    1    6    6    0    0 -0.45487328779E+02 -0.10949312956E+02  0.11069436205E+03  0.12017581422E+03  0.00000000000E+00 0.  1.
</event>
<event>
12    1  0.1050869E+000  0.2772688E+03  0.7818608E-02  0.1097401E+00
         21   -1    0    0  501  502  0.00000000000E+00  0.00000000000E+00  0.26829903116E+03  0.26829903116E+03  0.00000000000E+00 0.  1.
         21   -1    0    0  502  503 -0.00000000000E+00 -0.00000000000E+00 -0.52248111394E+03  0.52248111394E+03  0.00000000000E+00 0.  1.
         -6    2    1    2    0  503  0.17606217911E+03 -0.12609916967E+03  0.13930098895E+03  0.31029459073E+03  0.17314466785E+03 0.  0.
        -24    2    3    3    0    0  0.18402102254E+03 -0.60645768988E+02  0.11442326984E+03  0.23966540584E+03  0.82493490926E+02 0.  0.
          6    2    1    2  501    0 -0.17606217911E+03  0.12609916967E+03 -0.39348307173E+03  0.48048555438E+03  0.17070017201E+03 0.  0.
         24    2    5    5    0    0 -0.31900157075E+02  0.91263717821E+01 -0.16332348782E+03  0.18474775140E+03  0.79726151869E+02 0.  0.
          5    1    5    5  501    0 -0.14416202204E+03  0.11697279789E+03 -0.23015958391E+03  0.29573780297E+03  0.47000000000E+01 0. -1.
        -13    1    6    6    0    0 -0.30546337716E+02  0.11624377164E+02 -0.17227926338E+03  0.17535207294E+03  0.00000000000E+00 0.  1.
         14    1    6    6    0    0 -0.13538193592E+01 -0.24980053816E+01  0.89557755668E+01  0.93956784613E+01  0.00000000000E+00 0. -1.
         -5    1    3    3    0  503 -0.79588434236E+01 -0.65453400679E+02  0.24877719116E+02  0.70629184885E+02  0.47000000000E+01 0.  1.
         13    1    4    4    0    0  0.13092113474E+03 -0.77653455326E+02  0.99816437828E+02  0.18202671207E+03  0.00000000000E+00 0. -1.
        -14    1    4    4    0    0  0.53099887795E+02  0.17007686338E+02  0.14606832011E+02  0.57638693772E+02  0.00000000000E+00 0.  1.
</event>
<event>
12    1  0.1050869E+000  0.2377456E+03  0.7818608E-02  0.1121406E+00
         21   -1    0    0  501  502  0.00000000000E+00  0.00000000000E+00  0.26796372355E+03  0.26796372355E+03  0.00000000000E+00 0.  1.
         21   -1    0    0  502  503 -0.00000000000E+00 -0.00000000000E+00 -0.21305174220E+03  0.21305174220E+03  0.00000000000E+00 0.  1.
         -6    2    1    2    0  503  0.15218320738E+03 -0.57628706249E+02  0.54338085173E+02  0.24387616120E+03  0.17332673801E+03 0.  0.
        -24    2    3    3    0    0  0.92691821344E+02  0.10721546426E+01 -0.28658206007E+02  0.12599702636E+03  0.80380561202E+02 0.  0.
          6    2    1    2  501    0 -0.15218320738E+03  0.57628706249E+02  0.57389617558E+00  0.23713930455E+03  0.17249325787E+03 0.  0.
         24    2    5    5    0    0 -0.75589527930E+02  0.34220741096E+02  0.65103472173E+02  0.13417969721E+03  0.82951149484E+02 0.  0.
          5    1    5    5  501    0 -0.76593679455E+02  0.23407965152E+02 -0.64529575998E+02  0.10295960734E+03  0.47000000000E+01 0. -1.
        -11    1    6    6    0    0 -0.80251537241E+02  0.23747601558E+02  0.17874008171E+02  0.85578840711E+02  0.00000000000E+00 0.  1.
         12    1    6    6    0    0  0.46620093110E+01  0.10473139538E+02  0.47229464002E+02  0.48600856500E+02  0.00000000000E+00 0. -1.
         -5    1    3    3    0  503  0.59491386040E+02 -0.58700860891E+02  0.82996291180E+02  0.11787913485E+03  0.47000000000E+01 0.  1.
         13    1    4    4    0    0  0.34008615180E+02 -0.38911590583E+02 -0.11467312379E+02  0.52935782240E+02  0.00000000000E+00 0. -1.
        -14    1    4    4    0    0  0.58683206165E+02  0.39983745226E+02 -0.17190893628E+02  0.73061244116E+02  0.00000000000E+00 0.  1.
</event>
<event>
12    1  0.1050869E+000  0.1800760E+03  0.7818608E-02  0.1168959E+00
         21   -1    0    0  501  502  0.00000000000E+00  0.00000000000E+00  0.18508073234E+03  0.18508073234E+03  0.00000000000E+00 0.  1.
         21   -1    0    0  502  503 -0.00000000000E+00 -0.00000000000E+00 -0.24398435916E+03  0.24398435916E+03  0.00000000000E+00 0.  1.
         -6    2    1    2    0  503  0.29976001572E+02  0.27074389163E+02  0.88672065828E+02  0.19624341356E+03  0.17034423644E+03 0.  0.
        -24    2    3    3    0    0 -0.41228296906E+02 -0.27110202997E+01  0.66325755584E+02  0.11575322584E+03  0.85396612001E+02 0.  0.
          6    2    1    2  501    0 -0.29976001572E+02 -0.27074389163E+02 -0.14757569264E+03  0.23282167793E+03  0.17548722300E+03 0.  0.
         24    2    5    5    0    0 -0.66176316600E+02 -0.60589847394E+02 -0.63173710872E+02  0.13494658776E+03  0.78544441674E+02 0.  0.
          5    1    5    5  501    0  0.36200315029E+02  0.33515458231E+02 -0.84401981771E+02  0.97875090169E+02  0.47000000000E+01 0. -1.
        -13    1    6    6    0    0 -0.21796669883E+02  0.17402066051E+02 -0.59499686453E+01  0.28518920872E+02  0.00000000000E+00 0.  1.
         14    1    6    6    0    0 -0.44379646717E+02 -0.77991913446E+02 -0.57223742227E+02  0.10642766689E+03  0.00000000000E+00 0. -1.
         -5    1    3    3    0  503  0.71204298478E+02  0.29785409463E+02  0.22346310245E+02  0.80490187726E+02  0.47000000000E+01 0.  1.
         11    1    4    4    0    0 -0.47251451333E+02 -0.34514449108E+02  0.57871565467E+02  0.82298632674E+02  0.00000000000E+00 0. -1.
        -12    1    4    4    0    0  0.60231544271E+01  0.31803428809E+02  0.84541901164E+01  0.33454593164E+02  0.00000000000E+00 0.  1.
</event>
<event>
12    1  0.1050869E+000  0.2233337E+03  0.7818608E-02  0.1131590E+00
         21   -1    0    0  503  502  0.00000000000E+00  0.00000000000E+00  0.26898363196E+03  0.26898363196E+03  0.00000000000E+00 0.  1.
         21   -1    0    0  501  503 -0.00000000000E+00 -0.00000000000E+00 -0.18852458929E+03  0.18852458929E+03  0.00000000000E+00 0.  1.
          6    2    1    2  501    0 -0.10322239319E+03  0.98255197586E+02  0.72858035371E+02  0.23404516332E+03  0.17076269747E+03 0.  0.
         24    2    3    3    0    0 -0.25325418754E+02  0.39904691894E+01  0.73204567136E+02  0.11166874513E+03  0.80334919612E+02 0.  0.
         -6    2    1    2    0  502  0.10322239319E+03 -0.98255197586E+02  0.76010072994E+01  0.22346305794E+03  0.17195643821E+03 0.  0.
        -24    2    5    5    0    0  0.13467424608E+03 -0.49329649635E+02  0.13242184266E+02  0.16483847973E+03  0.80161100707E+02 0.  0.
          5    1    3    3  501    0 -0.77896974434E+02  0.94264728396E+02 -0.34653176519E+00  0.12237641819E+03  0.47000000000E+01 0. -1.
        -13    1    4    4    0    0  0.83411186566E+01  0.25692288889E+02 -0.13386177028E+01  0.27045514714E+02  0.00000000000E+00 0.  1.
         14    1    4    4    0    0 -0.33666537410E+02 -0.21701819699E+02  0.74543184839E+02  0.84623230412E+02  0.00000000000E+00 0. -1.
         -5    1    5    5    0  502 -0.31451852887E+02 -0.48925547951E+02 -0.56411769663E+01  0.58624578207E+02  0.47000000000E+01 0.  1.
         13    1    6    6    0    0  0.41451600257E+02 -0.57123500673E+02  0.95081033175E+01  0.71216104370E+02  0.00000000000E+00 0. -1.
        -14    1    6    6    0    0  0.93222645819E+02  0.77938510386E+01  0.37340809482E+01  0.93622375360E+02  0.00000000000E+00 0.  1.
</event>
<event>
12    1  0.1050869E+000  0.2007222E+03  0.7818608E-02  0.1149260E+00
         21   -1    0    0  501  502  0.00000000000E+00  0.00000000000E+00  0.37392488201E+03  0.37392488201E+03  0.00000000000E+00 0.  1.
         21   -1    0    0  502  503 -0.00000000000E+00 -0.00000000000E+00 -0.10939906876E+03  0.10939906876E+03  0.00000000000E+00 0.  1.
         -6    2    1    2    0  503 -0.42162100038E+02  0.94560289522E+02  0.16497768077E+03  0.25982116886E+03  0.17195962783E+03 0.  0.
        -24    2    3    3    0    0 -0.88103812206E+02  0.30718922210E+02  0.10248485543E+03  0.15925375706E+03  0.78439018598E+02 0.  0.
          6    2    1    2  501    0  0.42162100038E+02 -0.94560289522E+02  0.99548132482E+02  0.22350278190E+03  0.17124360369E+03 0.  0.
         24    2    5    5    0    0 -0.30117376751E+02 -0.26352445887E+01  0.42581945149E+02  0.93342215101E+02  0.77366311602E+02 0.  0.
          5    1    5    5  501    0  0.72279476789E+02 -0.91925044933E+02  0.56966187333E+02  0.13016056680E+03  0.47000000000E+01 0. -1.
        -11    1    6    6    0    0 -0.23832547132E+02 -0.35250678888E+02  0.44667098431E+01  0.42784952514E+02  0.00000000000E+00 0.  1.
         12    1    6    6    0    0 -0.62848296187E+01  0.32615434299E+02  0.38115235306E+02  0.50557262587E+02  0.00000000000E+00 0. -1.
         -5    1    3    3    0  503  0.45941712168E+02  0.63841367312E+02  0.62492825346E+02  0.10056741180E+03  0.47000000000E+01 0.  1.
         13    1    4    4    0    0 -0.95105214349E+02  0.44144332186E+02  0.97855639137E+02  0.14342053539E+03  0.00000000000E+00 0. -1.
        -14    1    4    4    0    0  0.70014021424E+01 -0.13425409976E+02  0.46292162884E+01  0.15833221669E+02  0.00000000000E+00 0.  1.
</event>
<event>
12    1  0.1050869E+000  0.2042112E+03  0.7818608E-02  0.1146352E+00
         21   -1    0    0  503  502  0.00000000000E+00  0.00000000000E+00  0.41288514517E+02  0.41288514517E+02  0.00000000000E+00 0.  1.
         21   -1    0    0  501  503 -0.00000000000E+00 -0.00000000000E+00 -0.10093005809E+04  0.10093005809E+04  0.00000000000E+00 0.  1.
          6    2    1    2  501    0  0.10971627113E+03  0.35989639783E+01 -0.45920356005E+03  0.50232975892E+03  0.17151286963E+03 0.  0.
         24    2    3    3    0    0  0.81951828621E+02  0.22266585132E+02 -0.14590698736E+03  0.18721680012E+03  0.80928229069E+02 0.  0.
         -6    2    1    2    0  502 -0.10971627113E+03 -0.35989639783E+01 -0.50880850634E+03  0.54825933650E+03  0.17219637406E+03 0.  0.
        -24    2    5    5    0    0 -0.14087134586E+03 -0.25458788463E+02 -0.37995536524E+03  0.41382082795E+03  0.79929419364E+02 0.  0.
          5    1    3    3  501    0  0.27764442510E+02 -0.18667621153E+02 -0.31329657268E+03  0.31511295880E+03  0.47000000000E+01 0. -1.
        -13    1    4    4    0    0 -0.63257962468E+01  0.58388999482E+01  0.61823915050E+01  0.10598604412E+02  0.00000000000E+00 0.  1.
         14    1    4    4    0    0  0.88277624868E+02  0.16427685184E+02 -0.15208937887E+03  0.17661819571E+03  0.00000000000E+00 0. -1.
         -5    1    5    5    0  502  0.31155074726E+02  0.21859824485E+02 -0.12885314110E+03  0.13443850854E+03  0.47000000000E+01 0.  1.
         11    1    6    6    0    0 -0.38221763038E+02 -0.39438373886E+02 -0.18591200095E+03  0.19385448306E+03  0.00000000000E+00 0. -1.
        -12    1    6    6    0    0 -0.10264958282E+03  0.13979585423E+02 -0.19404336428E+03  0.21996634489E+03  0.00000000000E+00 0.  1.
</event>
<event>
12    1  0.1050869E+000  0.2570229E+03  0.7818608E-02  0.1109074E+00
         21   -1    0    0  501  502  0.00000000000E+00  0.00000000000E+00  0.29352654918E+03  0.29352654918E+03  0.00000000000E+00 0.  1.
         21   -1    0    0  502  503 -0.00000000000E+00 -0.00000000000E+00 -0.24987149604E+03  0.24987149604E+03  0.00000000000E+00 0.  1.
         -6    2    1    2    0  503  0.17243100463E+03  0.79158018443E+02  0.10874068882E+03  0.27907935595E+03  0.17338485018E+03 0.  0.
        -24    2    3    3    0    0  0.11062364963E+03 -0.73367474499E+01  0.10331440238E+03  0.17252876589E+03  0.82467506317E+02 0.  0.
          6    2    1    2  501    0 -0.17243100463E+03 -0.79158018443E+02 -0.65085635685E+02  0.26431868927E+03  0.17213304820E+03 0.  0.
         24    2    5    5    0    0 -0.18279046948E+03 -0.28088757019E+02 -0.41388120714E+02  0.20688133044E+03  0.82979360935E+02 0.  0.
          5    1    5    5  501    0  0.10359464853E+02 -0.51069261424E+02 -0.23697514971E+02  0.57437358837E+02  0.47000000000E+01 0. -1.
        -13    1    6    6    0    0 -0.90553948354E+02 -0.16542325832E+02  0.21652458502E+02  0.94564766513E+02  0.00000000000E+00 0.  1.
         14    1    6    6    0    0 -0.92236521130E+02 -0.11546431187E+02 -0.63040579216E+02  0.11231656392E+03  0.00000000000E+00 0. -1.
         -5    1    3    3    0  503  0.61807354997E+02  0.86494765893E+02  0.54262864440E+01  0.10655059006E+03  0.47000000000E+01 0.  1.
         13    1    4    4    0    0  0.87767631778E+02  0.10304692279E+01  0.26104359159E+02  0.91573230924E+02  0.00000000000E+00 0. -1.
        -14    1    4    4    0    0  0.22856017857E+02 -0.83672166778E+01  0.77210043221E+02  0.80955534964E+02  0.00000000000E+00 0.  1.
</event>
<event>
12    1  0.1050869E+000  0.1770235E+03  0.7818608E-02  0.1171001E+00
         21   -1    0    0  503  502  0.00000000000E+00  0.00000000000E+00  0.57382183155E+03  0.57382183155E+03  0.00000000000E+00 0.  1.
         21   -1    0    0  501  503 -0.00000000000E+00 -0.00000000000E+00 -0.75182635702E+02  0.75182635702E+02  0.00000000000E+00 0.  1.
          6    2    1    2  501    0  0.37616844105E+02  0.59526113748E+01  0.42110801277E+03  0.45680333264E+03  0.17287818181E+03 0.  0.
         24    2    3    3    0    0 -0.14770025758E+02 -0.46957011383E+02  0.14576299165E+03  0.17153016010E+03  0.75846104114E+02 0.  0.
         -6    2    1    2    0  502 -0.37616844105E+02 -0.59526113748E+01  0.77531183078E+02  0.19220113462E+03  0.17169662564E+03 0.  0.
        -24    2    5    5    0    0 -0.24623271984E+02 -0.37051485665E+02 -0.15592231826E+02  0.93054610212E+02  0.80230447308E+02 0.  0.
          5    1    3    3  501    0  0.52386869863E+02  0.52909622758E+02  0.27534502112E+03  0.28527317254E+03  0.47000000000E+01 0. -1.
        -13    1    4    4    0    0  0.13930025671E+02 -0.43326048306E+02  0.36024665757E+02  0.58042817126E+02  0.00000000000E+00 0.  1.
         14    1    4    4    0    0 -0.28700051428E+02 -0.36309630773E+01  0.10973832589E+03  0.11348734297E+03  0.00000000000E+00 0. -1.
         -5    1    5    5    0  502 -0.12993572121E+02  0.31098874290E+02  0.93123414903E+02  0.99146524406E+02  0.47000000000E+01 0.  1.
         13    1    6    6    0    0 -0.28719973540E+02 -0.78186358573E+01  0.27697509484E+02  0.40658578166E+02  0.00000000000E+00 0. -1.
        -14    1    6    6    0    0  0.40967015563E+01 -0.29232849807E+02 -0.43289741310E+02  0.52396032046E+02  0.00000000000E+00 0.  1.
</event>
<event>
12    1  0.1050869E+000  0.2139665E+03  0.7818608E-02  0.1138533E+00
         21   -1    0    0  503  502  0.00000000000E+00  0.00000000000E+00  0.94889389978E+02  0.94889389978E+02  0.00000000000E+00 0.  1.
         21   -1    0    0  501  503 -0.00000000000E+00 -0.00000000000E+00 -0.66733951202E+03  0.66733951202E+03  0.00000000000E+00 0.  1.
          6    2    1    2  501    0  0.78606755762E+02 -0.97868829420E+02 -0.85017878115E+02  0.22990206757E+03  0.17282821313E+03 0.  0.
         24    2    3    3    0    0  0.35389381161E+02 -0.41277014651E+02  0.24203189182E+02  0.99434805368E+02  0.79657302957E+02 0.  0.
         -6    2    1    2    0  502 -0.78606755762E+02  0.97868829420E+02 -0.48743224393E+03  0.53232683442E+03  0.17327531966E+03 0.  0.
        -24    2    5    5    0    0 -0.11997331371E+03  0.84645210890E+02 -0.33228351054E+03  0.37114595567E+03  0.76016980361E+02 0.  0.
          5    1    3    3  501    0  0.43217374600E+02 -0.56591814769E+02 -0.10922106730E+03  0.13046726221E+03  0.47000000000E+01 0. -1.
        -13    1    4    4    0    0 -0.10053495842E+02  0.14204882775E+02  0.21508968407E+02  0.27667439261E+02  0.00000000000E+00 0.  1.
         14    1    4    4    0    0  0.45442877004E+02 -0.55481897426E+02  0.26942207749E+01  0.71767366107E+02  0.00000000000E+00 0. -1.
         -5    1    5    5    0  502  0.41366557953E+02  0.13223618530E+02 -0.15514873339E+03  0.16118087875E+03  0.47000000000E+01 0.  1.
         13    1    6    6    0    0 -0.27355210091E+02  0.60725707865E+02 -0.10239650310E+03  0.12215139361E+03  0.00000000000E+00 0. -1.
        -14    1    6    6    0    0 -0.92618103624E+02  0.23919503026E+02 -0.22988700744E+03  0.24899456205E+03  0.00000000000E+00 0.  1.
</event>
<event>
12    1  0.1050869E+000  0.2075464E+03  0.7818608E-02  0.1144507E+00
         21   -1    0    0  503  502  0.00000000000E+00  0.00000000000E+00  0.55087432887E+03  0.55087432887E+03  0.00000000000E+00 0. -1.
         21   -1    0    0  501  503 -0.00000000000E+00 -0.00000000000E+00 -0.80018893142E+02  0.80018893142E+02  0.00000000000E+00 0. -1.
          6    2    1    2  501    0  0.87885226558E+02 -0.60783162740E+02  0.30528486401E+03  0.36915357371E+03  0.17792444146E+03 0.  0.
         24    2    3    3    0    0  0.68600087376E+02 -0.76225791558E+02  0.10360403917E+03  0.16591077190E+03  0.79222749347E+02 0.  0.
         -6    2    1    2    0  502 -0.87885226558E+02  0.60783162740E+02  0.16557057171E+03  0.26173964830E+03  0.17226614106E+03 0.  0.
        -24    2    5    5    0    0 -0.10694031145E+03  0.17346977503E+00  0.79064949240E+02  0.15430620909E+03  0.78248831676E+02 0.  0.
          5    1    3    3  501    0  0.19285139182E+02  0.15442628819E+02  0.20168082484E+03  0.20324280180E+03  0.47000000000E+01 0. -1.
        -11    1    4    4    0    0  0.79264670788E+02 -0.38515056244E+02  0.85335921782E+02  0.12267239762E+03  0.00000000000E+00 0.  1.
         12    1    4    4    0    0 -0.10664583412E+02 -0.37710735314E+02  0.18268117392E+02  0.43238374279E+02  0.00000000000E+00 0. -1.
         -5    1    5    5    0  502  0.19055084897E+02  0.60609692964E+02  0.86505622473E+02  0.10743343921E+03  0.47000000000E+01 0.  1.
         11    1    6    6    0    0 -0.10997529929E+02 -0.29970893052E+02  0.17936772085E+02  0.36618682222E+02  0.00000000000E+00 0. -1.
        -12    1    6    6    0    0 -0.95942781526E+02  0.30144362827E+02  0.61128177155E+02  0.11768752686E+03  0.00000000000E+00 0.  1.
</event>
<event>
12    1  0.1050869E+000  0.2077670E+03  0.7818608E-02  0.1143505E+00
         21   -1    0    0  503  502  0.00000000000E+00  0.00000000000E+00  0.23717737922E+03  0.23717737922E+03  0.00000000000E+00 0. -1.
         21   -1    0    0  501  503 -0.00000000000E+00 -0.00000000000E+00 -0.41394600748E+03  0.41394600748E+03  0.00000000000E+00 0. -1.
          6    2    1    2  501    0 -0.11454416043E+03  0.11405202842E+02  0.15574784144E+03  0.25903369028E+03  0.17201924092E+03 0.  0.
         24    2    3    3    0    0 -0.11941805345E+03  0.53686071893E+02  0.81513732181E+02  0.17333526732E+03  0.79106008346E+02 0.  0.
         -6    2    1    2    0  502  0.11454416043E+03 -0.11405202842E+02 -0.33251646969E+03  0.39208969642E+03  0.17296440119E+03 0.  0.
        -24    2    5    5    0    0  0.14065138325E+03  0.24904207143E+01 -0.20619866188E+03  0.26227076864E+03  0.80492571829E+02 0.  0.
          5    1    3    3  501    0  0.48738930247E+01 -0.42280869051E+02  0.74234109261E+02  0.85698422965E+02  0.47000000000E+01 0. -1.
        -11    1    4    4    0    0 -0.51409411884E+02 -0.17572846800E+02  0.32533735368E+02  0.63325954489E+02  0.00000000000E+00 0.  1.
         12    1    4    4    0    0 -0.68008641566E+02  0.71258918693E+02  0.48979996813E+02  0.11000931283E+03  0.00000000000E+00 0. -1.
         -5    1    5    5    0  502 -0.26107222819E+02 -0.13895623557E+02 -0.12631780781E+03  0.12981892777E+03  0.47000000000E+01 0.  1.
         13    1    6    6    0    0  0.14326530864E+02  0.21931494166E+02 -0.73503099477E+02  0.78031695840E+02  0.00000000000E+00 0. -1.
        -14    1    6    6    0    0  0.12632485238E+03 -0.19441073452E+02 -0.13269556240E+03  0.18423907280E+03  0.00000000000E+00 0.  1.
</event>
<event>
12    1  0.1050869E+000  0.1913802E+03  0.7818608E-02  0.1157257E+00
         21   -1    0    0  501  502  0.00000000000E+00  0.00000000000E+00  0.22236023167E+03  0.22236023167E+03  0.00000000000E+00 0. -1.
         21   -1    0    0  502  503 -0.00000000000E+00 -0.00000000000E+00 -0.16906264420E+03  0.16906264420E+03  0.00000000000E+00 0. -1.
         -6    2    1    2    0  503 -0.53562975616E+02  0.64927205534E+02  0.58522559281E+02  0.20012817475E+03  0.17187746218E+03 0.  0.
        -24    2    3    3    0    0 -0.10540690254E+01  0.84438123668E+02  0.79010792004E+02  0.14029742280E+03  0.79433958748E+02 0.  0.
          6    2    1    2  501    0  0.53562975616E+02 -0.64927205534E+02 -0.52249718058E+01  0.19129470113E+03  0.17170273141E+03 0.  0.
         24    2    5    5    0    0  0.28005243166E+02 -0.90465073312E+02  0.44621950167E+02  0.12955179863E+03  0.76317278234E+02 0.  0.
          5    1    5    5  501    0  0.25557732450E+02  0.25537867778E+02 -0.49846921973E+02  0.61742902497E+02  0.47000000000E+01 0. -1.
        -13    1    6    6    0    0  0.16310843051E+02 -0.40829505253E+00  0.34516323213E+02  0.38178356093E+02  0.00000000000E+00 0.  1.
         14    1    6    6    0    0  0.11694400115E+02 -0.90056778260E+02  0.10105626954E+02  0.91373442535E+02  0.00000000000E+00 0. -1.
         -5    1    3    3    0  503 -0.52508906590E+02 -0.19510918134E+02 -0.20488232723E+02  0.59830751941E+02  0.47000000000E+01 0.  1.
         13    1    4    4    0    0  0.32436398580E+02  0.52197559823E+02  0.69633648156E+02  0.92873840019E+02  0.00000000000E+00 0. -1.
        -14    1    4    4    0    0 -0.33490467605E+02  0.32240563845E+02  0.93771438481E+01  0.47423582786E+02  0.00000000000E+00 0.  1.
</event>
<event>
12    1  0.1050869E+000  0.3202756E+03  0.7818608E-02  0.1075523E+00
         21   -1    0    0  503  502  0.00000000000E+00  0.00000000000E+00  0.41320015379E+03  0.41320015379E+03  0.00000000000E+00 0.  1.
         21   -1    0    0  501  503 -0.00000000000E+00 -0.00000000000E+00 -0.26616011725E+03  0.26616011725E+03  0.00000000000E+00 0. -1.
          6    2    1    2  501    0 -0.26038587892E+03 -0.73026879389E+02  0.16164343300E+03  0.35875484152E+03  0.17158876952E+03 0.  0.
         24    2    3    3    0    0 -0.14698234302E+03  0.24116512231E+01  0.31777007637E+02  0.17050311565E+03  0.80323776120E+02 0.  0.
         -6    2    1    2    0  502  0.26038587892E+03  0.73026879389E+02 -0.14603396458E+02  0.32060542952E+03  0.17158336515E+03 0.  0.
        -24    2    5    5    0    0  0.13688757652E+03  0.51259269220E+02  0.57302709241E+02  0.17597404433E+03  0.79482969892E+02 0.  0.
          5    1    3    3  501    0 -0.11340353589E+03 -0.75438530612E+02  0.12986642536E+03  0.18825172586E+03  0.47000000000E+01 0. -1.
        -11    1    4    4    0    0 -0.88745485469E+02 -0.78499351654E+01  0.57479440436E+02  0.10602484966E+03  0.00000000000E+00 0.  1.
         12    1    4    4    0    0 -0.58236857554E+02  0.10261586389E+02 -0.25702432800E+02  0.64478265988E+02  0.00000000000E+00 0. -1.
         -5    1    5    5    0  502  0.12349830239E+03  0.21767610169E+02 -0.71906105699E+02  0.14463138519E+03  0.47000000000E+01 0. -1.
         11    1    6    6    0    0  0.32829066456E+02  0.18598106541E+02 -0.19605458037E+02  0.42520714436E+02  0.00000000000E+00 0. -1.
        -12    1    6    6    0    0  0.10405851007E+03  0.32661162679E+02  0.76908167278E+02  0.13345332989E+03  0.00000000000E+00 0.  1.
</event>
<event>
12    1  0.1050869E+000  0.1779705E+03  0.7818608E-02  0.1169895E+00
         21   -1    0    0  501  502  0.00000000000E+00  0.00000000000E+00  0.33742932132E+03  0.33742932132E+03  0.00000000000E+00 0. -1.
         21   -1    0    0  502  503 -0.00000000000E+00 -0.00000000000E+00 -0.36147128019E+03  0.36147128019E+03  0.00000000000E+00 0. -1.
         -6    2    1    2    0  503 -0.49333261483E+01 -0.43483460220E+02 -0.31282672451E+03  0.35968070108E+03  0.17203051515E+03 0.  0.
        -24    2    3    3    0    0 -0.50245204464E+02  0.24062621215E+02 -0.18360957669E+03  0.20692337483E+03  0.77467516333E+02 0.  0.
          6    2    1    2  501    0  0.49333261483E+01  0.43483460220E+02  0.28878476564E+03  0.33921990042E+03  0.17250608961E+03 0.  0.
         24    2    5    5    0    0 -0.59368614758E+02  0.23251262679E+02  0.22423520031E+03  0.24577035357E+03  0.77822798725E+02 0.  0.
          5    1    5    5  501    0  0.64301940906E+02  0.20232197540E+02  0.64549565329E+02  0.93449546846E+02  0.47000000000E+01 0. -1.
        -13    1    6    6    0    0 -0.52161502721E+02 -0.29198559914E+01  0.61090841612E+02  0.80383075669E+02  0.00000000000E+00 0.  1.
         14    1    6    6    0    0 -0.72071120364E+01  0.26171118671E+02  0.16314435870E+03  0.16538727790E+03  0.00000000000E+00 0. -1.
         -5    1    3    3    0  503  0.45311878316E+02 -0.67546081434E+02 -0.12921714782E+03  0.15275732625E+03  0.47000000000E+01 0.  1.
         11    1    4    4    0    0 -0.18133138843E+02  0.38717588986E+01  0.89154070709E+00  0.18563299440E+02  0.00000000000E+00 0. -1.
        -12    1    4    4    0    0 -0.32112065621E+02  0.20190862316E+02 -0.18450111740E+03  0.18836007539E+03  0.00000000000E+00 0.  1.
</event>
<event>
12    1  0.1050869E+000  0.4617384E+03  0.7818608E-02  0.1024291E+00
         21   -1    0    0  501  502  0.00000000000E+00  0.00000000000E+00  0.17084986883E+04  0.17084986883E+04  0.00000000000E+00 0. -1.
         21   -1    0    0  502  503 -0.00000000000E+00 -0.00000000000E+00 -0.17867915237E+03  0.17867915237E+03  0.00000000000E+00 0.  1.
         -6    2    1    2    0  503  0.15034275655E+02 -0.42724783629E+03  0.24638394420E+03  0.52320964916E+03  0.17400156884E+03 0.  0.
        -24    2    3    3    0    0  0.28788076374E+01 -0.80451812509E+02  0.80106244433E+02  0.13839072947E+03  0.79083512422E+02 0.  0.
          6    2    1    2  501    0 -0.15034275655E+02  0.42724783629E+03  0.12834355918E+04  0.13639681915E+04  0.17445792118E+03 0.  0.
         24    2    5    5    0    0  0.54513048412E+02  0.26507228929E+03  0.69315766876E+03  0.74786117590E+03  0.74791668408E+02 0.  0.
          5    1    5    5  501    0 -0.69547324067E+02  0.16217554700E+03  0.59027792302E+03  0.61610701565E+03  0.47000000000E+01 0. -1.
        -13    1    6    6    0    0  0.17170108910E+02  0.16287028566E+03  0.32457158519E+03  0.36354952415E+03  0.00000000000E+00 0.  1.
         14    1    6    6    0    0  0.37342939502E+02  0.10220200363E+03  0.36858608357E+03  0.38431165176E+03  0.00000000000E+00 0. -1.
         -5    1    3    3    0  503  0.12155468018E+02 -0.34679602378E+03  0.16627769976E+03  0.38481891969E+03  0.47000000000E+01 0.  1.
         11    1    4    4    0    0  0.31139800032E+02 -0.24506769805E+02  0.61226219814E+02  0.72930918717E+02  0.00000000000E+00 0. -1.
        -12    1    4    4    0    0 -0.28260992394E+02 -0.55945042705E+02  0.18880024620E+02  0.65459810754E+02  0.00000000000E+00 0.  1.
</event>
<event>
12    1  0.1050869E+000  0.1957178E+03  0.7818608E-02  0.1154217E+00
         21   -1    0    0  501  502  0.00000000000E+00  0.00000000000E+00  0.71645559681E+03  0.71645559681E+03  0.00000000000E+00 0. -1.
         21   -1    0    0  502  503 -0.00000000000E+00 -0.00000000000E+00 -0.90054715458E+02  0.90054715458E+02  0.00000000000E+00 0. -1.
         -6    2    1    2    0  503 -0.34300351425E+02 -0.84597713087E+02  0.57550813353E+03  0.60787752230E+03  0.17312476194E+03 0.  0.
        -24    2    3    3    0    0 -0.85660241432E+02 -0.83328428268E+02  0.43853080976E+03  0.46150701089E+03  0.79988412100E+02 0.  0.
          6    2    1    2  501    0  0.34300351425E+02  0.84597713087E+02  0.50892747820E+02  0.19863278996E+03  0.16891307320E+03 0.  0.
         24    2    5    5    0    0  0.53685996826E+02  0.96573271789E+02  0.77950760485E+02  0.16294745259E+03  0.90922869321E+02 0.  0.
          5    1    5    5  501    0 -0.19385645401E+02 -0.11975558702E+02 -0.27058012666E+02  0.35685337371E+02  0.47000000000E+01 0. -1.
        -11    1    6    6    0    0  0.14385732053E+02  0.10166205692E+03  0.48380152412E+02  0.11350225659E+03  0.00000000000E+00 0.  1.
         12    1    6    6    0    0  0.39300264773E+02 -0.50887851314E+01  0.29570608074E+02  0.49445195997E+02  0.00000000000E+00 0. -1.
         -5    1    3    3    0  503  0.51359890007E+02 -0.12692848191E+01  0.13697732376E+03  0.14637051141E+03  0.47000000000E+01 0.  1.
         13    1    4    4    0    0 -0.66936773156E+02 -0.83389620319E+02  0.42541095260E+03  0.43864431944E+03  0.00000000000E+00 0. -1.
        -14    1    4    4    0    0 -0.18723468276E+02  0.61192050436E-01  0.13119857160E+02  0.22862691457E+02  0.00000000000E+00 0.  1.
</event>
<event>
12    1  0.1050869E+000  0.1804640E+03  0.7818608E-02  0.1167561E+00
         21   -1    0    0  503  502  0.00000000000E+00  0.00000000000E+00  0.37783109268E+02  0.37783109268E+02  0.00000000000E+00 0. -1.
         21   -1    0    0  501  503 -0.00000000000E+00 -0.00000000000E+00 -0.86189142963E+03  0.86189142963E+03  0.00000000000E+00 0. -1.
          6    2    1    2  501    0 -0.36478333510E+02  0.38810467739E+02 -0.38232838050E+03  0.42277919747E+03  0.17242487654E+03 0.  0.
         24    2    3    3    0    0 -0.83386604814E+02  0.46523103840E+02 -0.32963017721E+03  0.35165211892E+03  0.76716582041E+02 0.  0.
         -6    2    1    2    0  502  0.36478333510E+02 -0.38810467739E+02 -0.44177993986E+03  0.47689534143E+03  0.17153055178E+03 0.  0.
        -24    2    5    5    0    0 -0.16623083286E+02  0.15288566184E+02 -0.35169196832E+03  0.35906326366E+03  0.68768594364E+02 0.  0.
          5    1    3    3  501    0  0.46908271304E+02 -0.77126361005E+01 -0.52698203291E+02  0.71127078545E+02  0.47000000000E+01 0. -1.
        -13    1    4    4    0    0 -0.33551596621E+02  0.43971108645E+02 -0.81120437874E+02  0.98181940662E+02  0.00000000000E+00 0.  1.
         14    1    4    4    0    0 -0.49835008193E+02  0.25519951942E+01 -0.24850973934E+03  0.25347017826E+03  0.00000000000E+00 0. -1.
         -5    1    5    5    0  502  0.53101416796E+02 -0.54099033923E+02 -0.90087971538E+02  0.11783207778E+03  0.47000000000E+01 0.  1.
         13    1    6    6    0    0 -0.31311852457E+02 -0.16400681757E+02 -0.21983681098E+03  0.22266036452E+03  0.00000000000E+00 0. -1.
        -14    1    6    6    0    0  0.14688769171E+02  0.31689247940E+02 -0.13185515734E+03  0.13640289913E+03  0.00000000000E+00 0.  1.
</event>
<event>
12    1  0.1050869E+000  0.1926169E+03  0.7818608E-02  0.1156172E+00
         21   -1    0    0  501  502  0.00000000000E+00  0.00000000000E+00  0.15225280520E+03  0.15225280520E+03  0.00000000000E+00 0. -1.
         21   -1    0    0  502  503 -0.00000000000E+00 -0.00000000000E+00 -0.24630001833E+03  0.24630001833E+03  0.00000000000E+00 0. -1.
         -6    2    1    2    0  503  0.17493075097E+02  0.85437485813E+02 -0.25369875620E+02  0.19405870366E+03  0.17149221037E+03 0.  0.
        -24    2    3    3    0    0  0.63110336358E+02  0.31607788397E+02 -0.51797280082E+02  0.11856652820E+03  0.79956841747E+02 0.  0.
          6    2    1    2  501    0 -0.17493075097E+02 -0.85437485813E+02 -0.68677337512E+02  0.20449411988E+03  0.17174311258E+03 0.  0.
         24    2    5    5    0    0  0.46789109174E+02  0.19466238374E+00 -0.36261184186E+02  0.92521082876E+02  0.71105686602E+02 0.  0.
          5    1    5    5  501    0 -0.64282184271E+02 -0.85632148197E+02 -0.32416153327E+02  0.11197303700E+03  0.47000000000E+01 0. -1.
        -13    1    6    6    0    0  0.38887630383E+02 -0.26631889020E+02 -0.42949423055E+02  0.63766435139E+02  0.00000000000E+00 0.  1.
         14    1    6    6    0    0  0.79014787910E+01  0.26826551404E+02  0.66882388688E+01  0.28754647737E+02  0.00000000000E+00 0. -1.
         -5    1    3    3    0  503 -0.45617261261E+02  0.53829697416E+02  0.26427404462E+02  0.75492175458E+02  0.47000000000E+01 0.  1.
         11    1    4    4    0    0 -0.15992252309E+02  0.21531686206E+02 -0.10930913754E+02  0.28962916294E+02  0.00000000000E+00 0. -1.
        -12    1    4    4    0    0  0.79102588666E+02  0.10076102191E+02 -0.40866366329E+02  0.89603611903E+02  0.00000000000E+00 0.  1.
</event>
<event>
12    1  0.1169914E+000  0.2055928E+03  0.7818608E-02  0.1145434E+00
         21   -1    0    0  503  502  0.00000000000E+00  0.00000000000E+00  0.15657226726E+04  0.15657226726E+04  0.00000000000E+00 0.  1.
         21   -1    0    0  501  503 -0.00000000000E+00 -0.00000000000E+00 -0.94969364173E+02  0.94969364173E+02  0.00000000000E+00 0.  1.
          6    2    1    2  501    0  0.99313192167E+02  0.54007026876E+02  0.14397677719E+04  0.14543725883E+04  0.17172221574E+03 0.  0.
         24    2    3    3    0    0 -0.97839300933E+01  0.91072057437E+01  0.41619779768E+03  0.42401548602E+03  0.79936594240E+02 0.  0.
         -6    2    1    2    0  502 -0.99313192167E+02 -0.54007026876E+02  0.30985536526E+02  0.20631944852E+03  0.16978734426E+03 0.  0.
        -24    2    5    5    0    0 -0.12659817780E+03 -0.74686055685E+02  0.12185435598E+02  0.16697956458E+03  0.78285277090E+02 0.  0.
          5    1    3    3  501    0  0.10909712226E+03  0.44899821132E+02  0.10235699742E+04  0.10303571023E+04  0.47000000000E+01 0. -1.
        -11    1    4    4    0    0  0.46749799331E+01 -0.15284682490E+02  0.15332719876E+02  0.22148798048E+02  0.00000000000E+00 0.  1.
         12    1    4    4    0    0 -0.14458910026E+02  0.24391888234E+02  0.40086507781E+03  0.40186668797E+03  0.00000000000E+00 0. -1.
         -5    1    5    5    0  502  0.27284985634E+02  0.20679028809E+02  0.18800100928E+02  0.39339883940E+02  0.47000000000E+01 0.  1.
         13    1    6    6    0    0 -0.63134492881E+02 -0.60699234714E+02 -0.26309832392E+02  0.91447080690E+02  0.00000000000E+00 0. -1.
        -14    1    6    6    0    0 -0.63463684919E+02 -0.13986820971E+02  0.38495267990E+02  0.75532483887E+02  0.00000000000E+00 0.  1.
</event>
<event>
12    1  0.1050869E+000  0.2977777E+03  0.7818608E-02  0.1086366E+00
         21   -1    0    0  503  502  0.00000000000E+00  0.00000000000E+00  0.29101015005E+03  0.29101015005E+03  0.00000000000E+00 0. -1.
         21   -1    0    0  501  503 -0.00000000000E+00 -0.00000000000E+00 -0.33724394981E+03  0.33724394981E+03  0.00000000000E+00 0. -1.
          6    2    1    2  501    0  0.23790203992E+03 -0.49035652310E+02  0.74571351057E+02  0.30690470776E+03  0.17212709679E+03 0.  0.
         24    2    3    3    0    0  0.25240440384E+03 -0.38768619423E+02  0.90412973988E+02  0.28263996912E+03  0.80621692795E+02 0.  0.
         -6    2    1    2    0  502 -0.23790203992E+03  0.49035652310E+02 -0.12080515082E+03  0.32134939210E+03  0.17224886515E+03 0.  0.
        -24    2    5    5    0    0 -0.11046105023E+03  0.81360481547E+02 -0.94973614491E+02  0.18727680465E+03  0.85037888811E+02 0.  0.
          5    1    3    3  501    0 -0.14502363928E+02 -0.10267032886E+02 -0.15841622931E+02  0.24264738632E+02  0.47000000000E+01 0. -1.
        -11    1    4    4    0    0  0.21954705756E+03 -0.51977911830E+02  0.54294707114E+02  0.23205716758E+03  0.00000000000E+00 0.  1.
         12    1    4    4    0    0  0.32857346282E+02  0.13209292406E+02  0.36118266873E+02  0.50582801548E+02  0.00000000000E+00 0. -1.
         -5    1    5    5    0  502 -0.12744098968E+03 -0.32324829237E+02 -0.25831536328E+02  0.13407258745E+03  0.47000000000E+01 0.  1.
         11    1    6    6    0    0 -0.74386876352E+02  0.35031530764E+02 -0.83745545800E+01  0.82648343514E+02  0.00000000000E+00 0. -1.
        -12    1    6    6    0    0 -0.36074173881E+02  0.46328950783E+02 -0.86599059911E+02  0.10462846113E+03  0.00000000000E+00 0.  1.
</event>
<event>
12    1  0.1050869E+000  0.1861395E+03  0.7818608E-02  0.1163234E+00
         21   -1    0    0  501  502  0.00000000000E+00  0.00000000000E+00  0.10347169127E+03  0.10347169127E+03  0.00000000000E+00 0.  1.
         21   -1    0    0  502  503 -0.00000000000E+00 -0.00000000000E+00 -0.61655076905E+03  0.61655076905E+03  0.00000000000E+00 0.  1.
         -6    2    1    2    0  503 -0.51561692176E+02  0.17586964218E+02 -0.11112439124E+02  0.18647087834E+03  0.17798874334E+03 0.  0.
        -24    2    3    3    0    0 -0.34291788515E+02 -0.37616620091E+02 -0.58913502914E+02  0.11128632545E+03  0.79516718623E+02 0.  0.
          6    2    1    2  501    0  0.51561692176E+02 -0.17586964218E+02 -0.50196663865E+03  0.53355158198E+03  0.17244963005E+03 0.  0.
         24    2    5    5    0    0 -0.62280149237E+01 -0.48436458138E+02 -0.15335244779E+03  0.17880479117E+03  0.77905721576E+02 0.  0.
          5    1    5    5  501    0  0.57789707100E+02  0.30849493919E+02 -0.34861419086E+03  0.35474679081E+03  0.47000000000E+01 0. -1.
        -11    1    6    6    0    0 -0.25525751347E+02 -0.74771287792E+00 -0.11680353480E+02  0.28081198582E+02  0.00000000000E+00 0.  1.
         12    1    6    6    0    0  0.19297736423E+02 -0.47688745260E+02 -0.14167209431E+03  0.15072359259E+03  0.00000000000E+00 0. -1.
         -5    1    3    3    0  503 -0.17269903661E+02  0.55203584309E+02  0.47801063790E+02  0.75184552885E+02  0.47000000000E+01 0.  1.
         13    1    4    4    0    0 -0.33848043069E+02 -0.20202442280E+02  0.96183939256E+01  0.40575142580E+02  0.00000000000E+00 0. -1.
        -14    1    4    4    0    0 -0.44374544580E+00 -0.17414177811E+02 -0.68531896839E+02  0.70711182873E+02  0.00000000000E+00 0.  1.
</event>
<event>
12    1  0.1050869E+000  0.1863734E+03  0.7818608E-02  0.1162041E+00
         21   -1    0    0  501  502  0.00000000000E+00  0.00000000000E+00  0.15382022257E+03  0.15382022257E+03  0.00000000000E+00 0.  1.
         21   -1    0    0  502  503 -0.00000000000E+00 -0.00000000000E+00 -0.26531323614E+03  0.26531323614E+03  0.00000000000E+00 0.  1.
         -6    2    1    2    0  503 -0.36504958464E+02 -0.60065559463E+02 -0.13816411557E+03  0.23200075329E+03  0.17261095930E+03 0.  0.
        -24    2    3    3    0    0 -0.43568385751E+02 -0.93279819382E+02 -0.57865909709E+02  0.14469112649E+03  0.83592641055E+02 0.  0.
          6    2    1    2  501    0  0.36504958464E+02  0.60065559463E+02  0.26671102003E+02  0.18713270543E+03  0.17136749497E+03 0.  0.
         24    2    5    5    0    0  0.52927171976E+02  0.51174777422E+02 -0.41595711967E+02  0.11620187298E+03  0.79702751847E+02 0.  0.
          5    1    5    5  501    0 -0.16422213512E+02  0.88907820411E+01  0.68266813970E+02  0.70930832447E+02  0.47000000000E+01 0. -1.
        -11    1    6    6    0    0  0.65015828552E+01 -0.18175636518E+02  0.58906101090E+01  0.20182260277E+02  0.00000000000E+00 0.  1.
         12    1    6    6    0    0  0.46425589121E+02  0.69350413940E+02 -0.47486322076E+02  0.96019612701E+02  0.00000000000E+00 0. -1.
         -5    1    3    3    0  503  0.70634272867E+01  0.33214259919E+02 -0.80298205858E+02  0.87309626795E+02  0.47000000000E+01 0.  1.
         13    1    4    4    0    0 -0.43892996451E+02 -0.84059244214E+02 -0.77842644555E+02  0.12268671072E+03  0.00000000000E+00 0. -1.
        -14    1    4    4    0    0  0.32461070052E+00 -0.92205751679E+01  0.19976734846E+02  0.22004415776E+02  0.00000000000E+00 0.  1.
</event>
<event>
12    1  0.1050869E+000  0.5429253E+03  0.7818608E-02  0.1003156E+00
         21   -1    0    0  503  502  0.00000000000E+00  0.00000000000E+00  0.88805461290E+03  0.88805461290E+03  0.00000000000E+00 0.  1.
         21   -1    0    0  501  503 -0.00000000000E+00 -0.00000000000E+00 -0.35524421254E+03  0.35524421254E+03  0.00000000000E+00 0.  1.
          6    2    1    2  501    0 -0.46864659367E+03  0.21205768227E+03  0.10669801671E+03  0.55312518586E+03  0.17310376683E+03 0.  0.
         24    2    3    3    0    0 -0.22833837584E+03  0.37028829900E+02  0.64366941433E+02  0.25279678452E+03  0.79079472600E+02 0.  0.
         -6    2    1    2    0  502  0.46864659367E+03 -0.21205768227E+03  0.42611238365E+03  0.69017363958E+03  0.17369455633E+03 0.  0.
        -24    2    5    5    0    0  0.20237624605E+03 -0.59868270336E+02  0.24681017027E+03  0.33488095903E+03  0.81790230561E+02 0.  0.
          5    1    3    3  501    0 -0.24030821783E+03  0.17502885237E+03  0.42331075278E+02  0.30032840134E+03  0.47000000000E+01 0. -1.
        -11    1    4    4    0    0 -0.22903218512E+03  0.22761849708E+02  0.59830283669E+02  0.23780981155E+03  0.00000000000E+00 0.  1.
         12    1    4    4    0    0  0.69380928104E+00  0.14266980192E+02  0.45366577646E+01  0.14986972970E+02  0.00000000000E+00 0. -1.
         -5    1    5    5    0  502  0.26627034762E+03 -0.15218941193E+03  0.17930221338E+03  0.35529268055E+03  0.47000000000E+01 0.  1.
         11    1    6    6    0    0  0.18053339785E+03 -0.63607321785E+02  0.17366518193E+03  0.25845269304E+03  0.00000000000E+00 0. -1.
        -12    1    6    6    0    0  0.21842848198E+02  0.37390514492E+01  0.73144988343E+02  0.76428265994E+02  0.00000000000E+00 0.  1.
</event>
<event>
12    1  0.1050869E+000  0.3796802E+03  0.7818608E-02  0.1051096E+00
         21   -1    0    0  503  502  0.00000000000E+00  0.00000000000E+00  0.25225207196E+03  0.25225207196E+03  0.00000000000E+00 0. -1.
         21   -1    0    0  501  503 -0.00000000000E+00 -0.00000000000E+00 -0.74972312035E+03  0.74972312035E+03  0.00000000000E+00 0.  1.
          6    2    1    2  501    0 -0.31840895709E+03  0.11366642916E+03 -0.49338220296E+03  0.62227294597E+03  0.17173613485E+03 0.  0.
         24    2    3    3    0    0 -0.14816594351E+03  0.98395781989E+02 -0.18092802596E+03  0.26609099940E+03  0.80215912723E+02 0.  0.
         -6    2    1    2    0  502  0.31840895709E+03 -0.11366642916E+03 -0.40888454255E+01  0.37970224634E+03  0.17277950153E+03 0.  0.
        -24    2    5    5    0    0  0.73270147768E+02 -0.66882876747E+02 -0.22852227582E+02  0.12939065827E+03  0.79861657804E+02 0.  0.
          5    1    3    3  501    0 -0.17024301357E+03  0.15270647172E+02 -0.31245417700E+03  0.35618194657E+03  0.47000000000E+01 0. -1.
        -11    1    4    4    0    0  0.81784019567E+01  0.89214294916E+01 -0.21389123549E+01  0.12290366504E+02  0.00000000000E+00 0.  1.
         12    1    4    4    0    0 -0.15634434547E+03  0.89474352497E+02 -0.17878911360E+03  0.25380063290E+03  0.00000000000E+00 0. -1.
         -5    1    5    5    0  502  0.24513880932E+03 -0.46783552414E+02  0.18763382157E+02  0.25031158807E+03  0.47000000000E+01 0.  1.
         13    1    6    6    0    0  0.18062157646E+02 -0.19262896623E+02  0.29531033709E+02  0.39615434834E+02  0.00000000000E+00 0. -1.
        -14    1    6    6    0    0  0.55207990122E+02 -0.47619980124E+02 -0.52383261291E+02  0.89775223440E+02  0.00000000000E+00 0.  1.
</event>
<event>
12    1  0.1050869E+000  0.2939008E+03  0.7818608E-02  0.1088513E+00
         21   -1    0    0  501  502  0.00000000000E+00  0.00000000000E+00  0.10529107463E+03  0.10529107463E+03  0.00000000000E+00 0. -1.
         21   -1    0    0  502  503 -0.00000000000E+00 -0.00000000000E+00 -0.83932693394E+03  0.83932693394E+03  0.00000000000E+00 0. -1.
         -6    2    1    2    0  503  0.22985730828E+03  0.57588405887E+02 -0.28982811056E+03  0.41276871261E+03  0.17385876387E+03 0.  0.
        -24    2    3    3    0    0  0.20502407602E+03  0.80995355038E+02 -0.29635276518E+03  0.37770825324E+03  0.79015465920E+02 0.  0.
          6    2    1    2  501    0 -0.22985730828E+03 -0.57588405887E+02 -0.44420774876E+03  0.53184929597E+03  0.17144195200E+03 0.  0.
         24    2    5    5    0    0 -0.18111399118E+03  0.22006409581E+02 -0.29740217119E+03  0.35782282322E+03  0.79388673796E+02 0.  0.
          5    1    5    5  501    0 -0.48743317098E+02 -0.79594815469E+02 -0.14680557757E+03  0.17402647274E+03  0.47000000000E+01 0. -1.
        -13    1    6    6    0    0 -0.73649534750E+02  0.22316541411E+02 -0.61205559043E+02  0.98328034900E+02  0.00000000000E+00 0.  1.
         14    1    6    6    0    0 -0.10746445643E+03 -0.31013182963E+00 -0.23619661215E+03  0.25949478832E+03  0.00000000000E+00 0. -1.
         -5    1    3    3    0  503  0.24833232262E+02 -0.23406949151E+02  0.65246546176E+01  0.35060459367E+02  0.47000000000E+01 0.  1.
         13    1    4    4    0    0  0.74795863371E+02  0.66973400709E+02 -0.15790823205E+03  0.18712259973E+03  0.00000000000E+00 0. -1.
        -14    1    4    4    0    0  0.13022821265E+03  0.14021954329E+02 -0.13844453312E+03  0.19058565351E+03  0.00000000000E+00 0.  1.
</event>
<event>
12    1  0.1050869E+000  0.1851069E+03  0.7818608E-02  0.1163875E+00
         21   -1    0    0  503  502  0.00000000000E+00  0.00000000000E+00  0.19439805957E+03  0.19439805957E+03  0.00000000000E+00 0.  1.
         21   -1    0    0  501  503 -0.00000000000E+00 -0.00000000000E+00 -0.18275553547E+03  0.18275553547E+03  0.00000000000E+00 0.  1.
          6    2    1    2  501    0 -0.60233469622E+01  0.66747632783E+02 -0.38806572871E+02  0.18529507157E+03  0.16833533871E+03 0.  0.
         24    2    3    3    0    0 -0.99107847661E+00 -0.13727799351E+02 -0.60538437608E+02  0.10165307943E+03  0.80492306577E+02 0.  0.
         -6    2    1    2    0  502  0.60233469622E+01 -0.66747632783E+02  0.50449096969E+02  0.19185852347E+03  0.17254870169E+03 0.  0.
        -24    2    5    5    0    0 -0.35812285554E+02 -0.27614512933E+02 -0.24571564808E+02  0.97350265048E+02  0.82633111927E+02 0.  0.
          5    1    3    3  501    0 -0.50322684856E+01  0.80475432134E+02  0.21731864738E+02  0.83641992134E+02  0.47000000000E+01 0. -1.
        -13    1    4    4    0    0 -0.36429612507E+02 -0.25132121343E+02 -0.36178539771E+02  0.57163160607E+02  0.00000000000E+00 0.  1.
         14    1    4    4    0    0  0.35438534030E+02  0.11404321992E+02 -0.24359897837E+02  0.44489918824E+02  0.00000000000E+00 0. -1.
         -5    1    5    5    0  502  0.41835632516E+02 -0.39133119850E+02  0.75020661777E+02  0.94508258425E+02  0.47000000000E+01 0.  1.
         13    1    6    6    0    0 -0.36628028684E+02 -0.48023314957E+02  0.58800939284E+01  0.60683002310E+02  0.00000000000E+00 0. -1.
        -14    1    6    6    0    0  0.81574313030E+00  0.20408802024E+02 -0.30451658736E+02  0.36667262738E+02  0.00000000000E+00 0.  1.
</event>
<event>
12    1  0.1050869E+000  0.2025064E+03  0.7818608E-02  0.1147764E+00
         21   -1    0    0  503  502  0.00000000000E+00  0.00000000000E+00  0.66321411290E+02  0.66321411290E+02  0.00000000000E+00 0. -1.
         21   -1    0    0  501  503 -0.00000000000E+00 -0.00000000000E+00 -0.71566656020E+03  0.71566656020E+03  0.00000000000E+00 0. -1.
          6    2    1    2  501    0 -0.87346586627E+02  0.56987220322E+02 -0.17956269225E+03  0.27065036422E+03  0.17358539606E+03 0.  0.
         24    2    3    3    0    0 -0.88312228343E+02  0.37475588509E+02 -0.40276891266E+02  0.12992275286E+03  0.77808896230E+02 0.  0.
         -6    2    1    2    0  502  0.87346586627E+02 -0.56987220322E+02 -0.46978245666E+03  0.51133760727E+03  0.17289772282E+03 0.  0.
        -24    2    5    5    0    0  0.68483670825E+02 -0.95778401112E+02 -0.42609571706E+03  0.44976499554E+03  0.82870234854E+02 0.  0.
          5    1    3    3  501    0  0.96564171622E+00  0.19511631813E+02 -0.13928580099E+03  0.14072761135E+03  0.47000000000E+01 0. -1.
        -13    1    4    4    0    0 -0.82400270256E+02  0.36206073095E+02 -0.60742001460E+02  0.10858303278E+03  0.00000000000E+00 0.  1.
         14    1    4    4    0    0 -0.59119580872E+01  0.12695154143E+01  0.20465110194E+02  0.21339720079E+02  0.00000000000E+00 0. -1.
         -5    1    5    5    0  502  0.18862915802E+02  0.38791180789E+02 -0.43686739596E+02  0.61572611737E+02  0.47000000000E+01 0.  1.
         13    1    6    6    0    0  0.90477943508E+01  0.13401848377E+02 -0.24378369851E+02  0.29253667106E+02  0.00000000000E+00 0. -1.
        -14    1    6    6    0    0  0.59435876474E+02 -0.10918024949E+03 -0.40171734721E+03  0.42051132843E+03  0.00000000000E+00 0.  1.
</event>
<event>
12    1  0.1050869E+000  0.1769891E+03  0.7818608E-02  0.1170984E+00
         21   -1    0    0  503  502  0.00000000000E+00  0.00000000000E+00  0.70988635594E+03  0.70988635594E+03  0.00000000000E+00 0. -1.
         21   -1    0    0  501  503 -0.00000000000E+00 -0.00000000000E+00 -0.46635745532E+02  0.46635745532E+02  0.00000000000E+00 0. -1.
          6    2    1    2  501    0  0.29297095670E+02 -0.22102116120E+02  0.23901803906E+03  0.29685003226E+03  0.17217286460E+03 0.  0.
         24    2    3    3    0    0  0.62034053367E+02 -0.61292592443E+02  0.12376024973E+03  0.17069913122E+03  0.78845344302E+02 0.  0.
         -6    2    1    2    0  502 -0.29297095670E+02  0.22102116120E+02  0.42423257135E+03  0.45967206922E+03  0.17314246524E+03 0.  0.
        -24    2    5    5    0    0 -0.26574760478E+02  0.44054147209E+02  0.11508420242E+03  0.14969770448E+03  0.80734399734E+02 0.  0.
          5    1    3    3  501    0 -0.32736957697E+02  0.39190476323E+02  0.11525778933E+03  0.12615090104E+03  0.47000000000E+01 0. -1.
        -11    1    4    4    0    0  0.23002906807E+02 -0.36485092743E+02  0.52066485209E+01  0.43444273534E+02  0.00000000000E+00 0.  1.
         12    1    4    4    0    0  0.39031146559E+02 -0.24807499700E+02  0.11855360121E+03  0.12725485768E+03  0.00000000000E+00 0. -1.
         -5    1    5    5    0  502 -0.27223351915E+01 -0.21952031089E+02  0.30914836894E+03  0.30997436474E+03  0.47000000000E+01 0.  1.
         11    1    6    6    0    0  0.22690689890E+02  0.36478444009E+02  0.35202633612E+02  0.55540703076E+02  0.00000000000E+00 0. -1.
        -12    1    6    6    0    0 -0.49265450368E+02  0.75757032001E+01  0.79881568805E+02  0.94157001406E+02  0.00000000000E+00 0.  1.
</event>
<event>
12    1  0.1050869E+000  0.2770335E+03  0.7818608E-02  0.1097936E+00
         21   -1    0    0  501  502  0.00000000000E+00  0.00000000000E+00  0.24758208749E+03  0.24758208749E+03  0.00000000000E+00 0.  1.
         21   -1    0    0  502  503 -0.00000000000E+00 -0.00000000000E+00 -0.33531535191E+03  0.33531535191E+03  0.00000000000E+00 0.  1.
         -6    2    1    2    0  503 -0.12862491640E+03 -0.17076707503E+03 -0.13171534280E+03  0.30675146989E+03  0.17618674672E+03 0.  0.
        -24    2    3    3    0    0 -0.59762114337E+02 -0.75848169039E+02 -0.14016167940E+03  0.18908620389E+03  0.82364076344E+02 0.  0.
          6    2    1    2  501    0  0.12862491640E+03  0.17076707503E+03  0.43982078383E+02  0.27614596951E+03  0.16916385614E+03 0.  0.
         24    2    5    5    0    0  0.25353274778E+02  0.25865842894E+02  0.43600594827E+02  0.98146996006E+02  0.80124843746E+02 0.  0.
          5    1    5    5  501    0  0.10327164163E+03  0.14490123213E+03  0.38148355668E+00  0.17799897350E+03  0.47000000000E+01 0. -1.
        -13    1    6    6    0    0  0.21719966275E+02 -0.16873529885E+02 -0.10205149254E+02  0.29336291808E+02  0.00000000000E+00 0.  1.
         14    1    6    6    0    0  0.36333085036E+01  0.42739372779E+02  0.53805744080E+02  0.68810704198E+02  0.00000000000E+00 0. -1.
         -5    1    3    3    0  503 -0.68862802067E+02 -0.94918905986E+02  0.84463365999E+01  0.11766526601E+03  0.47000000000E+01 0.  1.
         11    1    4    4    0    0 -0.47917218963E+02 -0.91187598309E+02 -0.95787485836E+02  0.14066442479E+03  0.00000000000E+00 0. -1.
        -12    1    4    4    0    0 -0.11844895374E+02  0.15339429269E+02 -0.44374193562E+02  0.48421779098E+02  0.00000000000E+00 0.  1.
</event>
<event>
12    1  0.1050869E+000  0.3637666E+03  0.7818608E-02  0.1057131E+00
         21   -1    0    0  503  502  0.00000000000E+00  0.00000000000E+00  0.72795759295E+03  0.72795759295E+03  0.00000000000E+00 0.  1.
         21   -1    0    0  501  503 -0.00000000000E+00 -0.00000000000E+00 -0.21908608290E+03  0.21908608290E+03  0.00000000000E+00 0.  1.
          6    2    1    2  501    0  0.31178016782E+02  0.31880533909E+03  0.45030839931E+03  0.57888148040E+03  0.17238677704E+03 0.  0.
         24    2    3    3    0    0 -0.50505138321E+02  0.19335624016E+03  0.24536357846E+03  0.32504278389E+03  0.74243660479E+02 0.  0.
         -6    2    1    2    0  502 -0.31178016782E+02 -0.31880533909E+03  0.58563110749E+02  0.36816219545E+03  0.17176976235E+03 0.  0.
        -24    2    5    5    0    0 -0.50083023260E+02 -0.32684786987E+03  0.44806304032E+02  0.34299433296E+03  0.79370449828E+02 0.  0.
          5    1    3    3  501    0  0.81683155103E+02  0.12544909893E+03  0.20494482085E+03  0.25383869650E+03  0.47000000000E+01 0. -1.
        -13    1    4    4    0    0 -0.83220741171E+01  0.87640007713E+02  0.56730917983E+02  0.10473024838E+03  0.00000000000E+00 0.  1.
         14    1    4    4    0    0 -0.42183064204E+02  0.10571623245E+03  0.18863266047E+03  0.22031253552E+03  0.00000000000E+00 0. -1.
         -5    1    5    5    0  502  0.18905006479E+02  0.80425307788E+01  0.13756806717E+02  0.25167862491E+02  0.47000000000E+01 0.  1.
         11    1    6    6    0    0 -0.28928566469E+02 -0.17357017283E+03  0.63645921572E+02  0.18712100413E+03  0.00000000000E+00 0. -1.
        -12    1    6    6    0    0 -0.21154456791E+02 -0.15327769704E+03 -0.18839617539E+02  0.15587332883E+03  0.00000000000E+00 0.  1.
</event>
<event>
12    1  0.1050869E+000  0.2113695E+03  0.7818608E-02  0.1140605E+00
         21   -1    0    0  501  502  0.00000000000E+00  0.00000000000E+00  0.13769511192E+03  0.13769511192E+03  0.00000000000E+00 0.  1.
         21   -1    0    0  502  503 -0.00000000000E+00 -0.00000000000E+00 -0.36602220926E+03  0.36602220926E+03  0.00000000000E+00 0. -1.
         -6    2    1    2    0  503 -0.63173672936E+02 -0.10526734700E+03 -0.28497999542E+02  0.21328195980E+03  0.17206083546E+03 0.  0.
        -24    2    3    3    0    0 -0.72129813358E+01 -0.12610734908E+03 -0.33192457391E+02  0.15319841275E+03  0.80080733320E+02 0.  0.
          6    2    1    2  501    0  0.63173672936E+02  0.10526734700E+03 -0.19982909779E+03  0.29043536139E+03  0.17131521685E+03 0.  0.
         24    2    5    5    0    0  0.10332874364E+03  0.92266826581E+02 -0.18460428181E+03  0.24532074894E+03  0.83147654488E+02 0.  0.
          5    1    5    5  501    0 -0.40155070709E+02  0.13000520414E+02 -0.15224815982E+02  0.45114612448E+02  0.47000000000E+01 0. -1.
        -13    1    6    6    0    0  0.99655539664E+02  0.49545554879E+02 -0.96364918946E+02  0.14721476216E+03  0.00000000000E+00 0.  1.
         14    1    6    6    0    0  0.36732039800E+01  0.42721271702E+02 -0.88239362866E+02  0.98105986781E+02  0.00000000000E+00 0. -1.
         -5    1    3    3    0  503 -0.55960691600E+02  0.20840002085E+02  0.46944578493E+01  0.60083547047E+02  0.47000000000E+01 0.  1.
         13    1    4    4    0    0 -0.22544032393E+01  0.79672794316E+01 -0.15894101868E+02  0.17921561029E+02  0.00000000000E+00 0. -1.
        -14    1    4    4    0    0 -0.49585780964E+01 -0.13407462851E+03 -0.17298355523E+02  0.13527685172E+03  0.00000000000E+00 0.  1.
</event>
<event>
12    1  0.1050869E+000  0.2064029E+03  0.7818608E-02  0.1144810E+00
         21   -1    0    0  501  502  0.00000000000E+00  0.00000000000E+00  0.13832199670E+03  0.13832199670E+03  0.00000000000E+00 0. -1.
         21   -1    0    0  502  503 -0.00000000000E+00 -0.00000000000E+00 -0.31013903205E+03  0.31013903205E+03  0.00000000000E+00 0. -1.
         -6    2    1    2    0  503  0.95400214826E+02  0.61923315482E+02 -0.11419066346E+03  0.23588483395E+03  0.17223951137E+03 0.  0.
        -24    2    3    3    0    0  0.81971685510E+02  0.53876271219E+02 -0.56548392456E+01  0.12612511703E+03  0.79079441780E+02 0.  0.
          6    2    1    2  501    0 -0.95400214826E+02 -0.61923315482E+02 -0.57626371894E+02  0.21257619480E+03  0.17009450864E+03 0.  0.
         24    2    5    5    0    0 -0.70651264437E+02 -0.10510306450E+03 -0.60997206771E+02  0.16247176587E+03  0.81474904959E+02 0.  0.
          5    1    5    5  501    0 -0.24748950389E+02  0.43179749016E+02  0.33708348777E+01  0.50104428928E+02  0.47000000000E+01 0. -1.
        -13    1    6    6    0    0 -0.67040779310E+02 -0.56979022356E+02 -0.71154752152E+02  0.11315508753E+03  0.00000000000E+00 0.  1.
         14    1    6    6    0    0 -0.36104851272E+01 -0.48124042142E+02  0.10157545380E+02  0.49316678346E+02  0.00000000000E+00 0. -1.
         -5    1    3    3    0  503  0.13428529316E+02  0.80470442638E+01 -0.10853582421E+03  0.10975971692E+03  0.47000000000E+01 0.  1.
         11    1    4    4    0    0  0.95123329598E+02  0.53139941162E+02 -0.14981589307E+02  0.10998522264E+03  0.00000000000E+00 0. -1.
        -12    1    4    4    0    0 -0.13151644088E+02  0.73633005612E+00  0.93267500611E+01  0.16139894388E+02  0.00000000000E+00 0.  1.
</event>
<event>
12    1  0.1050869E+000  0.2146125E+03  0.7818608E-02  0.1138282E+00
         21   -1    0    0  503  502  0.00000000000E+00  0.00000000000E+00  0.13775950321E+04  0.13775950321E+04  0.00000000000E+00 0. -1.
         21   -1    0    0  501  503 -0.00000000000E+00 -0.00000000000E+00 -0.35348503336E+02  0.35348503336E+02  0.00000000000E+00 0. -1.
          6    2    1    2  501    0  0.11689882076E+03 -0.51503368369E+02  0.84858014354E+03  0.87529810290E+03  0.17245456702E+03 0.  0.
         24    2    3    3    0    0  0.10345565088E+02 -0.38085943988E+02  0.57187784862E+03  0.57844818529E+03  0.77462632788E+02 0.  0.
         -6    2    1    2    0  502 -0.11689882076E+03  0.51503368369E+02  0.49366638519E+03  0.53764543250E+03  0.17040592705E+03 0.  0.
        -24    2    5    5    0    0 -0.93143357318E+02  0.26097860972E+02  0.48565781293E+03  0.50164558418E+03  0.80174793473E+02 0.  0.
          5    1    3    3  501    0  0.10655325567E+03 -0.13417424381E+02  0.27670229492E+03  0.29684991761E+03  0.47000000000E+01 0. -1.
        -13    1    4    4    0    0  0.38106935041E+02 -0.24985612571E+02  0.46563957895E+03  0.46786390844E+03  0.00000000000E+00 0.  1.
         14    1    4    4    0    0 -0.27761369953E+02 -0.13100331417E+02  0.10623826967E+03  0.11058427686E+03  0.00000000000E+00 0. -1.
         -5    1    5    5    0  502 -0.23755463444E+02  0.25405507397E+02  0.80085722632E+01  0.35999848322E+02  0.47000000000E+01 0.  1.
         13    1    6    6    0    0 -0.98965920593E+01 -0.12921099314E+02  0.21860932460E+03  0.21921435661E+03  0.00000000000E+00 0. -1.
        -14    1    6    6    0    0 -0.83246765259E+02  0.39018960285E+02  0.26704848833E+03  0.28243122757E+03  0.00000000000E+00 0.  1.
</event>
<event>
12    1  0.1050869E+000  0.2140572E+03  0.7818608E-02  0.1138522E+00
         21   -1    0    0  503  502  0.00000000000E+00  0.00000000000E+00  0.21685021107E+03  0.21685021107E+03  0.00000000000E+00 0.  1.
         21   -1    0    0  501  503 -0.00000000000E+00 -0.00000000000E+00 -0.24304953631E+03  0.24304953631E+03  0.00000000000E+00 0.  1.
          6    2    1    2  501    0  0.12420118037E+03 -0.30129990431E+02 -0.97086773731E+02  0.23504541429E+03  0.17171708016E+03 0.  0.
         24    2    3    3    0    0 -0.24228757099E+01 -0.13919517528E+02 -0.80025141073E+01  0.79306766798E+02  0.77626668955E+02 0.  0.
         -6    2    1    2    0  502 -0.12420118037E+03  0.30129990431E+02  0.70887448495E+02  0.22485433309E+03  0.17088209743E+03 0.  0.
        -24    2    5    5    0    0 -0.11456491221E+03  0.50641656605E+01 -0.97154346874E+01  0.13976574388E+03  0.79305161296E+02 0.  0.
          5    1    3    3  501    0  0.12662405608E+03 -0.16210472904E+02 -0.89084259624E+02  0.15573864750E+03  0.47000000000E+01 0. -1.
        -13    1    4    4    0    0 -0.21191473656E+02  0.11020922933E+01 -0.36379396572E+02  0.42115954911E+02  0.00000000000E+00 0.  1.
         14    1    4    4    0    0  0.18768597946E+02 -0.15021609821E+02  0.28376882464E+02  0.37190811888E+02  0.00000000000E+00 0. -1.
         -5    1    5    5    0  502 -0.96362681654E+01  0.25065824771E+02  0.80602883183E+02  0.85088589205E+02  0.47000000000E+01 0.  1.
         13    1    6    6    0    0  0.99901947143E+01  0.10644528441E+02  0.95787882618E+00  0.14629679012E+02  0.00000000000E+00 0. -1.
        -14    1    6    6    0    0 -0.12455510692E+03 -0.55803627806E+01 -0.10673313514E+02  0.12513606487E+03  0.00000000000E+00 0.  1.
</event>
<event>
12    1  0.1050869E+000  0.1954209E+03  0.7818608E-02  0.1153752E+00
         21   -1    0    0  503  502  0.00000000000E+00  0.00000000000E+00  0.15083841658E+03  0.15083841658E+03  0.00000000000E+00 0.  1.
         21   -1    0    0  501  503 -0.00000000000E+00 -0.00000000000E+00 -0.25682375687E+03  0.25682375687E+03  0.00000000000E+00 0.  1.
          6    2    1    2  501    0 -0.92046715193E+02 -0.13993669518E+02 -0.78958565289E+02  0.21038121668E+03  0.17133995662E+03 0.  0.
         24    2    3    3    0    0 -0.36973672012E+02 -0.25134356493E+02  0.19450309440E+02  0.96963618322E+02  0.83814321225E+02 0.  0.
         -6    2    1    2    0  502  0.92046715193E+02  0.13993669518E+02 -0.27026774997E+02  0.19728095678E+03  0.17181649739E+03 0.  0.
        -24    2    5    5    0    0  0.86928269373E+02  0.20758991271E+02 -0.78436836435E+02  0.14496410975E+03  0.82914390004E+02 0.  0.
          5    1    3    3  501    0 -0.55073043181E+02  0.11140686975E+02 -0.98408874729E+02  0.11341759836E+03  0.47000000000E+01 0. -1.
        -11    1    4    4    0    0 -0.25032939264E+02 -0.45941824336E+02 -0.15504507560E+02  0.54568205268E+02  0.00000000000E+00 0.  1.
         12    1    4    4    0    0 -0.11940732748E+02  0.20807467842E+02  0.34954817000E+02  0.42395413055E+02  0.00000000000E+00 0. -1.
         -5    1    5    5    0  502  0.51184458201E+01 -0.67653217525E+01  0.51410061438E+02  0.52316847030E+02  0.47000000000E+01 0.  1.
         11    1    6    6    0    0  0.35283387047E+02 -0.32320116404E+02 -0.31365521559E+02  0.57212789379E+02  0.00000000000E+00 0. -1.
        -12    1    6    6    0    0  0.51644882326E+02  0.53079107675E+02 -0.47071314876E+02  0.87751320367E+02  0.00000000000E+00 0.  1.
</event>
<event>
12    1  0.1050869E+000  0.1813548E+03  0.7818608E-02  0.1166641E+00
         21   -1    0    0  501  502  0.00000000000E+00  0.00000000000E+00  0.20345244868E+03  0.20345244868E+03  0.00000000000E+00 0.  1.
         21   -1    0    0  502  503 -0.00000000000E+00 -0.00000000000E+00 -0.16577845321E+03  0.16577845321E+03  0.00000000000E+00 0.  1.
         -6    2    1    2    0  503  0.57162766443E+02 -0.87811608162E+01  0.49726451920E+02  0.18747609978E+03  0.17125967802E+03 0.  0.
        -24    2    3    3    0    0  0.87603648252E+02 -0.37089241171E+02  0.31495813555E+01  0.12487027281E+03  0.80824836357E+02 0.  0.
          6    2    1    2  501    0 -0.57162766443E+02  0.87811608162E+01 -0.12052456450E+02  0.18175480210E+03  0.17188617085E+03 0.  0.
         24    2    5    5    0    0 -0.23901194711E+02 -0.60688756066E+02  0.29646678063E+01  0.10314179092E+03  0.79843894935E+02 0.  0.
          5    1    5    5  501    0 -0.33261571732E+02  0.69469916882E+02 -0.15017124256E+02  0.78613011179E+02  0.47000000000E+01 0. -1.
        -11    1    6    6    0    0  0.16827437261E+02 -0.48078856455E+02 -0.19988379090E+02  0.54719963280E+02  0.00000000000E+00 0.  1.
         12    1    6    6    0    0 -0.40728631972E+02 -0.12609899611E+02  0.22953046896E+02  0.48421827644E+02  0.00000000000E+00 0. -1.
         -5    1    3    3    0  503 -0.30440881809E+02  0.28308080355E+02  0.46576870565E+02  0.62605826967E+02  0.47000000000E+01 0.  1.
         13    1    4    4    0    0  0.50782689924E+02 -0.36995508503E+01 -0.35360986278E+02  0.61991673820E+02  0.00000000000E+00 0. -1.
        -14    1    4    4    0    0  0.36820958328E+02 -0.33389690320E+02  0.38510567634E+02  0.62878598993E+02  0.00000000000E+00 0.  1.
</event>
<event>
12    1  0.1050869E+000  0.1828648E+03  0.7818608E-02  0.1169127E+00
         21   -1    0    0  501  502  0.00000000000E+00  0.00000000000E+00  0.92509389150E+02  0.92509389150E+02  0.00000000000E+00 0. -1.
         21   -1    0    0  502  503 -0.00000000000E+00 -0.00000000000E+00 -0.35470392839E+03  0.35470392839E+03  0.00000000000E+00 0. -1.
         -6    2    1    2    0  503  0.57732848052E+02  0.97572872643E+01 -0.77742964055E+02  0.19870460339E+03  0.17323759566E+03 0.  0.
        -24    2    3    3    0    0  0.75349476538E+02  0.44364950094E+02 -0.99577113984E+02  0.15390665669E+03  0.78267904864E+02 0.  0.
          6    2    1    2  501    0 -0.57732848052E+02 -0.97572872643E+01 -0.18445157518E+03  0.24850871415E+03  0.15590353114E+03 0.  0.
         24    2    5    5    0    0 -0.65208923256E+01 -0.55559099057E+02 -0.10705940037E+03  0.14491282091E+03  0.80054199968E+02 0.  0.
          5    1    5    5  501    0 -0.51211955726E+02  0.45801811793E+02 -0.77392174813E+02  0.10359589323E+03  0.47000000000E+01 0. -1.
        -13    1    6    6    0    0 -0.17757907140E+02 -0.14271482812E+02  0.63908912099E+01  0.23661402708E+02  0.00000000000E+00 0.  1.
         14    1    6    6    0    0  0.11237014815E+02 -0.41287616245E+02 -0.11345029158E+03  0.12125141820E+03  0.00000000000E+00 0. -1.
         -5    1    3    3    0  503 -0.17616628486E+02 -0.34607662830E+02  0.21834149929E+02  0.44797946704E+02  0.47000000000E+01 0.  1.
         11    1    4    4    0    0  0.93007402312E+01 -0.12703841460E+02  0.60613437830E+01  0.16871017905E+02  0.00000000000E+00 0. -1.
        -12    1    4    4    0    0  0.66048736307E+02  0.57068791554E+02 -0.10563845777E+03  0.13703563878E+03  0.00000000000E+00 0.  1.
</event>
<event>
12    1  0.1050869E+000  0.2317214E+03  0.7818608E-02  0.1125566E+00
         21   -1    0    0  503  502  0.00000000000E+00  0.00000000000E+00  0.19815837073E+03  0.19815837073E+03  0.00000000000E+00 0.  1.
         21   -1    0    0  501  503 -0.00000000000E+00 -0.00000000000E+00 -0.27526046823E+03  0.27526046823E+03  0.00000000000E+00 0.  1.
          6    2    1    2  501    0  0.74503892258E+02 -0.13562105418E+03 -0.71074542783E+02  0.24237653175E+03  0.17248446948E+03 0.  0.
         24    2    3    3    0    0  0.86807171513E+02 -0.14590341472E+03 -0.20370261358E+02  0.18899009364E+03  0.80492338105E+02 0.  0.
         -6    2    1    2    0  502 -0.74503892258E+02  0.13562105418E+03 -0.60275547163E+01  0.23104230721E+03  0.17146520349E+03 0.  0.
        -24    2    5    5    0    0 -0.65217140773E+02  0.86707683983E+01  0.70852260271E+01  0.10299288772E+03  0.78923233700E+02 0.  0.
          5    1    3    3  501    0 -0.12303279255E+02  0.10282360538E+02 -0.50704281425E+02  0.53386438104E+02  0.47000000000E+01 0. -1.
        -11    1    4    4    0    0  0.79873021712E+02 -0.72697708069E+02  0.11960012218E+02  0.10866323319E+03  0.00000000000E+00 0.  1.
         12    1    4    4    0    0  0.69341498010E+01 -0.73205706653E+02 -0.32330273576E+02  0.80326860449E+02  0.00000000000E+00 0. -1.
         -5    1    5    5    0  502 -0.92867514859E+01  0.12695028579E+03 -0.13112780743E+02  0.12804941950E+03  0.47000000000E+01 0.  1.
         11    1    6    6    0    0  0.14200592978E+02 -0.52821458551E+01 -0.12922563228E+02  0.19913576930E+02  0.00000000000E+00 0. -1.
        -12    1    6    6    0    0 -0.79417733750E+02  0.13952914253E+02  0.20007789255E+02  0.83079310789E+02  0.00000000000E+00 0.  1.
</event>
<event>
12    1  0.1050869E+000  0.1792447E+03  0.7818608E-02  0.1168973E+00
         21   -1    0    0  501  502  0.00000000000E+00  0.00000000000E+00  0.23828565885E+03  0.23828565885E+03  0.00000000000E+00 0. -1.
         21   -1    0    0  502  503 -0.00000000000E+00 -0.00000000000E+00 -0.13629615837E+03  0.13629615837E+03  0.00000000000E+00 0. -1.
         -6    2    1    2    0  503 -0.37046745540E+02 -0.31336770752E+02  0.23876474311E+02  0.17905607448E+03  0.17069428001E+03 0.  0.
        -24    2    3    3    0    0 -0.42584283480E+02 -0.84332538708E+02  0.29135481927E+02  0.12530700092E+03  0.76990712997E+02 0.  0.
          6    2    1    2  501    0  0.37046745540E+02  0.31336770752E+02  0.78113026172E+02  0.19552574274E+03  0.17255206942E+03 0.  0.
         24    2    5    5    0    0  0.70557873450E+02  0.59079899146E+02  0.88550997916E+02  0.15053998810E+03  0.79700444134E+02 0.  0.
          5    1    5    5  501    0 -0.33511127910E+02 -0.27743128394E+02 -0.10437971745E+02  0.44985754646E+02  0.47000000000E+01 0. -1.
        -13    1    6    6    0    0  0.22765851534E+02 -0.19325938790E+02  0.19796049264E+02  0.35828193823E+02  0.00000000000E+00 0.  1.
         14    1    6    6    0    0  0.47792021916E+02  0.78405837936E+02  0.68754948653E+02  0.11471179427E+03  0.00000000000E+00 0. -1.
         -5    1    3    3    0  503  0.55375379395E+01  0.52995767956E+02 -0.52590076158E+01  0.53749073562E+02  0.47000000000E+01 0.  1.
         11    1    4    4    0    0 -0.21532017973E+02 -0.85662989015E+02 -0.12268895093E+01  0.88336180260E+02  0.00000000000E+00 0. -1.
        -12    1    4    4    0    0 -0.21052265506E+02  0.13304503072E+01  0.30362371436E+02  0.36970820659E+02  0.00000000000E+00 0.  1.
</event>
<event>
12    1  0.1050869E+000  0.1977990E+03  0.7818608E-02  0.1152569E+00
         21   -1    0    0  503  502  0.00000000000E+00  0.00000000000E+00  0.35828354993E+02  0.35828354993E+02  0.00000000000E+00 0.  1.
         21   -1    0    0  501  503 -0.00000000000E+00 -0.00000000000E+00 -0.12470398309E+04  0.12470398309E+04  0.00000000000E+00 0.  1.
          6    2    1    2  501    0  0.94844385663E+02 -0.24820080527E+02 -0.36822740746E+03  0.41799025197E+03  0.17179328640E+03 0.  0.
         24    2    3    3    0    0  0.33782680709E+02 -0.76218014966E+02 -0.23862337077E+03  0.26570901281E+03  0.81912826148E+02 0.  0.
         -6    2    1    2    0  502 -0.94844385663E+02  0.24820080527E+02 -0.84298406846E+03  0.86487793393E+03  0.16667395428E+03 0.  0.
        -24    2    5    5    0    0 -0.28873460160E+02 -0.15817333044E+02 -0.66385614128E+03  0.66965378919E+03  0.81531321200E+02 0.  0.
          5    1    3    3  501    0  0.61061704954E+02  0.51397934439E+02 -0.12960403668E+03  0.15228123916E+03  0.47000000000E+01 0. -1.
        -11    1    4    4    0    0 -0.16146551741E+02 -0.26537967936E+02 -0.14643117530E+03  0.14968989269E+03  0.00000000000E+00 0.  1.
         12    1    4    4    0    0  0.49929232450E+02 -0.49680047030E+02 -0.92192195474E+02  0.11601912012E+03  0.00000000000E+00 0. -1.
         -5    1    5    5    0  502 -0.65970925503E+02  0.40637413572E+02 -0.17912792718E+03  0.19522414474E+03  0.47000000000E+01 0.  1.
         13    1    6    6    0    0 -0.38821061422E+02  0.24777306073E+02 -0.33395412327E+03  0.33711473737E+03  0.00000000000E+00 0. -1.
        -14    1    6    6    0    0  0.99476012616E+01 -0.40594639118E+02 -0.32990201802E+03  0.33253905182E+03  0.00000000000E+00 0.  1.
</event>
<event>
12    1  0.1050869E+000  0.3989439E+03  0.7818608E-02  0.1044233E+00
         21   -1    0    0  501  502  0.00000000000E+00  0.00000000000E+00  0.46114334455E+03  0.46114334455E+03  0.00000000000E+00 0.  1.
         21   -1    0    0  502  503 -0.00000000000E+00 -0.00000000000E+00 -0.38403788574E+03  0.38403788574E+03  0.00000000000E+00 0.  1.
         -6    2    1    2    0  503 -0.32606362031E+03  0.15068553782E+03 -0.97389344048E+02  0.41065915724E+03  0.17358756664E+03 0.  0.
        -24    2    3    3    0    0 -0.29217321213E+03  0.12467554788E+03 -0.27394426088E+02  0.32852233307E+03  0.79166221466E+02 0.  0.
          6    2    1    2  501    0  0.32606362031E+03 -0.15068553782E+03  0.17449480286E+03  0.43452207305E+03  0.17128158087E+03 0.  0.
         24    2    5    5    0    0  0.96267744129E+02 -0.29600386412E+02  0.10522725762E+03  0.16565808992E+03  0.78906055371E+02 0.  0.
          5    1    5    5  501    0  0.22979587618E+03 -0.12108515141E+03  0.69267545238E+02  0.26886398313E+03  0.47000000000E+01 0. -1.
        -13    1    6    6    0    0  0.24432320830E+00 -0.59975841471E+01  0.53928845132E+02  0.54261874707E+02  0.00000000000E+00 0.  1.
         14    1    6    6    0    0  0.96023420921E+02 -0.23602802265E+02  0.51298412490E+02  0.11139621521E+03  0.00000000000E+00 0. -1.
         -5    1    3    3    0  503 -0.33890408174E+02  0.26009989947E+02 -0.69994917961E+02  0.82136824163E+02  0.47000000000E+01 0.  1.
         13    1    4    4    0    0 -0.98432065064E+02  0.54072720576E+02  0.26500747291E+02  0.11539072818E+03  0.00000000000E+00 0. -1.
        -14    1    4    4    0    0 -0.19374114707E+03  0.70602827300E+02 -0.53895173379E+02  0.21313160489E+03  0.00000000000E+00 0.  1.
</event>
<event>
12    1  0.1050869E+000  0.5183746E+03  0.7818608E-02  0.1009217E+00
         21   -1    0    0  501  502  0.00000000000E+00  0.00000000000E+00  0.92279381177E+03  0.92279381177E+03  0.00000000000E+00 0.  1.
         21   -1    0    0  502  503 -0.00000000000E+00 -0.00000000000E+00 -0.31608667650E+03  0.31608667650E+03  0.00000000000E+00 0.  1.
         -6    2    1    2    0  503  0.48779290786E+03  0.28882066472E+02  0.48054225445E+03  0.70537343045E+03  0.16689734377E+03 0.  0.
        -24    2    3    3    0    0  0.18203011369E+03  0.37181718562E+02  0.13284109805E+03  0.24225578375E+03  0.80769207912E+02 0.  0.
          6    2    1    2  501    0 -0.48779290786E+03 -0.28882066472E+02  0.12616488083E+03  0.53350705782E+03  0.17302054465E+03 0.  0.
         24    2    5    5    0    0 -0.14263491034E+03 -0.67327102872E+01  0.91474108797E+02  0.18587193748E+03  0.76097421289E+02 0.  0.
          5    1    5    5  501    0 -0.34515799752E+03 -0.22149356185E+02  0.34690772032E+02  0.34763512034E+03  0.47000000000E+01 0. -1.
        -11    1    6    6    0    0 -0.24237698918E+02 -0.23826087375E+02  0.47528971329E+02  0.58430741943E+02  0.00000000000E+00 0.  1.
         12    1    6    6    0    0 -0.11839721142E+03  0.17093377087E+02  0.43945137468E+02  0.12744119554E+03  0.00000000000E+00 0. -1.
         -5    1    3    3    0  503  0.30576279417E+03 -0.82996520895E+01  0.34770115640E+03  0.46311764670E+03  0.47000000000E+01 0.  1.
         13    1    4    4    0    0  0.14009444221E+03  0.30232621907E+02  0.13858170781E+03  0.19936236833E+03  0.00000000000E+00 0. -1.
        -14    1    4    4    0    0  0.41935671473E+02  0.69490966550E+01 -0.57406097606E+01  0.42893415423E+02  0.00000000000E+00 0.  1.
</event>
<event>
12    1  0.1050869E+000  0.2499446E+03  0.7818608E-02  0.1113520E+00
         21   -1    0    0  503  502  0.00000000000E+00  0.00000000000E+00  0.45550691031E+03  0.45550691031E+03  0.00000000000E+00 0. -1.
         21   -1    0    0  501  503 -0.00000000000E+00 -0.00000000000E+00 -0.31923473143E+03  0.31923473143E+03  0.00000000000E+00 0. -1.
          6    2    1    2  501    0  0.18039163234E+03  0.62295845440E+01  0.36112563610E+03  0.43854022942E+03  0.17124794608E+03 0.  0.
         24    2    3    3    0    0  0.29399064179E+02  0.33239871286E+02  0.10990240403E+03  0.14415355588E+03  0.82051905790E+02 0.  0.
         -6    2    1    2    0  502 -0.18039163234E+03 -0.62295845440E+01 -0.22485345722E+03  0.33620141232E+03  0.17289408226E+03 0.  0.
        -24    2    5    5    0    0 -0.48518027470E+02 -0.27429947984E+02 -0.16209367634E+03  0.18854985233E+03  0.78551167199E+02 0.  0.
          5    1    3    3  501    0  0.15099256816E+03 -0.27010286742E+02  0.25122323207E+03  0.29438667355E+03  0.47000000000E+01 0. -1.
        -13    1    4    4    0    0  0.94600089879E+01  0.47429935698E+02  0.22411750304E+02  0.53304569430E+02  0.00000000000E+00 0.  1.
         14    1    4    4    0    0  0.19939055191E+02 -0.14190064412E+02  0.87490653721E+02  0.90848986447E+02  0.00000000000E+00 0. -1.
         -5    1    5    5    0  502 -0.13187360487E+03  0.21200363440E+02 -0.62759780874E+02  0.14765155999E+03  0.47000000000E+01 0.  1.
         11    1    6    6    0    0  0.36572122006E+01 -0.37759938990E+02 -0.38758259497E+02  0.54234591110E+02  0.00000000000E+00 0. -1.
        -12    1    6    6    0    0 -0.52175239671E+02  0.10329991006E+02 -0.12333541685E+03  0.13431526122E+03  0.00000000000E+00 0.  1.
</event>
<event>
12    1  0.1050869E+000  0.2420310E+03  0.7818608E-02  0.1118799E+00
         21   -1    0    0  501  502  0.00000000000E+00  0.00000000000E+00  0.26080739838E+03  0.26080739838E+03  0.00000000000E+00 0.  1.
         21   -1    0    0  502  503 -0.00000000000E+00 -0.00000000000E+00 -0.22670827357E+03  0.22670827357E+03  0.00000000000E+00 0.  1.
         -6    2    1    2    0  503 -0.16685424790E+03 -0.61797165691E+01 -0.15530017398E+02  0.24252872269E+03  0.17521549860E+03 0.  0.
        -24    2    3    3    0    0 -0.67881122987E+02 -0.53993143317E+02 -0.48830397367E+02  0.12758174126E+03  0.79809689970E+02 0.  0.
          6    2    1    2  501    0  0.16685424790E+03  0.61797165691E+01  0.49629142203E+02  0.24498694926E+03  0.17227020814E+03 0.  0.
         24    2    5    5    0    0  0.15547538417E+03  0.59997058782E+02  0.35680270289E+02  0.18804447048E+03  0.79469484987E+02 0.  0.
          5    1    5    5  501    0  0.11378863734E+02 -0.53817342213E+02  0.13948871914E+02  0.56942478787E+02  0.47000000000E+01 0. -1.
        -13    1    6    6    0    0  0.10474936344E+03  0.53543064908E+02 -0.11843915367E+02  0.11823522010E+03  0.00000000000E+00 0.  1.
         14    1    6    6    0    0  0.50726020728E+02  0.64539938735E+01  0.47524185656E+02  0.69809250377E+02  0.00000000000E+00 0. -1.
         -5    1    3    3    0  503 -0.98973124916E+02  0.47813426748E+02  0.33300379968E+02  0.11494698143E+03  0.47000000000E+01 0.  1.
         11    1    4    4    0    0  0.28995582177E+01 -0.64297676331E+01  0.17938527195E+02  0.19275375680E+02  0.00000000000E+00 0. -1.
        -12    1    4    4    0    0 -0.70780681205E+02 -0.47563375684E+02 -0.66768924562E+02  0.10830636558E+03  0.00000000000E+00 0.  1.
</event>
<event>
12    1  0.1050869E+000  0.3248038E+03  0.7818608E-02  0.1073527E+00
         21   -1    0    0  503  502  0.00000000000E+00  0.00000000000E+00  0.70433692905E+03  0.70433692905E+03  0.00000000000E+00 0. -1.
         21   -1    0    0  501  503 -0.00000000000E+00 -0.00000000000E+00 -0.52662470813E+03  0.52662470813E+03  0.00000000000E+00 0. -1.
          6    2    1    2  501    0  0.20819463614E+03  0.17864172134E+03 -0.43200543522E+03  0.54012653868E+03  0.17277184552E+03 0.  0.
         24    2    3    3    0    0  0.19954875827E+03  0.19698272449E+03 -0.42958324340E+03  0.51917181095E+03  0.79848015658E+02 0.  0.
         -6    2    1    2    0  502 -0.20819463614E+03 -0.17864172134E+03  0.60971765614E+03  0.69083509850E+03  0.17389549157E+03 0.  0.
        -24    2    5    5    0    0 -0.11912859737E+03 -0.69423486679E+02  0.18823749973E+03  0.24639275770E+03  0.79150436064E+02 0.  0.
          5    1    3    3  501    0  0.86458778726E+01 -0.18341003152E+02 -0.24221918210E+01  0.20954727725E+02  0.47000000000E+01 0. -1.
        -11    1    4    4    0    0  0.38189736166E+02  0.23760423939E+02 -0.27929783790E+02  0.52944183031E+02  0.00000000000E+00 0.  1.
         12    1    4    4    0    0  0.16135902210E+03  0.17322230055E+03 -0.40165345961E+03  0.46622762792E+03  0.00000000000E+00 0. -1.
         -5    1    5    5    0  502 -0.89066038770E+02 -0.10921823466E+03  0.42148015641E+03  0.44444234080E+03  0.47000000000E+01 0.  1.
         11    1    6    6    0    0 -0.74558699931E+02  0.21851525298E+01  0.85338981866E+02  0.11334247418E+03  0.00000000000E+00 0. -1.
        -12    1    6    6    0    0 -0.44569897442E+02 -0.71608639209E+02  0.10289851786E+03  0.13305028352E+03  0.00000000000E+00 0.  1.
</event>
<event>
12    1  0.1050869E+000  0.2136349E+03  0.7818608E-02  0.1139631E+00
         21   -1    0    0  501  502  0.00000000000E+00  0.00000000000E+00  0.35460644148E+03  0.35460644148E+03  0.00000000000E+00 0. -1.
         21   -1    0    0  502  503 -0.00000000000E+00 -0.00000000000E+00 -0.14481550446E+03  0.14481550446E+03  0.00000000000E+00 0. -1.
         -6    2    1    2    0  503 -0.91019812418E+02 -0.87988401908E+02  0.15700200234E+02  0.21421101787E+03  0.17208514975E+03 0.  0.
        -24    2    3    3    0    0 -0.10027130269E+03 -0.27451341400E+02 -0.27827000894E+02  0.13893131937E+03  0.87861591364E+02 0.  0.
          6    2    1    2  501    0  0.91019812418E+02  0.87988401908E+02  0.19409073679E+03  0.28521092808E+03  0.16627535676E+03 0.  0.
         24    2    5    5    0    0  0.67674239878E+02  0.44042681253E+02  0.35223366328E+02  0.11866611874E+03  0.79507242979E+02 0.  0.
          5    1    5    5  501    0  0.23345572540E+02  0.43945720655E+02  0.15886737046E+03  0.16654480934E+03  0.47000000000E+01 0. -1.
        -11    1    6    6    0    0  0.57172575687E+02  0.10356347740E+02  0.53452526365E+02  0.78950173679E+02  0.00000000000E+00 0.  1.
         12    1    6    6    0    0  0.10501664190E+02  0.33686333513E+02 -0.18229160037E+02  0.39715945060E+02  0.00000000000E+00 0. -1.
         -5    1    3    3    0  503  0.92514902687E+01 -0.60537060508E+02  0.43527201128E+02  0.75279698493E+02  0.47000000000E+01 0.  1.
         11    1    4    4    0    0 -0.42619838870E+02  0.12999644287E+02 -0.48176440072E+02  0.65623248890E+02  0.00000000000E+00 0. -1.
        -12    1    4    4    0    0 -0.57651463817E+02 -0.40450985687E+02  0.20349439177E+02  0.73308070484E+02  0.00000000000E+00 0.  1.
</event>
<event>
12    1  0.1050869E+000  0.2637090E+03  0.7818608E-02  0.1105879E+00
         21   -1    0    0  501  502  0.00000000000E+00  0.00000000000E+00  0.20720070711E+03  0.20720070711E+03  0.00000000000E+00 0. -1.
         21   -1    0    0  502  503 -0.00000000000E+00 -0.00000000000E+00 -0.12553200247E+04  0.12553200247E+04  0.00000000000E+00 0.  1.
         -6    2    1    2    0  503  0.15030689323E+03  0.13229555448E+03  0.10289949992E+03  0.28307376219E+03  0.17160469652E+03 0.  0.
        -24    2    3    3    0    0  0.11524029416E+02  0.76816461700E+02  0.25738928407E+02  0.11480476082E+03  0.80523714703E+02 0.  0.
          6    2    1    2  501    0 -0.15030689323E+03 -0.13229555448E+03 -0.11510188175E+04  0.11794469696E+04  0.16172989832E+03 0.  0.
         24    2    5    5    0    0 -0.12961434283E+03 -0.15670260311E+03 -0.10708312988E+04  0.10929830244E+04  0.81096470169E+02 0.  0.
          5    1    5    5  501    0 -0.20692550397E+02  0.24407048630E+02 -0.80187518655E+02  0.86463945160E+02  0.47000000000E+01 0. -1.
        -11    1    6    6    0    0 -0.12980690248E+02 -0.16549072815E+02 -0.30582379709E+03  0.30654618738E+03  0.00000000000E+00 0.  1.
         12    1    6    6    0    0 -0.11663365258E+03 -0.14015353030E+03 -0.76500750172E+03  0.78643683705E+03  0.00000000000E+00 0. -1.
         -5    1    3    3    0  503  0.13878286381E+03  0.55479092784E+02  0.77160571516E+02  0.16826900137E+03  0.47000000000E+01 0.  1.
         13    1    4    4    0    0 -0.33345879743E+02  0.18843155586E+02  0.12649324271E+02  0.40336306385E+02  0.00000000000E+00 0. -1.
        -14    1    4    4    0    0  0.44869909159E+02  0.57973306114E+02  0.13089604136E+02  0.74468454436E+02  0.00000000000E+00 0.  1.
</event>
<event>
12    1  0.1050869E+000  0.2378084E+03  0.7818608E-02  0.1121993E+00
         21   -1    0    0  501  502  0.00000000000E+00  0.00000000000E+00  0.14714299315E+04  0.14714299315E+04  0.00000000000E+00 0.  1.
         21   -1    0    0  502  503 -0.00000000000E+00 -0.00000000000E+00 -0.42688403224E+02  0.42688403224E+02  0.00000000000E+00 0.  1.
         -6    2    1    2    0  503 -0.11773238537E+03 -0.11629574442E+03  0.96629114338E+03  0.99410564950E+03  0.16474784934E+03 0.  0.
        -24    2    3    3    0    0 -0.12330724167E+03 -0.81468003584E+02  0.92397516276E+03  0.93881747020E+03  0.76199931108E+02 0.  0.
          6    2    1    2  501    0  0.11773238537E+03  0.11629574442E+03  0.46245038487E+03  0.52001268520E+03  0.17078413148E+03 0.  0.
         24    2    5    5    0    0 -0.19128361170E+01  0.50348622458E+02  0.12199631616E+03  0.15314068460E+03  0.77655169810E+02 0.  0.
          5    1    5    5  501    0  0.11964522149E+03  0.65947121961E+02  0.34045406871E+03  0.36687200059E+03  0.47000000000E+01 0. -1.
        -11    1    6    6    0    0 -0.38684854089E+01  0.68739687146E+00  0.97773276163E+02  0.97852190704E+02  0.00000000000E+00 0.  1.
         12    1    6    6    0    0  0.19556492919E+01  0.49661225586E+02  0.24223039999E+02  0.55288493899E+02  0.00000000000E+00 0. -1.
         -5    1    3    3    0  503  0.55748563020E+01 -0.34827740835E+02  0.42315980616E+02  0.55288179296E+02  0.47000000000E+01 0.  1.
         13    1    4    4    0    0 -0.11626400447E+03 -0.95532536550E+02  0.84415695147E+03  0.85746413511E+03  0.00000000000E+00 0. -1.
        -14    1    4    4    0    0 -0.70432372024E+01  0.14064532966E+02  0.79818211289E+02  0.81353335095E+02  0.00000000000E+00 0.  1.
</event>
<event>
12    1  0.1050869E+000  0.2011389E+03  0.7818608E-02  0.1149548E+00
         21   -1    0    0  503  502  0.00000000000E+00  0.00000000000E+00  0.14291235721E+04  0.14291235721E+04  0.00000000000E+00 0. -1.
         21   -1    0    0  501  503 -0.00000000000E+00 -0.00000000000E+00 -0.27837693842E+02  0.27837693842E+02  0.00000000000E+00 0. -1.
          6    2    1    2  501    0 -0.67298459082E+02 -0.72206232390E+02  0.66774845677E+03  0.69634702493E+03  0.17107996675E+03 0.  0.
         24    2    3    3    0    0 -0.16712324178E+02 -0.78833205041E+02  0.60419657571E+03  0.61471489034E+03  0.79541928049E+02 0.  0.
         -6    2    1    2    0  502  0.67298459082E+02  0.72206232390E+02  0.73353742151E+03  0.76061424103E+03  0.17525425048E+03 0.  0.
        -24    2    5    5    0    0  0.18755084766E+02 -0.27690610606E+02  0.40472069649E+03  0.41351430285E+03  0.77953276875E+02 0.  0.
          5    1    3    3  501    0 -0.50586134904E+02  0.66269726505E+01  0.63551881063E+02  0.81632134590E+02  0.47000000000E+01 0. -1.
        -11    1    4    4    0    0  0.61454409493E+01 -0.33072790809E+02  0.65858648362E+02  0.73952265012E+02  0.00000000000E+00 0.  1.
         12    1    4    4    0    0 -0.22857765127E+02 -0.45760414232E+02  0.53833792734E+03  0.54076262533E+03  0.00000000000E+00 0. -1.
         -5    1    5    5    0  502  0.48543374316E+02  0.99896842997E+02  0.32881672502E+03  0.34709993817E+03  0.47000000000E+01 0.  1.
         13    1    6    6    0    0  0.30465524408E+02 -0.22281412529E+02  0.79156952937E+02  0.87695112293E+02  0.00000000000E+00 0. -1.
        -14    1    6    6    0    0 -0.11710439642E+02 -0.54091980770E+01  0.32556374355E+03  0.32581919056E+03  0.00000000000E+00 0.  1.
</event>
<event>
12    1  0.1050869E+000  0.1760773E+03  0.7818608E-02  0.1172043E+00
         21   -1    0    0  503  502  0.00000000000E+00  0.00000000000E+00  0.69185534136E+02  0.69185534136E+02  0.00000000000E+00 0. -1.
         21   -1    0    0  501  503 -0.00000000000E+00 -0.00000000000E+00 -0.94394517269E+03  0.94394517269E+03  0.00000000000E+00 0. -1.
          6    2    1    2  501    0  0.23101611895E+02 -0.27578723409E+02 -0.80506028287E+03  0.82376010745E+03  0.17077583295E+03 0.  0.
         24    2    3    3    0    0 -0.36855513556E+02 -0.26119115265E+02 -0.34070719712E+03  0.35552633508E+03  0.90978259506E+02 0.  0.
         -6    2    1    2    0  502 -0.23101611895E+02  0.27578723409E+02 -0.69699355686E+02  0.18937059937E+03  0.17236285350E+03 0.  0.
        -24    2    5    5    0    0  0.43445191604E+02 -0.13639983133E+02 -0.13770811215E+02  0.93050555191E+02  0.79970224249E+02 0.  0.
          5    1    3    3  501    0  0.59957125451E+02 -0.14596081440E+01 -0.46435308575E+03  0.46823377238E+03  0.47000000000E+01 0. -1.
        -11    1    4    4    0    0  0.24494491268E+02  0.11311146979E+02 -0.13380826177E+03  0.13650118339E+03  0.00000000000E+00 0.  1.
         12    1    4    4    0    0 -0.61350004824E+02 -0.37430262244E+02 -0.20689893535E+03  0.21902515169E+03  0.00000000000E+00 0. -1.
         -5    1    5    5    0  502 -0.66546803499E+02  0.41218706542E+02 -0.55928544471E+02  0.96320044184E+02  0.47000000000E+01 0.  1.
         11    1    6    6    0    0  0.14345685629E+02 -0.37845405407E+02 -0.31467869851E+02  0.51266950753E+02  0.00000000000E+00 0. -1.
        -12    1    6    6    0    0  0.29099505975E+02  0.24205422274E+02  0.17697058636E+02  0.41783604438E+02  0.00000000000E+00 0.  1.
</event>
<event>
12    1  0.1050869E+000  0.3982690E+03  0.7818608E-02  0.1044659E+00
         21   -1    0    0  501  502  0.00000000000E+00  0.00000000000E+00  0.77379851280E+03  0.77379851280E+03  0.00000000000E+00 0. -1.
         21   -1    0    0  502  503 -0.00000000000E+00 -0.00000000000E+00 -0.22185920963E+03  0.22185920963E+03  0.00000000000E+00 0. -1.
         -6    2    1    2    0  503  0.33680965540E+03  0.11467392878E+03  0.13320676590E+03  0.41995501891E+03  0.17896178784E+03 0.  0.
        -24    2    3    3    0    0  0.11243248557E+03 -0.33478452805E+01  0.13190553414E+02  0.13941939772E+03  0.81311167017E+02 0.  0.
          6    2    1    2  501    0 -0.33680965540E+03 -0.11467392878E+03  0.41873253727E+03  0.57570270353E+03  0.17177255651E+03 0.  0.
         24    2    5    5    0    0 -0.23890238915E+03 -0.13979821497E+03  0.26046867901E+03  0.38785542148E+03  0.77265793071E+02 0.  0.
          5    1    5    5  501    0 -0.97907266255E+02  0.25124286191E+02  0.15826385825E+03  0.18784728205E+03  0.47000000000E+01 0. -1.
        -11    1    6    6    0    0 -0.22051206737E+03 -0.97937778318E+02  0.22601169509E+03  0.33060348848E+03  0.00000000000E+00 0.  1.
         12    1    6    6    0    0 -0.18390321779E+02 -0.41860436652E+02  0.34456983925E+02  0.57251933007E+02  0.00000000000E+00 0. -1.
         -5    1    3    3    0  503  0.22437716984E+03  0.11802177406E+03  0.12001621249E+03  0.28053562119E+03  0.47000000000E+01 0.  1.
         13    1    4    4    0    0  0.10390744447E+03  0.14206420331E+02 -0.14154554595E+02  0.10582500088E+03  0.00000000000E+00 0. -1.
        -14    1    4    4    0    0  0.85250410939E+01 -0.17554265612E+02  0.27345108009E+02  0.33594396837E+02  0.00000000000E+00 0.  1.
</event>
<event>
12    1  0.1050869E+000  0.2228337E+03  0.7818608E-02  0.1132826E+00
         21   -1    0    0  503  502  0.00000000000E+00  0.00000000000E+00  0.66378200997E+02  0.66378200997E+02  0.00000000000E+00 0.  1.
         21   -1    0    0  501  503 -0.00000000000E+00 -0.00000000000E+00 -0.89016549122E+03  0.89016549122E+03  0.00000000000E+00 0. -1.
          6    2    1    2  501    0  0.13398739724E+03  0.52876047572E+01 -0.21295387521E+03  0.30822753318E+03  0.17797268852E+03 0.  0.
         24    2    3    3    0    0  0.64147939004E+02 -0.54635944240E+02 -0.63022779251E+02  0.13224513296E+03  0.80105305731E+02 0.  0.
         -6    2    1    2    0  502 -0.13398739724E+03 -0.52876047572E+01 -0.61083341502E+03  0.64831615904E+03  0.17092629929E+03 0.  0.
        -24    2    5    5    0    0 -0.65989083878E+02  0.44125918842E+02 -0.48044657878E+03  0.49311215137E+03  0.77646782661E+02 0.  0.
          5    1    3    3  501    0  0.69839458234E+02  0.59923548997E+02 -0.14993109596E+03  0.17598240022E+03  0.47000000000E+01 0. -1.
        -11    1    4    4    0    0 -0.13538062608E+02 -0.27404450194E+02 -0.37270744199E+01  0.30792435976E+02  0.00000000000E+00 0.  1.
         12    1    4    4    0    0  0.77686001612E+02 -0.27231494045E+02 -0.59295704832E+02  0.10145269699E+03  0.00000000000E+00 0. -1.
         -5    1    5    5    0  502 -0.67998313361E+02 -0.49413523599E+02 -0.13038683623E+03  0.15520400767E+03  0.47000000000E+01 0.  1.
         11    1    6    6    0    0 -0.16375683684E+02 -0.16351946808E+02 -0.21885512630E+03  0.22007524961E+03  0.00000000000E+00 0. -1.
        -12    1    6    6    0    0 -0.49613400195E+02  0.60477865650E+02 -0.26159145248E+03  0.27303690176E+03  0.00000000000E+00 0.  1.
</event>
<event>
12    1  0.1050869E+000  0.2382415E+03  0.7818608E-02  0.1121309E+00
         21   -1    0    0  503  502  0.00000000000E+00  0.00000000000E+00  0.48274977286E+02  0.48274977286E+02  0.00000000000E+00 0. -1.
         21   -1    0    0  501  503 -0.00000000000E+00 -0.00000000000E+00 -0.11664957592E+04  0.11664957592E+04  0.00000000000E+00 0. -1.
          6    2    1    2  501    0 -0.58243166083E+02 -0.15157268384E+03 -0.54237491975E+03  0.59158739459E+03  0.17157665047E+03 0.  0.
         24    2    3    3    0    0 -0.41261375586E+02 -0.24287032747E+02 -0.34035376402E+03  0.35216171605E+03  0.76712635829E+02 0.  0.
         -6    2    1    2    0  502  0.58243166083E+02  0.15157268384E+03 -0.57584586216E+03  0.62318334189E+03  0.17433437917E+03 0.  0.
        -24    2    5    5    0    0  0.10271769818E+03  0.96698843959E+02 -0.45722833930E+03  0.48504815797E+03  0.79450420673E+02 0.  0.
          5    1    3    3  501    0 -0.16981790497E+02 -0.12728565109E+03 -0.20202115573E+03  0.23942567854E+03  0.47000000000E+01 0. -1.
        -11    1    4    4    0    0 -0.45089454594E+02 -0.24778268599E+02 -0.34340755393E+03  0.34724021888E+03  0.00000000000E+00 0.  1.
         12    1    4    4    0    0  0.38280790080E+01  0.49123585209E+00  0.30537899147E+01  0.49214971702E+01  0.00000000000E+00 0. -1.
         -5    1    5    5    0  502 -0.44474532097E+02  0.54873839877E+02 -0.11861752286E+03  0.13813518392E+03  0.47000000000E+01 0.  1.
         13    1    6    6    0    0 -0.65925204271E-01  0.45170338131E+02 -0.16329683665E+03  0.16942910214E+03  0.00000000000E+00 0. -1.
        -14    1    6    6    0    0  0.10278362338E+03  0.51528505828E+02 -0.29393150265E+03  0.31561905582E+03  0.00000000000E+00 0.  1.
</event>
<event>
12    1  0.1050869E+000  0.4030360E+03  0.7818608E-02  0.1042807E+00
         21   -1    0    0  503  502  0.00000000000E+00  0.00000000000E+00  0.33238894085E+03  0.33238894085E+03  0.00000000000E+00 0. -1.
         21   -1    0    0  501  503 -0.00000000000E+00 -0.00000000000E+00 -0.63949737003E+03  0.63949737003E+03  0.00000000000E+00 0. -1.
          6    2    1    2  501    0  0.69931674256E+02  0.35736414438E+03  0.83105452485E+02  0.41151494718E+03  0.17273813929E+03 0.  0.
         24    2    3    3    0    0  0.54959595523E+02  0.28549400164E+03  0.12415699021E+03  0.32727244419E+03  0.84645805560E+02 0.  0.
         -6    2    1    2    0  502 -0.69931674256E+02 -0.35736414438E+03 -0.39021388167E+03  0.56037136370E+03  0.17073260105E+03 0.  0.
        -24    2    5    5    0    0 -0.70524725975E+02 -0.98705184094E+02 -0.12909224670E+03  0.19279632689E+03  0.76086563604E+02 0.  0.
          5    1    3    3  501    0  0.14972078733E+02  0.71870142738E+02 -0.41051537727E+02  0.84242502981E+02  0.47000000000E+01 0. -1.
        -11    1    4    4    0    0  0.32294227909E+02  0.21563500892E+03  0.51663493352E+02  0.22407697511E+03  0.00000000000E+00 0.  1.
         12    1    4    4    0    0  0.22665367614E+02  0.69858992715E+02  0.72493496860E+02  0.10319546908E+03  0.00000000000E+00 0. -1.
         -5    1    5    5    0  502  0.59305171877E+00 -0.25865896028E+03 -0.26112163496E+03  0.36757503682E+03  0.47000000000E+01 0.  1.
         13    1    6    6    0    0 -0.54341967164E+02 -0.83603419634E+02 -0.13686567660E+03  0.16933633574E+03  0.00000000000E+00 0. -1.
        -14    1    6    6    0    0 -0.16182758811E+02 -0.15101764460E+02  0.77734298931E+01  0.23459991152E+02  0.00000000000E+00 0.  1.
</event>
<event>
12    1  0.1153199E+000  0.1897190E+03  0.7818608E-02  0.1161211E+00
         21   -1    0    0  501  502  0.00000000000E+00  0.00000000000E+00  0.28779475942E+03  0.28779475942E+03  0.00000000000E+00 0. -1.
         21   -1    0    0  502  503 -0.00000000000E+00 -0.00000000000E+00 -0.59196220310E+03  0.59196220310E+03  0.00000000000E+00 0. -1.
         -6    2    1    2    0  503  0.76064520771E+02  0.11690020206E+02  0.24232249479E+03  0.30127226618E+03  0.16162400502E+03 0.  0.
        -24    2    3    3    0    0  0.71193274814E+02  0.10492657684E+02  0.76845161929E+02  0.13565221787E+03  0.85543948101E+02 0.  0.
          6    2    1    2  501    0 -0.76064520771E+02 -0.11690020206E+02 -0.54648993847E+03  0.57848469633E+03  0.17340940905E+03 0.  0.
         24    2    5    5    0    0 -0.42006619123E+02  0.27538349457E+02 -0.14112939857E+03  0.16978179329E+03  0.79908907192E+02 0.  0.
          5    1    5    5  501    0 -0.34057901648E+02 -0.39228369662E+02 -0.40536053990E+03  0.40870290304E+03  0.47000000000E+01 0. -1.
        -11    1    6    6    0    0 -0.50981987741E+02 -0.10661684705E+02 -0.10109396596E+03  0.11372257713E+03  0.00000000000E+00 0.  1.
         12    1    6    6    0    0  0.89753686174E+01  0.38200034162E+02 -0.40035432611E+02  0.56059216157E+02  0.00000000000E+00 0. -1.
         -5    1    3    3    0  503  0.48712459571E+01  0.11973625219E+01  0.16547733286E+03  0.16562004832E+03  0.47000000000E+01 0.  1.
         11    1    4    4    0    0  0.91771869061E+00  0.34827999168E+02  0.38693553400E+02  0.52067483215E+02  0.00000000000E+00 0. -1.
        -12    1    4    4    0    0  0.70275556124E+02 -0.24335341485E+02  0.38151608529E+02  0.83584734653E+02  0.00000000000E+00 0.  1.
</event>
<event>
12    1  0.1050869E+000  0.1741781E+03  0.7818608E-02  0.1173992E+00
         21   -1    0    0  501  502  0.00000000000E+00  0.00000000000E+00  0.51523565099E+03  0.51523565099E+03  0.00000000000E+00 0. -1.
         21   -1    0    0  502  503 -0.00000000000E+00 -0.00000000000E+00 -0.73965205963E+02  0.73965205963E+02  0.00000000000E+00 0. -1.
         -6    2    1    2    0  503 -0.13072639434E+02 -0.46409898269E+01  0.35703069492E+03  0.39725173053E+03  0.17362484733E+03 0.  0.
        -24    2    3    3    0    0  0.93906230957E+01 -0.55190446189E+02  0.11508447085E+03  0.14901814891E+03  0.76340055819E+02 0.  0.
          6    2    1    2  501    0  0.13072639434E+02  0.46409898269E+01  0.84239750104E+02  0.19194912641E+03  0.17191770981E+03 0.  0.
         24    2    5    5    0    0  0.75211519678E+01 -0.55939698031E+02  0.85783956180E+02  0.13091378152E+03  0.81201684157E+02 0.  0.
          5    1    5    5  501    0  0.55514874663E+01  0.60580687858E+02 -0.15442060768E+01  0.61035344898E+02  0.47000000000E+01 0. -1.
        -11    1    6    6    0    0  0.30144895699E+02 -0.10567875966E+02  0.79756440122E+00  0.31953573323E+02  0.00000000000E+00 0.  1.
         12    1    6    6    0    0 -0.22623743731E+02 -0.45371822065E+02  0.84986391779E+02  0.98960208193E+02  0.00000000000E+00 0. -1.
         -5    1    3    3    0  503 -0.22463262530E+02  0.50549456362E+02  0.24194622407E+03  0.24823358162E+03  0.47000000000E+01 0.  1.
         13    1    4    4    0    0  0.85594845440E+00 -0.43301903417E+02  0.12436371533E+03  0.13168948772E+03  0.00000000000E+00 0. -1.
        -14    1    4    4    0    0  0.85346746413E+01 -0.11888542771E+02 -0.92792444793E+01  0.17328661188E+02  0.00000000000E+00 0.  1.
</event>
<event>
12    1  0.1050869E+000  0.1756437E+03  0.7818608E-02  0.1173395E+00
         21   -1    0    0  503  502  0.00000000000E+00  0.00000000000E+00  0.32670288779E+03  0.32670288779E+03  0.00000000000E+00 0.  1.
         21   -1    0    0  501  503 -0.00000000000E+00 -0.00000000000E+00 -0.91736696882E+02  0.91736696882E+02  0.00000000000E+00 0.  1.
          6    2    1    2  501    0  0.30379815117E+02 -0.69489525349E+01  0.12446036570E+03  0.21526979449E+03  0.17285682134E+03 0.  0.
         24    2    3    3    0    0 -0.76238488500E+01  0.61160527515E+02  0.66826998846E+02  0.11817770047E+03  0.75507535494E+02 0.  0.
         -6    2    1    2    0  502 -0.30379815117E+02  0.69489525349E+01  0.11050582521E+03  0.20316979017E+03  0.16761624362E+03 0.  0.
        -24    2    5    5    0    0  0.40198102783E+02 -0.26440982264E+02  0.53171810221E+02  0.10618829959E+03  0.78317945310E+02 0.  0.
          5    1    3    3  501    0  0.38003663967E+02 -0.68109480050E+02  0.57633366850E+02  0.97092094024E+02  0.47000000000E+01 0. -1.
        -13    1    4    4    0    0  0.11004262695E+02 -0.14286110744E+02  0.45701978621E+01  0.18603049915E+02  0.00000000000E+00 0.  1.
         14    1    4    4    0    0 -0.18628111545E+02  0.75446638259E+02  0.62256800984E+02  0.99574650555E+02  0.00000000000E+00 0. -1.
         -5    1    5    5    0  502 -0.70577917900E+02  0.33389934799E+02  0.57334014988E+02  0.96981490583E+02  0.47000000000E+01 0.  1.
         11    1    6    6    0    0  0.29035454733E+01 -0.45953577729E+02  0.42740115757E+02  0.62824194203E+02  0.00000000000E+00 0. -1.
        -12    1    6    6    0    0  0.37294557310E+02  0.19512595465E+02  0.10431694464E+02  0.43364105389E+02  0.00000000000E+00 0.  1.
</event>
<event>
12    1  0.1050869E+000  0.1849031E+03  0.7818608E-02  0.1165273E+00
         21   -1    0    0  501  502  0.00000000000E+00  0.00000000000E+00  0.34619843176E+02  0.34619843176E+02  0.00000000000E+00 0.  1.
         21   -1    0    0  502  503 -0.00000000000E+00 -0.00000000000E+00 -0.98656166584E+03  0.98656166584E+03  0.00000000000E+00 0.  1.
         -6    2    1    2    0  503 -0.37169019928E+02  0.81651709136E+01 -0.35468602521E+03  0.39595864578E+03  0.17185129220E+03 0.  0.
        -24    2    3    3    0    0 -0.17131297174E+02 -0.33660299750E+02 -0.86710203403E+02  0.12395862482E+03  0.80128547790E+02 0.  0.
          6    2    1    2  501    0  0.37169019928E+02 -0.81651709136E+01 -0.59725579745E+03  0.62522286323E+03  0.18094456351E+03 0.  0.
         24    2    5    5    0    0  0.42120807925E+02 -0.25605639748E+02 -0.59910298858E+03  0.60640286662E+03  0.79813748624E+02 0.  0.
          5    1    5    5  501    0 -0.49517879962E+01  0.17440468835E+02  0.18471911290E+01  0.18819996616E+02  0.47000000000E+01 0. -1.
        -13    1    6    6    0    0  0.33422312458E+02 -0.24639215587E+02 -0.11577944142E+03  0.12300008524E+03  0.00000000000E+00 0.  1.
         14    1    6    6    0    0  0.86984954669E+01 -0.96642416111E+00 -0.48332354717E+03  0.48340278138E+03  0.00000000000E+00 0. -1.
         -5    1    3    3    0  503 -0.20037722755E+02  0.41825470663E+02 -0.26797582181E+03  0.27200002096E+03  0.47000000000E+01 0.  1.
         11    1    4    4    0    0  0.16928086266E+02 -0.44622437087E+02 -0.69361040868E+02  0.84194275260E+02  0.00000000000E+00 0. -1.
        -12    1    4    4    0    0 -0.34059383439E+02  0.10962137338E+02 -0.17349162534E+02  0.39764349560E+02  0.00000000000E+00 0.  1.
</event>
<event>
12    1  0.1050869E+000  0.3210057E+03  0.7818608E-02  0.1075359E+00
         21   -1    0    0  503  502  0.00000000000E+00  0.00000000000E+00  0.59272159855E+02  0.59272159855E+02  0.00000000000E+00 0. -1.
         21   -1    0    0  501  503 -0.00000000000E+00 -0.00000000000E+00 -0.18313823451E+04  0.18313823451E+04  0.00000000000E+00 0.  1.
          6    2    1    2  501    0  0.56591703741E+02 -0.26340830013E+03 -0.66213936492E+03  0.73519794913E+03  0.17175835444E+03 0.  0.
         24    2    3    3    0    0 -0.30728897728E+02 -0.15069800424E+03 -0.30557734623E+03  0.35115750671E+03  0.79245986360E+02 0.  0.
         -6    2    1    2    0  502 -0.56591703741E+02  0.26340830013E+03 -0.11099708203E+04  0.11554565558E+04  0.17452242527E+03 0.  0.
        -24    2    5    5    0    0  0.28965976631E+02  0.70727441804E+02 -0.38557449473E+03  0.40099107857E+03  0.79276448468E+02 0.  0.
          5    1    3    3  501    0  0.87320601469E+02 -0.11271029589E+03 -0.35656201869E+03  0.38404044242E+03  0.47000000000E+01 0. -1.
        -11    1    4    4    0    0  0.13431405387E+02 -0.91471572888E+02 -0.12050409553E+03  0.15188379880E+03  0.00000000000E+00 0.  1.
         12    1    4    4    0    0 -0.44160303115E+02 -0.59226431348E+02 -0.18507325070E+03  0.19927370791E+03  0.00000000000E+00 0. -1.
         -5    1    5    5    0  502 -0.85557680373E+02  0.19268085832E+03 -0.72439632561E+03  0.75446547727E+03  0.47000000000E+01 0.  1.
         11    1    6    6    0    0  0.27826907203E+02  0.55094650756E+02 -0.37900113504E+03  0.38399429380E+03  0.00000000000E+00 0. -1.
        -12    1    6    6    0    0  0.11390694288E+01  0.15632791048E+02 -0.65733596907E+01  0.16996784777E+02  0.00000000000E+00 0.  1.
</event>
<event>
12    1  0.1050869E+000  0.2193343E+03  0.7818608E-02  0.1135014E+00
         21   -1    0    0  501  502  0.00000000000E+00  0.00000000000E+00  0.19279902066E+03  0.19279902066E+03  0.00000000000E+00 0. -1.
         21   -1    0    0  502  503 -0.00000000000E+00 -0.00000000000E+00 -0.11071746922E+04  0.11071746922E+04  0.00000000000E+00 0. -1.
         -6    2    1    2    0  503  0.12272798983E+03 -0.53391874662E+02  0.11693207708E+03  0.24560034529E+03  0.16950978494E+03 0.  0.
        -24    2    3    3    0    0  0.13661404056E+03 -0.14846479251E+02  0.12612481014E+03  0.20334911746E+03  0.80991245300E+02 0.  0.
          6    2    1    2  501    0 -0.12272798983E+03  0.53391874662E+02 -0.10313077487E+04  0.10543733676E+04  0.17376614775E+03 0.  0.
         24    2    5    5    0    0 -0.99649441752E+02  0.18490652903E+02 -0.97710836671E+03  0.98574117643E+03  0.81688378177E+02 0.  0.
          5    1    5    5  501    0 -0.23078548080E+02  0.34901221759E+02 -0.54199381943E+02  0.68632191169E+02  0.47000000000E+01 0. -1.
        -13    1    6    6    0    0 -0.51454155418E+02  0.32327169432E+01 -0.18581485610E+03  0.19283449203E+03  0.00000000000E+00 0.  1.
         14    1    6    6    0    0 -0.48195286334E+02  0.15257935960E+02 -0.79129351062E+03  0.79290668441E+03  0.00000000000E+00 0. -1.
         -5    1    3    3    0  503 -0.13886050729E+02 -0.38545395411E+02 -0.91927330569E+01  0.42251227832E+02  0.47000000000E+01 0.  1.
         11    1    4    4    0    0  0.27723588792E+02  0.11649418045E+02 -0.54020660908E+01  0.30553046236E+02  0.00000000000E+00 0. -1.
        -12    1    4    4    0    0  0.10889045177E+03 -0.26495897296E+02  0.13152687623E+03  0.17279607122E+03  0.00000000000E+00 0.  1.
</event>
<event>
12    1  0.1050869E+000  0.1997014E+03  0.7818608E-02  0.1150404E+00
         21   -1    0    0  503  502  0.00000000000E+00  0.00000000000E+00  0.75784468476E+02  0.75784468476E+02  0.00000000000E+00 0. -1.
         21   -1    0    0  501  503 -0.00000000000E+00 -0.00000000000E+00 -0.56987826740E+03  0.56987826740E+03  0.00000000000E+00 0. -1.
          6    2    1    2  501    0 -0.30164711923E+02 -0.94180251346E+02 -0.34256553915E+03  0.39652466687E+03  0.17349591706E+03 0.  0.
         24    2    3    3    0    0 -0.74982659239E+02 -0.94500971739E+02 -0.20006487352E+03  0.24706804785E+03  0.80397971410E+02 0.  0.
         -6    2    1    2    0  502  0.30164711923E+02  0.94180251346E+02 -0.15152825977E+03  0.24913806900E+03  0.17125750882E+03 0.  0.
        -24    2    5    5    0    0  0.59543139170E+00  0.10258638306E+03 -0.16942374274E+03  0.21325849666E+03  0.79059858755E+02 0.  0.
          5    1    3    3  501    0  0.44817947316E+02  0.32072039342E+00 -0.14250066564E+03  0.14945661902E+03  0.47000000000E+01 0. -1.
        -11    1    4    4    0    0 -0.52846312955E+02 -0.29670785247E+02 -0.15127661732E+03  0.16296534367E+03  0.00000000000E+00 0.  1.
         12    1    4    4    0    0 -0.22136346285E+02 -0.64830186493E+02 -0.48788256198E+02  0.84102704180E+02  0.00000000000E+00 0. -1.
         -5    1    5    5    0  502  0.29569280531E+02 -0.84061317105E+01  0.17895482962E+02  0.35879572348E+02  0.47000000000E+01 0.  1.
         11    1    6    6    0    0  0.12274446901E+02 -0.77394736624E+01 -0.59267425415E+01  0.15674430658E+02  0.00000000000E+00 0. -1.
        -12    1    6    6    0    0 -0.11679015509E+02  0.11032585672E+03 -0.16349700019E+03  0.19758406600E+03  0.00000000000E+00 0.  1.
</event>
<event>
12    1  0.1050869E+000  0.3511308E+03  0.7818608E-02  0.1062209E+00
         21   -1    0    0  503  502  0.00000000000E+00  0.00000000000E+00  0.20900561110E+03  0.20900561110E+03  0.00000000000E+00 0.  1.
         21   -1    0    0  501  503 -0.00000000000E+00 -0.00000000000E+00 -0.11004540740E+04  0.11004540740E+04  0.00000000000E+00 0.  1.
          6    2    1    2  501    0 -0.22135492481E+03  0.21103468345E+03  0.83129787575E+00  0.35057700168E+03  0.17137649399E+03 0.  0.
         24    2    3    3    0    0 -0.11802686227E+03  0.11123988086E+03  0.67045766578E+02  0.19232992589E+03  0.78682998559E+02 0.  0.
         -6    2    1    2    0  502  0.22135492481E+03 -0.21103468345E+03 -0.89227976074E+03  0.95888268339E+03  0.17250851783E+03 0.  0.
        -24    2    5    5    0    0  0.17410611164E+03 -0.95771039289E+02 -0.67826303875E+03  0.71120667465E+03  0.79304188184E+02 0.  0.
          5    1    3    3  501    0 -0.10332806254E+03  0.99794802588E+02 -0.66214468703E+02  0.15824707579E+03  0.47000000000E+01 0. -1.
        -11    1    4    4    0    0 -0.58753639942E+02  0.64941269963E+01  0.30698768006E+02  0.66607644073E+02  0.00000000000E+00 0.  1.
         12    1    4    4    0    0 -0.59273222331E+02  0.10474575387E+03  0.36346998573E+02  0.12572228181E+03  0.00000000000E+00 0. -1.
         -5    1    5    5    0  502  0.47248813167E+02 -0.11526364416E+03 -0.21401672199E+03  0.24767600874E+03  0.47000000000E+01 0.  1.
         13    1    6    6    0    0  0.74610272820E+02 -0.70897570467E+02 -0.43874284864E+03  0.45065335408E+03  0.00000000000E+00 0. -1.
        -14    1    6    6    0    0  0.99495838824E+02 -0.24873468822E+02 -0.23952019010E+03  0.26055332057E+03  0.00000000000E+00 0.  1.
</event>
<event>
12    1  0.1050869E+000  0.1790111E+03  0.7818608E-02  0.1170866E+00
         21   -1    0    0  501  502  0.00000000000E+00  0.00000000000E+00  0.94478251055E+03  0.94478251055E+03  0.00000000000E+00 0.  1.
         21   -1    0    0  502  503 -0.00000000000E+00 -0.00000000000E+00 -0.45153742301E+02  0.45153742301E+02  0.00000000000E+00 0.  1.
         -6    2    1    2    0  503  0.55945832097E+01 -0.27414642981E+01  0.19397762986E+03  0.26395510514E+03  0.17890265972E+03 0.  0.
        -24    2    3    3    0    0 -0.23587765218E+02 -0.56768346667E+02  0.61538233476E+02  0.11789759183E+03  0.79585552268E+02 0.  0.
          6    2    1    2  501    0 -0.55945832097E+01  0.27414642981E+01  0.70565113838E+03  0.72598114771E+03  0.17048836539E+03 0.  0.
         24    2    5    5    0    0  0.19568815808E+02  0.68575182683E+02  0.30785989633E+03  0.32196724029E+03  0.61641656556E+02 0.  0.
          5    1    5    5  501    0 -0.25163399018E+02 -0.65833718385E+02  0.39779124206E+03  0.40401390741E+03  0.47000000000E+01 0. -1.
        -13    1    6    6    0    0  0.12063568511E+02  0.25889995436E+02  0.23833254461E+03  0.24003796235E+03  0.00000000000E+00 0.  1.
         14    1    6    6    0    0  0.75052472974E+01  0.42685187248E+02  0.69527351714E+02  0.81929277940E+02  0.00000000000E+00 0. -1.
         -5    1    3    3    0  503  0.29182348427E+02  0.54026882369E+02  0.13243939638E+03  0.14605751330E+03  0.47000000000E+01 0.  1.
         13    1    4    4    0    0 -0.28972360157E+02  0.20695899159E+01 -0.43813622853E+01  0.29374771335E+02  0.00000000000E+00 0. -1.
        -14    1    4    4    0    0  0.53845949393E+01 -0.58837936583E+02  0.65919595762E+02  0.88522820500E+02  0.00000000000E+00 0.  1.
</event>
<event>
12    1  0.1050869E+000  0.1790464E+03  0.7818608E-02  0.1168791E+00
         21   -1    0    0  501  502  0.00000000000E+00  0.00000000000E+00  0.74309541264E+02  0.74309541264E+02  0.00000000000E+00 0.  1.
         21   -1    0    0  502  503 -0.00000000000E+00 -0.00000000000E+00 -0.66820584363E+03  0.66820584363E+03  0.00000000000E+00 0. -1.
         -6    2    1    2    0  503  0.25238002553E+02  0.40824386747E+02 -0.75521050100E+02  0.19408989936E+03  0.17223203158E+03 0.  0.
        -24    2    3    3    0    0  0.58714545918E+02  0.71132324464E+02 -0.21370910535E+02  0.12342464865E+03  0.79181579866E+02 0.  0.
          6    2    1    2  501    0 -0.25238002553E+02 -0.40824386747E+02 -0.51837525227E+03  0.54842548553E+03  0.17249354681E+03 0.  0.
         24    2    5    5    0    0 -0.23431392958E+02 -0.49807038326E+02 -0.52650649799E+03  0.53530454713E+03  0.79448691023E+02 0.  0.
          5    1    5    5  501    0 -0.18066095953E+01  0.89826515796E+01  0.81312457222E+01  0.13120938405E+02  0.47000000000E+01 0. -1.
        -13    1    6    6    0    0 -0.26098934217E+02 -0.24029281484E+02 -0.74080909276E+02  0.82137335330E+02  0.00000000000E+00 0.  1.
         14    1    6    6    0    0  0.26675412585E+01 -0.25777756843E+02 -0.45242558872E+03  0.45316721180E+03  0.00000000000E+00 0. -1.
         -5    1    3    3    0  503 -0.33476543365E+02 -0.30307937717E+02 -0.54150139565E+02  0.70665250720E+02  0.47000000000E+01 0.  1.
         11    1    4    4    0    0  0.93112805759E+01 -0.98126832203E+01 -0.25108667058E+02  0.28520761900E+02  0.00000000000E+00 0. -1.
        -12    1    4    4    0    0  0.49403265342E+02  0.80945007684E+02  0.37377565231E+01  0.94903886745E+02  0.00000000000E+00 0.  1.
</event>
<event>
12    1  0.1050869E+000  0.2322160E+03  0.7818608E-02  0.1125308E+00
         21   -1    0    0  503  502  0.00000000000E+00  0.00000000000E+00  0.12561205310E+04  0.12561205310E+04  0.00000000000E+00 0.  1.
         21   -1    0    0  501  503 -0.00000000000E+00 -0.00000000000E+00 -0.96803055697E+02  0.96803055697E+02  0.00000000000E+00 0.  1.
          6    2    1    2  501    0  0.11623465186E+03  0.10293562165E+03  0.10846959118E+04  0.11090124241E+04  0.17098859418E+03 0.  0.
         24    2    3    3    0    0  0.13571862536E+03  0.69571965452E+02  0.10122592481E+04  0.10267815357E+04  0.79697759582E+02 0.  0.
         -6    2    1    2    0  502 -0.11623465186E+03 -0.10293562165E+03  0.74621563511E+02  0.24391116256E+03  0.17267901141E+03 0.  0.
        -24    2    5    5    0    0 -0.12023616788E+03 -0.13359627304E+03  0.80353480088E+02  0.21211442465E+03  0.78937615540E+02 0.  0.
          5    1    3    3  501    0 -0.19483973504E+02  0.33363656201E+02  0.72436663626E+02  0.82230888454E+02  0.47000000000E+01 0. -1.
        -13    1    4    4    0    0  0.44436440015E+01 -0.95607596885E+00  0.10688198020E+01  0.46693071263E+01  0.00000000000E+00 0.  1.
         14    1    4    4    0    0  0.13127498136E+03  0.70528041421E+02  0.10111904283E+04  0.10221122285E+04  0.00000000000E+00 0. -1.
         -5    1    5    5    0  502  0.40015160158E+01  0.30660651385E+02 -0.57319165771E+01  0.31796737905E+02  0.47000000000E+01 0.  1.
         13    1    6    6    0    0 -0.87396660128E+02 -0.44192317993E+02  0.21866549915E+02  0.10034581793E+03  0.00000000000E+00 0. -1.
        -14    1    6    6    0    0 -0.32839507748E+02 -0.89403955045E+02  0.58486930173E+02  0.11176860672E+03  0.00000000000E+00 0.  1.
</event>
<event>
12    1  0.1050869E+000  0.1784229E+03  0.7818608E-02  0.1169773E+00
         21   -1    0    0  503  502  0.00000000000E+00  0.00000000000E+00  0.51305520704E+02  0.51305520704E+02  0.00000000000E+00 0. -1.
         21   -1    0    0  501  503 -0.00000000000E+00 -0.00000000000E+00 -0.11960583115E+04  0.11960583115E+04  0.00000000000E+00 0. -1.
          6    2    1    2  501    0  0.31757406932E+02  0.28824503616E+02 -0.10058557440E+04  0.10212507649E+04  0.17137083192E+03 0.  0.
         24    2    3    3    0    0  0.15213883763E+02  0.52357071220E+02 -0.30624161960E+03  0.32102974047E+03  0.79394203361E+02 0.  0.
         -6    2    1    2    0  502 -0.31757406932E+02 -0.28824503616E+02 -0.13889704679E+03  0.22611306736E+03  0.17319164160E+03 0.  0.
        -24    2    5    5    0    0 -0.42553181638E+02 -0.59561520733E+01 -0.16524784304E+03  0.18928964117E+03  0.81715785563E+02 0.  0.
          5    1    3    3  501    0  0.16543523169E+02 -0.23532567604E+02 -0.69961412444E+03  0.70022102441E+03  0.47000000000E+01 0. -1.
        -13    1    4    4    0    0  0.26839193492E+02  0.25985779101E+02 -0.46284282699E+02  0.59479726359E+02  0.00000000000E+00 0.  1.
         14    1    4    4    0    0 -0.11625309729E+02  0.26371292118E+02 -0.25995733690E+03  0.26155001411E+03  0.00000000000E+00 0. -1.
         -5    1    5    5    0  502  0.10795774706E+02 -0.22868351543E+02  0.26350796248E+02  0.36823426194E+02  0.47000000000E+01 0.  1.
         11    1    6    6    0    0 -0.17553082964E+02  0.34721404375E+02 -0.42686664305E+02  0.57756713487E+02  0.00000000000E+00 0. -1.
        -12    1    6    6    0    0 -0.25000098674E+02 -0.40677556448E+02 -0.12256117873E+03  0.13153292768E+03  0.00000000000E+00 0.  1.
</event>
<event>
12    1  0.1050869E+000  0.2141430E+03  0.7818608E-02  0.1138746E+00
         21   -1    0    0  501  502  0.00000000000E+00  0.00000000000E+00  0.56597369558E+03  0.56597369558E+03  0.00000000000E+00 0. -1.
         21   -1    0    0  502  503 -0.00000000000E+00 -0.00000000000E+00 -0.80342446588E+02  0.80342446588E+02  0.00000000000E+00 0. -1.
         -6    2    1    2    0  503  0.11178964900E+03 -0.53907477409E+02  0.25726837498E+03  0.33473012189E+03  0.17451159272E+03 0.  0.
        -24    2    3    3    0    0  0.12389348621E+03  0.11008482582E+02  0.16628726294E+03  0.22221240113E+03  0.79095605354E+02 0.  0.
          6    2    1    2  501    0 -0.11178964900E+03  0.53907477409E+02  0.22836287401E+03  0.31158602027E+03  0.17185256489E+03 0.  0.
         24    2    5    5    0    0 -0.13896922519E+03  0.74768495134E+02  0.17959987263E+03  0.25180448696E+03  0.79035510923E+02 0.  0.
          5    1    5    5  501    0  0.27179576192E+02 -0.20861017725E+02  0.48763001379E+02  0.59781533319E+02  0.47000000000E+01 0. -1.
        -11    1    6    6    0    0 -0.83353808296E+02  0.78270711739E+01  0.12001685861E+03  0.14633238449E+03  0.00000000000E+00 0.  1.
         12    1    6    6    0    0 -0.55615416895E+02  0.66941423960E+02  0.59583014024E+02  0.10547210247E+03  0.00000000000E+00 0. -1.
         -5    1    3    3    0  503 -0.12103837214E+02 -0.64915959991E+02  0.90981112035E+02  0.11251772076E+03  0.47000000000E+01 0.  1.
         11    1    4    4    0    0  0.97391036833E+02  0.16672748566E+02  0.16816679079E+03  0.19504631277E+03  0.00000000000E+00 0. -1.
        -12    1    4    4    0    0  0.26502449379E+02 -0.56642659839E+01 -0.18795278457E+01  0.27166088367E+02  0.00000000000E+00 0.  1.
</event>
<event>
12    1  0.1050869E+000  0.1836834E+03  0.7818608E-02  0.1165453E+00
         21   -1    0    0  503  502  0.00000000000E+00  0.00000000000E+00  0.53572999897E+02  0.53572999897E+02  0.00000000000E+00 0.  1.
         21   -1    0    0  501  503 -0.00000000000E+00 -0.00000000000E+00 -0.93636984471E+03  0.93636984471E+03  0.00000000000E+00 0.  1.
          6    2    1    2  501    0  0.64510209203E+02 -0.35428776024E+01 -0.73608197751E+03  0.75865425350E+03  0.17194615338E+03 0.  0.
         24    2    3    3    0    0  0.65503858141E+02 -0.32933811781E+02 -0.27946684025E+03  0.30106897410E+03  0.84648809642E+02 0.  0.
         -6    2    1    2    0  502 -0.64510209203E+02  0.35428776024E+01 -0.14671486730E+03  0.23128859111E+03  0.16671844834E+03 0.  0.
        -24    2    5    5    0    0 -0.25340784795E+02 -0.19028905874E+02 -0.92066281399E+01  0.86463403193E+02  0.79918104689E+02 0.  0.
          5    1    3    3  501    0 -0.99364893749E+00  0.29390934179E+02 -0.45661513726E+03  0.45758527940E+03  0.47000000000E+01 0. -1.
        -13    1    4    4    0    0 -0.16338911221E+02  0.42606384639E+01 -0.87247073338E+02  0.88865993867E+02  0.00000000000E+00 0.  1.
         14    1    4    4    0    0  0.81842769362E+02 -0.37194450245E+02 -0.19221976692E+03  0.21220298023E+03  0.00000000000E+00 0. -1.
         -5    1    5    5    0  502 -0.39169424408E+02  0.22571783477E+02 -0.13750823916E+03  0.14482518791E+03  0.47000000000E+01 0.  1.
         13    1    6    6    0    0 -0.28445463078E+02 -0.30978063812E+02 -0.37022493059E+02  0.56030793316E+02  0.00000000000E+00 0. -1.
        -14    1    6    6    0    0  0.31046782834E+01  0.11949157938E+02  0.27815864919E+02  0.30432609876E+02  0.00000000000E+00 0.  1.
</event>
<event>
12    1  0.1050869E+000  0.1906186E+03  0.7818608E-02  0.1158507E+00
         21   -1    0    0  503  502  0.00000000000E+00  0.00000000000E+00  0.58131784686E+03  0.58131784686E+03  0.00000000000E+00 0. -1.
         21   -1    0    0  501  503 -0.00000000000E+00 -0.00000000000E+00 -0.63081107638E+02  0.63081107638E+02  0.00000000000E+00 0. -1.
          6    2    1    2  501    0 -0.23091418190E+02 -0.73195047973E+02  0.30968932779E+03  0.36365223456E+03  0.17448420935E+03 0.  0.
         24    2    3    3    0    0 -0.23542325982E+02 -0.67097250686E+02  0.79824374024E+02  0.13365794459E+03  0.80226138513E+02 0.  0.
         -6    2    1    2    0  502  0.23091418190E+02  0.73195047973E+02  0.20854741143E+03  0.28074671993E+03  0.17156913854E+03 0.  0.
        -24    2    5    5    0    0 -0.22796016118E+02  0.10373340046E+03  0.13013010295E+03  0.18477999722E+03  0.77003421718E+02 0.  0.
          5    1    3    3  501    0  0.45090779232E+00 -0.60977972866E+01  0.22986495377E+03  0.22999428997E+03  0.47000000000E+01 0. -1.
        -13    1    4    4    0    0 -0.29559997946E+02 -0.21637973533E+02  0.79794812800E+02  0.87802092954E+02  0.00000000000E+00 0.  1.
         14    1    4    4    0    0  0.60176719644E+01 -0.45459277154E+02  0.29561223433E-01  0.45855851634E+02  0.00000000000E+00 0. -1.
         -5    1    5    5    0  502  0.45887434308E+02 -0.30538352487E+02  0.78417308482E+02  0.95966722719E+02  0.47000000000E+01 0.  1.
         13    1    6    6    0    0 -0.28336105513E+02  0.56216580075E+01  0.12425988166E+02  0.31447465658E+02  0.00000000000E+00 0. -1.
        -14    1    6    6    0    0  0.55400893953E+01  0.98111742452E+02  0.11770411478E+03  0.15333253156E+03  0.00000000000E+00 0.  1.
</event>
<event>
12    1  0.1050869E+000  0.2073209E+03  0.7818608E-02  0.1145519E+00
         21   -1    0    0  503  502  0.00000000000E+00  0.00000000000E+00  0.13711352476E+03  0.13711352476E+03  0.00000000000E+00 0. -1.
         21   -1    0    0  501  503 -0.00000000000E+00 -0.00000000000E+00 -0.10266895647E+04  0.10266895647E+04  0.00000000000E+00 0.  1.
          6    2    1    2  501    0 -0.54093182625E+02  0.82779274782E+02  0.47454694385E+02  0.20411118845E+03  0.17213642407E+03 0.  0.
         24    2    3    3    0    0 -0.43087527138E+02 -0.15189446087E+02 -0.75429601158E+01  0.91125230380E+02  0.78483482958E+02 0.  0.
         -6    2    1    2    0  502  0.54093182625E+02 -0.82779274782E+02 -0.93703073428E+03  0.95969190095E+03  0.18221818523E+03 0.  0.
        -24    2    5    5    0    0  0.29072572864E+02 -0.49117954323E+02 -0.21445599935E+03  0.23588567484E+03  0.79955537678E+02 0.  0.
          5    1    3    3  501    0 -0.11005655488E+02  0.97968720868E+02  0.54997654500E+02  0.11298595807E+03  0.47000000000E+01 0. -1.
        -11    1    4    4    0    0 -0.59325845913E+02  0.96820931268E+01  0.13290317655E+01  0.60125412647E+02  0.00000000000E+00 0.  1.
         12    1    4    4    0    0  0.16238318775E+02 -0.24871539214E+02 -0.88719918813E+01  0.30999817732E+02  0.00000000000E+00 0. -1.
         -5    1    5    5    0  502  0.25020609761E+02 -0.33661320459E+02 -0.72257473493E+03  0.72380622612E+03  0.47000000000E+01 0.  1.
         13    1    6    6    0    0 -0.21670958447E+02  0.55938781309E+01 -0.35132652497E+02  0.41656034186E+02  0.00000000000E+00 0. -1.
        -14    1    6    6    0    0  0.50743531311E+02 -0.54711832453E+02 -0.17932334686E+03  0.19422964065E+03  0.00000000000E+00 0.  1.
</event>
<event>
12    1  0.1050869E+000  0.2482945E+03  0.7818608E-02  0.1114763E+00
         21   -1    0    0  501  502  0.00000000000E+00  0.00000000000E+00  0.21118006862E+03  0.21118006862E+03  0.00000000000E+00 0.  1.
         21   -1    0    0  502  503 -0.00000000000E+00 -0.00000000000E+00 -0.30659524134E+03  0.30659524134E+03  0.00000000000E+00 0.  1.
         -6    2    1    2    0  503  0.79506774849E+02  0.16046642932E+03  0.14202356117E+02  0.24636015735E+03  0.16858475027E+03 0.  0.
        -24    2    3    3    0    0 -0.13419865409E+02  0.10268070226E+03  0.31496760555E+02  0.13547401238E+03  0.81472343165E+02 0.  0.
          6    2    1    2  501    0 -0.79506774849E+02 -0.16046642932E+03 -0.10961752883E+03  0.27141515261E+03  0.17198656997E+03 0.  0.
         24    2    5    5    0    0 -0.47881517151E+02 -0.24452988128E+02 -0.86734895639E+02  0.12983295736E+03  0.80268713588E+02 0.  0.
          5    1    5    5  501    0 -0.31625257698E+02 -0.13601344120E+03 -0.22882633191E+02  0.14158219525E+03  0.47000000000E+01 0. -1.
        -11    1    6    6    0    0  0.19002435211E+02 -0.21244557824E+02 -0.35458070600E+02  0.45493939726E+02  0.00000000000E+00 0.  1.
         12    1    6    6    0    0 -0.66883952362E+02 -0.32084303039E+01 -0.51276825038E+02  0.84339017629E+02  0.00000000000E+00 0. -1.
         -5    1    3    3    0  503  0.92926640258E+02  0.57785727062E+02 -0.17294404438E+02  0.11088614497E+03  0.47000000000E+01 0.  1.
         13    1    4    4    0    0  0.74368066047E+00  0.55126122993E+02 -0.24782113153E+02  0.60444980185E+02  0.00000000000E+00 0. -1.
        -14    1    4    4    0    0 -0.14163546069E+02  0.47554579269E+02  0.56278873708E+02  0.75029032198E+02  0.00000000000E+00 0.  1.
</event>
<event>
12    1  0.1050869E+000  0.2192734E+03  0.7818608E-02  0.1135150E+00
         21   -1    0    0  501  502  0.00000000000E+00  0.00000000000E+00  0.27288594451E+03  0.27288594451E+03  0.00000000000E+00 0.  1.
         21   -1    0    0  502  503 -0.00000000000E+00 -0.00000000000E+00 -0.17325399756E+03  0.17325399756E+03  0.00000000000E+00 0.  1.
         -6    2    1    2    0  503  0.38152138030E+02  0.13062743380E+03  0.55346839825E+02  0.22243930029E+03  0.16702352390E+03 0.  0.
        -24    2    3    3    0    0  0.56263936862E+02  0.83564232376E+02  0.93866413861E+02  0.15880888485E+03  0.79124880615E+02 0.  0.
          6    2    1    2  501    0 -0.38152138030E+02 -0.13062743380E+03  0.44285107133E+02  0.22370064178E+03  0.17193514568E+03 0.  0.
         24    2    5    5    0    0  0.24669751318E+02 -0.69277304411E+02  0.73972040975E+02  0.13088990857E+03  0.79071889974E+02 0.  0.
          5    1    5    5  501    0 -0.62821889348E+02 -0.61350129387E+02 -0.29686933842E+02  0.92810733205E+02  0.47000000000E+01 0. -1.
        -13    1    6    6    0    0  0.22294976544E+02  0.11827342630E+02  0.85037214199E+01  0.26632035048E+02  0.00000000000E+00 0.  1.
         14    1    6    6    0    0  0.23747747734E+01 -0.81104647041E+02  0.65468319556E+02  0.10425787353E+03  0.00000000000E+00 0. -1.
         -5    1    3    3    0  503 -0.18111798832E+02  0.47063201423E+02 -0.38519574036E+02  0.63630415439E+02  0.47000000000E+01 0.  1.
         13    1    4    4    0    0 -0.29048524219E+01  0.64953089143E+02  0.58183586430E+02  0.87250625709E+02  0.00000000000E+00 0. -1.
        -14    1    4    4    0    0  0.59168789284E+02  0.18611143233E+02  0.35682827432E+02  0.71558259141E+02  0.00000000000E+00 0.  1.
</event>
<event>
12    1  0.1050869E+000  0.3998908E+03  0.7818608E-02  0.1044027E+00
         21   -1    0    0  501  502  0.00000000000E+00  0.00000000000E+00  0.20637220075E+04  0.20637220075E+04  0.00000000000E+00 0. -1.
         21   -1    0    0  502  503 -0.00000000000E+00 -0.00000000000E+00 -0.82023045813E+02  0.82023045813E+02  0.00000000000E+00 0.  1.
         -6    2    1    2    0  503 -0.34941452043E+03 -0.80517458199E+02  0.12529876314E+04  0.13145213501E+04  0.17150745569E+03 0.  0.
        -24    2    3    3    0    0 -0.97736339169E+02 -0.60454265085E+02  0.55459637631E+03  0.57187952945E+03  0.79132454965E+02 0.  0.
          6    2    1    2  501    0  0.34941452043E+03  0.80517458199E+02  0.72871133026E+03  0.83122370315E+03  0.17702845440E+03 0.  0.
         24    2    5    5    0    0  0.25512073230E+03  0.54689459446E+02  0.37194900472E+03  0.46127796264E+03  0.79710549368E+02 0.  0.
          5    1    5    5  501    0  0.94293788136E+02  0.25827998753E+02  0.35676232554E+03  0.36994574051E+03  0.47000000000E+01 0. -1.
        -13    1    6    6    0    0  0.19886686835E+03  0.11571064370E+02  0.30134400399E+03  0.36123417557E+03  0.00000000000E+00 0.  1.
         14    1    6    6    0    0  0.56253863948E+02  0.43118395077E+02  0.70605000728E+02  0.10004378707E+03  0.00000000000E+00 0. -1.
         -5    1    3    3    0  503 -0.25167818126E+03 -0.20063193114E+02  0.69839125510E+03  0.74264182069E+03  0.47000000000E+01 0.  1.
         11    1    4    4    0    0 -0.19043854932E+02  0.13457510814E+02  0.42017423074E+02  0.48054519556E+02  0.00000000000E+00 0. -1.
        -12    1    4    4    0    0 -0.78692484238E+02 -0.73911775900E+02  0.51257895323E+03  0.52382500989E+03  0.00000000000E+00 0.  1.
</event>
<event>
12    1  0.1050869E+000  0.1774922E+03  0.7818608E-02  0.1171001E+00
         21   -1    0    0  503  502  0.00000000000E+00  0.00000000000E+00  0.36826149480E+03  0.36826149480E+03  0.00000000000E+00 0. -1.
         21   -1    0    0  501  503 -0.00000000000E+00 -0.00000000000E+00 -0.10086470671E+03  0.10086470671E+03  0.00000000000E+00 0. -1.
          6    2    1    2  501    0 -0.26103879622E+02  0.15686732737E+02  0.37121810795E+02  0.17838566784E+03  0.17180201262E+03 0.  0.
         24    2    3    3    0    0 -0.64970723467E+02  0.25659717012E+02  0.68270974082E+02  0.12737143121E+03  0.81749248320E+02 0.  0.
         -6    2    1    2    0  502  0.26103879622E+02 -0.15686732737E+02  0.23027497730E+03  0.29074053367E+03  0.17485996293E+03 0.  0.
        -24    2    5    5    0    0  0.28038221014E+02  0.26734973160E+02  0.23148276103E+03  0.24799838177E+03  0.80112596255E+02 0.  0.
          5    1    3    3  501    0  0.38866843845E+02 -0.99729842746E+01 -0.31149163287E+02  0.51014236634E+02  0.47000000000E+01 0. -1.
        -13    1    4    4    0    0 -0.42712533544E+02  0.65847892783E+00 -0.85585290046E+01  0.43566529985E+02  0.00000000000E+00 0.  1.
         14    1    4    4    0    0 -0.22258189923E+02  0.25001238084E+02  0.76829503087E+02  0.83804901223E+02  0.00000000000E+00 0. -1.
         -5    1    5    5    0  502 -0.19343413923E+01 -0.42421705897E+02 -0.12077837300E+01  0.42742151904E+02  0.47000000000E+01 0.  1.
         11    1    6    6    0    0 -0.11688453457E+02  0.42016410642E+02  0.86137261063E+02  0.96548570423E+02  0.00000000000E+00 0. -1.
        -12    1    6    6    0    0  0.39726674471E+02 -0.15281437481E+02  0.14534549997E+03  0.15144981135E+03  0.00000000000E+00 0.  1.
</event>
<event>
12    1  0.1050869E+000  0.2094307E+03  0.7818608E-02  0.1142231E+00
         21   -1    0    0  501  502  0.00000000000E+00  0.00000000000E+00  0.39844161666E+03  0.39844161666E+03  0.00000000000E+00 0.  1.
         21   -1    0    0  502  503 -0.00000000000E+00 -0.00000000000E+00 -0.10991141567E+03  0.10991141567E+03  0.00000000000E+00 0. -1.
         -6    2    1    2    0  503 -0.77780282144E+02  0.89433618788E+02  0.15906789755E+03  0.26213829624E+03  0.17136436579E+03 0.  0.
        -24    2    3    3    0    0 -0.93477396024E+02  0.75708528217E+02  0.57435403596E+02  0.15828247636E+03  0.85350523866E+02 0.  0.
          6    2    1    2  501    0  0.77780282144E+02 -0.89433618788E+02  0.12946230344E+03  0.24621473609E+03  0.17266459914E+03 0.  0.
         24    2    5    5    0    0 -0.14040627387E+02 -0.60421392308E+01  0.27395018134E+02  0.85513027884E+02  0.79550890978E+02 0.  0.
          5    1    5    5  501    0  0.91820909530E+02 -0.83391479557E+02  0.10206728531E+03  0.16070170820E+03  0.47000000000E+01 0. -1.
        -11    1    6    6    0    0 -0.14260207925E+02 -0.13477891691E+02  0.54227595032E+02  0.57668354905E+02  0.00000000000E+00 0.  1.
         12    1    6    6    0    0  0.21958053857E+00  0.74357524605E+01 -0.26832576898E+02  0.27844672978E+02  0.00000000000E+00 0. -1.
         -5    1    3    3    0  503  0.15697113880E+02  0.13725090571E+02  0.10163249396E+03  0.10385581988E+03  0.47000000000E+01 0.  1.
         13    1    4    4    0    0  0.64413160206E+01  0.30676236004E+02 -0.56128864373E+01  0.31843782778E+02  0.00000000000E+00 0. -1.
        -14    1    4    4    0    0 -0.99918712044E+02  0.45032292213E+02  0.63048290033E+02  0.12643869358E+03  0.00000000000E+00 0.  1.
</event>
<event>
12    1  0.1050869E+000  0.7656770E+03  0.7818608E-02  0.9611115E-01
         21   -1    0    0  503  502  0.00000000000E+00  0.00000000000E+00  0.94586085503E+03  0.94586085503E+03  0.00000000000E+00 0. -1.
         21   -1    0    0  501  503 -0.00000000000E+00 -0.00000000000E+00 -0.66671774554E+03  0.66671774554E+03  0.00000000000E+00 0. -1.
          6    2    1    2  501    0 -0.31761092747E+03 -0.67493558036E+03  0.35363847559E+03  0.84339870691E+03  0.17276130505E+03 0.  0.
         24    2    3    3    0    0 -0.26428118028E+03 -0.57881845347E+03  0.23887179593E+03  0.68441429014E+03  0.80547137325E+02 0.  0.
         -6    2    1    2    0  502  0.31761092747E+03  0.67493558036E+03 -0.74495366089E+02  0.76917989366E+03  0.17225971776E+03 0.  0.
        -24    2    5    5    0    0  0.10794447371E+03  0.30335229903E+03 -0.85908356330E+02  0.34234678443E+03  0.78399288179E+02 0.  0.
          5    1    3    3  501    0 -0.53329747190E+02 -0.96117126890E+02  0.11476667965E+03  0.15898441677E+03  0.47000000000E+01 0. -1.
        -13    1    4    4    0    0 -0.20481315269E+03 -0.36113174161E+03  0.14122621703E+03  0.43853096434E+03  0.00000000000E+00 0.  1.
         14    1    4    4    0    0 -0.59468027592E+02 -0.21768671186E+03  0.97645578903E+02  0.24588332580E+03  0.00000000000E+00 0. -1.
         -5    1    5    5    0  502  0.20966645376E+03  0.37158328133E+03  0.11412990241E+02  0.42683310923E+03  0.47000000000E+01 0.  1.
         13    1    6    6    0    0  0.11206784239E+02  0.12226171001E+03 -0.89945923842E+01  0.12310329175E+03  0.00000000000E+00 0. -1.
        -14    1    6    6    0    0  0.96737689474E+02  0.18109058903E+03 -0.76913763945E+02  0.21924349268E+03  0.00000000000E+00 0.  1.
</event>
<event>
12    1  0.1294119E+000  0.1925762E+03  0.7818608E-02  0.1157101E+00
         21   -1    0    0  501  502  0.00000000000E+00  0.00000000000E+00  0.84671329008E+03  0.84671329008E+03  0.00000000000E+00 0.  1.
         21   -1    0    0  502  503 -0.00000000000E+00 -0.00000000000E+00 -0.17652819335E+03  0.17652819335E+03  0.00000000000E+00 0.  1.
         -6    2    1    2    0  503  0.73633116747E+02 -0.22593483831E+02  0.78120322446E+03  0.80458937654E+03  0.17650293352E+03 0.  0.
        -24    2    3    3    0    0 -0.96736983794E+01  0.39086044545E+02  0.35790270217E+03  0.36875705576E+03  0.79158844308E+02 0.  0.
          6    2    1    2  501    0 -0.73633116747E+02  0.22593483831E+02 -0.11101812774E+03  0.21865210689E+03  0.17190525812E+03 0.  0.
         24    2    5    5    0    0 -0.50399164636E+02  0.58016794125E+02 -0.11980546746E+02  0.11083207215E+03  0.78956890264E+02 0.  0.
          5    1    5    5  501    0 -0.23233952111E+02 -0.35423310294E+02 -0.99037580989E+02  0.10782003474E+03  0.47000000000E+01 0. -1.
        -13    1    6    6    0    0 -0.71117679422E+02  0.40384492696E+02 -0.15989667489E+02  0.83332472921E+02  0.00000000000E+00 0.  1.
         14    1    6    6    0    0  0.20718514786E+02  0.17632301429E+02  0.40091207428E+01  0.27499599229E+02  0.00000000000E+00 0. -1.
         -5    1    3    3    0  503  0.83306815127E+02 -0.61679528376E+02  0.42330052229E+03  0.43583232078E+03  0.47000000000E+01 0.  1.
         11    1    4    4    0    0  0.26753332972E+00  0.12660649714E+01  0.29286908120E+03  0.29287193996E+03  0.00000000000E+00 0. -1.
        -12    1    4    4    0    0 -0.99412317091E+01  0.37819979574E+02  0.65033620974E+02  0.75885115799E+02  0.00000000000E+00 0.  1.
</event>
<event>
12    1  0.1050869E+000  0.1859844E+03  0.7818608E-02  0.1162468E+00
         21   -1    0    0  503  502  0.00000000000E+00  0.00000000000E+00  0.13500713269E+03  0.13500713269E+03  0.00000000000E+00 0.  1.
         21   -1    0    0  501  503 -0.00000000000E+00 -0.00000000000E+00 -0.43317423230E+03  0.43317423230E+03  0.00000000000E+00 0.  1.
          6    2    1    2  501    0  0.32624951578E+02 -0.57269142400E+02  0.33167261772E+02  0.18891865028E+03  0.17391390696E+03 0.  0.
         24    2    3    3    0    0  0.39573584673E+02 -0.35145052568E+02 -0.45697491191E+02  0.10658094256E+03  0.80436268514E+02 0.  0.
         -6    2    1    2    0  502 -0.32624951578E+02  0.57269142400E+02 -0.33133436138E+03  0.37926271471E+03  0.17237634872E+03 0.  0.
        -24    2    5    5    0    0 -0.42114886707E+02  0.10295264065E+03 -0.22817098873E+03  0.26594099421E+03  0.79307644037E+02 0.  0.
          5    1    3    3  501    0 -0.69486330948E+01 -0.22124089832E+02  0.78864752963E+02  0.82337707721E+02  0.47000000000E+01 0. -1.
        -13    1    4    4    0    0  0.75319245089E+01 -0.22403363171E+02  0.20922711159E+02  0.31565810783E+02  0.00000000000E+00 0.  1.
         14    1    4    4    0    0  0.32041660164E+02 -0.12741689397E+02 -0.66620202349E+02  0.75015131779E+02  0.00000000000E+00 0. -1.
         -5    1    5    5    0  502  0.94899351286E+01 -0.45683498248E+02 -0.10316337265E+03  0.11332172050E+03  0.47000000000E+01 0.  1.
         11    1    6    6    0    0 -0.47600549421E+02  0.31433007306E+02 -0.58386027478E+02  0.81625819800E+02  0.00000000000E+00 0. -1.
        -12    1    6    6    0    0  0.54856627138E+01  0.71519633341E+02 -0.16978496125E+03  0.18431517441E+03  0.00000000000E+00 0.  1.
</event>
<event>
12    1  0.1050869E+000  0.2590604E+03  0.7818608E-02  0.1107917E+00
         21   -1    0    0  503  502  0.00000000000E+00  0.00000000000E+00  0.14420875789E+03  0.14420875789E+03  0.00000000000E+00 0.  1.
         21   -1    0    0  501  503 -0.00000000000E+00 -0.00000000000E+00 -0.62803892399E+03  0.62803892399E+03  0.00000000000E+00 0.  1.
          6    2    1    2  501    0 -0.19370189489E+03 -0.11308208150E+02 -0.44402924781E+02  0.26283813709E+03  0.17165071198E+03 0.  0.
         24    2    3    3    0    0 -0.48017692375E+02  0.35590126861E+02 -0.47928535877E+02  0.10967854508E+03  0.78484920773E+02 0.  0.
         -6    2    1    2    0  502  0.19370189489E+03  0.11308208150E+02 -0.43942724131E+03  0.50940954479E+03  0.16956852380E+03 0.  0.
        -24    2    5    5    0    0  0.20591931347E+03 -0.17455843995E+01 -0.43725731677E+03  0.49079596402E+03  0.85328228109E+02 0.  0.
          5    1    3    3  501    0 -0.14568420252E+03 -0.46898335011E+02  0.35256110953E+01  0.15315959201E+03  0.47000000000E+01 0. -1.
        -13    1    4    4    0    0  0.75850274803E+01 -0.17938886972E+02 -0.19127261160E+02  0.27298139628E+02  0.00000000000E+00 0.  1.
         14    1    4    4    0    0 -0.55602719855E+02  0.53529013833E+02 -0.28801274717E+02  0.82380405453E+02  0.00000000000E+00 0. -1.
         -5    1    5    5    0  502 -0.12217418576E+02  0.13053792549E+02 -0.21699245472E+01  0.18613580771E+02  0.47000000000E+01 0.  1.
         13    1    6    6    0    0  0.11885139307E+03 -0.41500126633E+02 -0.27429472507E+03  0.30180376132E+03  0.00000000000E+00 0. -1.
        -14    1    6    6    0    0  0.87067920397E+02  0.39754542234E+02 -0.16296259170E+03  0.18899220270E+03  0.00000000000E+00 0.  1.
</event>
<event>
12    1  0.1050869E+000  0.1778660E+03  0.7818608E-02  0.1170025E+00
         21   -1    0    0  501  502  0.00000000000E+00  0.00000000000E+00  0.12057161965E+03  0.12057161965E+03  0.00000000000E+00 0. -1.
         21   -1    0    0  502  503 -0.00000000000E+00 -0.00000000000E+00 -0.26256662323E+03  0.26256662323E+03  0.00000000000E+00 0. -1.
         -6    2    1    2    0  503  0.22539783073E+02  0.37989847952E+02 -0.58938504014E+02  0.18683565630E+03  0.17170481892E+03 0.  0.
        -24    2    3    3    0    0 -0.13553488050E+02 -0.44744370605E+02 -0.18810473258E+02  0.87941652470E+02  0.72070414150E+02 0.  0.
          6    2    1    2  501    0 -0.22539783073E+02 -0.37989847952E+02 -0.83056499559E+02  0.19630258658E+03  0.17229350833E+03 0.  0.
         24    2    5    5    0    0  0.97090734953E+01 -0.13745948908E+02 -0.11671302890E+03  0.14355216139E+03  0.81866200017E+02 0.  0.
          5    1    5    5  501    0 -0.32248856568E+02 -0.24243899044E+02  0.33656529340E+02  0.52750425193E+02  0.47000000000E+01 0. -1.
        -11    1    6    6    0    0 -0.20058380033E+02 -0.31755960885E+02 -0.24119057182E+02  0.44637524356E+02  0.00000000000E+00 0.  1.
         12    1    6    6    0    0  0.29767453528E+02  0.18010011977E+02 -0.92593971718E+02  0.98914637034E+02  0.00000000000E+00 0. -1.
         -5    1    3    3    0  503  0.36093271124E+02  0.82734218557E+02 -0.40128030756E+02  0.98894003828E+02  0.47000000000E+01 0.  1.
         13    1    4    4    0    0  0.15105799924E+01  0.36710053896E+01 -0.34606455202E+02  0.34833387348E+02  0.00000000000E+00 0. -1.
        -14    1    4    4    0    0 -0.15064068043E+02 -0.48415375995E+02  0.15795981944E+02  0.53108265122E+02  0.00000000000E+00 0.  1.
</event>
<event>
12    1  0.1050869E+000  0.1859750E+03  0.7818608E-02  0.1162181E+00
         21   -1    0    0  503  502  0.00000000000E+00  0.00000000000E+00  0.15701434094E+03  0.15701434094E+03  0.00000000000E+00 0. -1.
         21   -1    0    0  501  503 -0.00000000000E+00 -0.00000000000E+00 -0.26189435120E+03  0.26189435120E+03  0.00000000000E+00 0. -1.
          6    2    1    2  501    0 -0.71375646218E+02  0.94229510786E+01  0.31269786821E+02  0.18842337423E+03  0.17129592379E+03 0.  0.
         24    2    3    3    0    0 -0.11070349503E+03  0.21648082254E+02  0.45322426661E+02  0.14465466153E+03  0.78402458294E+02 0.  0.
         -6    2    1    2    0  502  0.71375646218E+02 -0.94229510786E+01 -0.13614979708E+03  0.23048531792E+03  0.17147431193E+03 0.  0.
        -24    2    5    5    0    0  0.73153643377E+02  0.14028079315E+01 -0.16666964350E+03  0.19771476166E+03  0.77194128676E+02 0.  0.
          5    1    3    3  501    0  0.39327848816E+02 -0.12225131175E+02 -0.14052639840E+02  0.43768712698E+02  0.47000000000E+01 0. -1.
        -13    1    4    4    0    0 -0.59675909908E+02 -0.27103993089E+02  0.12089897856E+02  0.66648378037E+02  0.00000000000E+00 0.  1.
         14    1    4    4    0    0 -0.51027585126E+02  0.48752075343E+02  0.33232528805E+02  0.78006283495E+02  0.00000000000E+00 0. -1.
         -5    1    5    5    0  502 -0.17779971589E+01 -0.10825759010E+02  0.30519846422E+02  0.32770556261E+02  0.47000000000E+01 0.  1.
         11    1    6    6    0    0  0.28620073068E+02 -0.37326406357E+02 -0.81408752410E+02  0.94019966831E+02  0.00000000000E+00 0. -1.
        -12    1    6    6    0    0  0.44533570310E+02  0.38729214289E+02 -0.85260891092E+02  0.10369479482E+03  0.00000000000E+00 0.  1.
</event>
<event>
12    1  0.1050869E+000  0.1870985E+03  0.7818608E-02  0.1161302E+00
         21   -1    0    0  503  502  0.00000000000E+00  0.00000000000E+00  0.20172329528E+03  0.20172329528E+03  0.00000000000E+00 0. -1.
         21   -1    0    0  501  503 -0.00000000000E+00 -0.00000000000E+00 -0.18678167846E+03  0.18678167846E+03  0.00000000000E+00 0. -1.
          6    2    1    2  501    0  0.36401012121E+02 -0.63629475466E+02 -0.45807042689E+02  0.19179132492E+03  0.17120713572E+03 0.  0.
         24    2    3    3    0    0 -0.17454601700E+02 -0.90278338571E+02 -0.46547514061E+02  0.13151506638E+03  0.81698837722E+02 0.  0.
         -6    2    1    2    0  502 -0.36401012121E+02  0.63629475466E+02  0.60748659504E+02  0.19671364882E+03  0.17213981576E+03 0.  0.
        -24    2    5    5    0    0 -0.15772190143E+02 -0.22298989955E+02  0.66761270946E+02  0.10801477080E+03  0.80399729342E+02 0.  0.
          5    1    3    3  501    0  0.53855613821E+02  0.26648863104E+02  0.74047137223E+00  0.60276258532E+02  0.47000000000E+01 0. -1.
        -13    1    4    4    0    0  0.46065385559E+01 -0.41352105540E+02 -0.62893595612E+02  0.75411015104E+02  0.00000000000E+00 0.  1.
         14    1    4    4    0    0 -0.22061140256E+02 -0.48926233030E+02  0.16346081550E+02  0.56104051280E+02  0.00000000000E+00 0. -1.
         -5    1    5    5    0  502 -0.20628821978E+02  0.85928465421E+02 -0.60126114424E+01  0.88698878021E+02  0.47000000000E+01 0.  1.
         11    1    6    6    0    0 -0.46210149892E+02  0.77827091748E+00  0.42332150479E+02  0.62673715567E+02  0.00000000000E+00 0. -1.
        -12    1    6    6    0    0  0.30437959750E+02 -0.23077260873E+02  0.24429120467E+02  0.45341055236E+02  0.00000000000E+00 0.  1.
</event>
<event>
12    1  0.1050869E+000  0.2058157E+03  0.7818608E-02  0.1144937E+00
         21   -1    0    0  501  502  0.00000000000E+00  0.00000000000E+00  0.41215156710E+02  0.41215156710E+02  0.00000000000E+00 0.  1.
         21   -1    0    0  502  503 -0.00000000000E+00 -0.00000000000E+00 -0.11224378031E+04  0.11224378031E+04  0.00000000000E+00 0.  1.
         -6    2    1    2    0  503 -0.42966162944E+02  0.10541768254E+03 -0.37124949504E+03  0.42444934636E+03  0.17138284951E+03 0.  0.
        -24    2    3    3    0    0 -0.92530173052E+02  0.51886165107E+02 -0.24886185676E+03  0.28189045165E+03  0.79221183573E+02 0.  0.
          6    2    1    2  501    0  0.42966162944E+02 -0.10541768254E+03 -0.70997315139E+03  0.73920361350E+03  0.17146756999E+03 0.  0.
         24    2    5    5    0    0 -0.26584707347E+02 -0.15466881225E+02 -0.21728954858E+03  0.23354790781E+03  0.79899350685E+02 0.  0.
          5    1    5    5  501    0  0.69550870291E+02 -0.89950801312E+02 -0.49268360281E+03  0.50565570569E+03  0.47000000000E+01 0. -1.
        -13    1    6    6    0    0  0.19068183761E+02 -0.29945645212E+02 -0.67186931854E+02  0.75989611863E+02  0.00000000000E+00 0.  1.
         14    1    6    6    0    0 -0.45652891108E+02  0.14478763987E+02 -0.15010261673E+03  0.15755829595E+03  0.00000000000E+00 0. -1.
         -5    1    3    3    0  503  0.49564010107E+02  0.53531517430E+02 -0.12238763828E+03  0.14255889470E+03  0.47000000000E+01 0.  1.
         13    1    4    4    0    0 -0.73089029776E+02  0.45414633857E+02 -0.10130613722E+03  0.13291888008E+03  0.00000000000E+00 0. -1.
        -14    1    4    4    0    0 -0.19441143276E+02  0.64715312500E+01 -0.14755571954E+03  0.14897157157E+03  0.00000000000E+00 0.  1.
</event>
<event>
12    1  0.1050869E+000  0.2079188E+03  0.7818608E-02  0.1143471E+00
         21   -1    0    0  501  502  0.00000000000E+00  0.00000000000E+00  0.60574822159E+03  0.60574822159E+03  0.00000000000E+00 0.  1.
         21   -1    0    0  502  503 -0.00000000000E+00 -0.00000000000E+00 -0.83437470054E+02  0.83437470054E+02  0.00000000000E+00 0.  1.
         -6    2    1    2    0  503 -0.96230031076E+02 -0.61483826171E+02  0.12717191488E+03  0.24268270224E+03  0.17228383056E+03 0.  0.
        -24    2    3    3    0    0 -0.49581734510E+02 -0.49985502418E+02  0.15362630380E+03  0.18763545240E+03  0.81542154305E+02 0.  0.
          6    2    1    2  501    0  0.96230031076E+02  0.61483826171E+02  0.39513883666E+03  0.44650298940E+03  0.17375194832E+03 0.  0.
         24    2    5    5    0    0  0.17816983622E+02  0.40223646496E+02  0.32960943547E+03  0.34201952817E+03  0.79997444050E+02 0.  0.
          5    1    5    5  501    0  0.78413047454E+02  0.21260179675E+02  0.65529401187E+02  0.10448346123E+03  0.47000000000E+01 0. -1.
        -13    1    6    6    0    0 -0.16646923870E+02  0.33699550435E+02  0.64918331729E+02  0.75014462395E+02  0.00000000000E+00 0.  1.
         14    1    6    6    0    0  0.34463907491E+02  0.65240960603E+01  0.26469110374E+03  0.26700506577E+03  0.00000000000E+00 0. -1.
         -5    1    3    3    0  503 -0.46648296566E+02 -0.11498323752E+02 -0.26454388926E+02  0.55047249841E+02  0.47000000000E+01 0.  1.
         13    1    4    4    0    0 -0.95644484057E+01  0.14775177468E+02  0.79341318989E+02  0.81270101768E+02  0.00000000000E+00 0. -1.
        -14    1    4    4    0    0 -0.40017286104E+02 -0.64760679886E+02  0.74284984813E+02  0.10636535063E+03  0.00000000000E+00 0.  1.
</event>
<event>
12    1  0.1050869E+000  0.2471295E+03  0.7818608E-02  0.1115227E+00
         21   -1    0    0  501  502  0.00000000000E+00  0.00000000000E+00  0.45511531364E+03  0.45511531364E+03  0.00000000000E+00 0. -1.
         21   -1    0    0  502  503 -0.00000000000E+00 -0.00000000000E+00 -0.13878645607E+03  0.13878645607E+03  0.00000000000E+00 0. -1.
         -6    2    1    2    0  503  0.10031662538E+03 -0.14634210027E+03  0.21421585814E+03  0.32704954131E+03  0.17202770984E+03 0.  0.
        -24    2    3    3    0    0  0.52390018595E+02 -0.39962694698E+02  0.24392069413E+02  0.10418478785E+03  0.76927017058E+02 0.  0.
          6    2    1    2  501    0 -0.10031662538E+03  0.14634210027E+03  0.10211299943E+03  0.26685222840E+03  0.17118297670E+03 0.  0.
         24    2    5    5    0    0 -0.11065696174E+03  0.44982780292E+02  0.65256243937E+02  0.15840341685E+03  0.81023770537E+02 0.  0.
          5    1    5    5  501    0  0.10340336360E+02  0.10135931998E+03  0.36856755490E+02  0.10844881155E+03  0.47000000000E+01 0. -1.
        -13    1    6    6    0    0 -0.10972955014E+02 -0.44409353172E+00  0.45855176851E+02  0.47151884425E+02  0.00000000000E+00 0.  1.
         14    1    6    6    0    0 -0.99684006728E+02  0.45426873824E+02  0.19401067086E+02  0.11125153243E+03  0.00000000000E+00 0. -1.
         -5    1    3    3    0  503  0.47926606789E+02 -0.10637940557E+03  0.18982378873E+03  0.22286475346E+03  0.47000000000E+01 0.  1.
         11    1    4    4    0    0  0.13168336026E+02  0.21845665247E+02  0.16903696255E+02  0.30600214229E+02  0.00000000000E+00 0. -1.
        -12    1    4    4    0    0  0.39221682568E+02 -0.61808359945E+02  0.74883731580E+01  0.73584573622E+02  0.00000000000E+00 0.  1.
</event>
<event>
12    1  0.1050869E+000  0.2909958E+03  0.7818608E-02  0.1090328E+00
         21   -1    0    0  503  502  0.00000000000E+00  0.00000000000E+00  0.14326023155E+04  0.14326023155E+04  0.00000000000E+00 0. -1.
         21   -1    0    0  501  503 -0.00000000000E+00 -0.00000000000E+00 -0.58350423286E+02  0.58350423286E+02  0.00000000000E+00 0. -1.
          6    2    1    2  501    0 -0.17842869839E+03 -0.14583471635E+03  0.67185814836E+03  0.73066626412E+03  0.17139210341E+03 0.  0.
         24    2    3    3    0    0 -0.70498922312E+02 -0.14004845861E+03  0.46979242025E+03  0.50146119041E+03  0.78579504650E+02 0.  0.
         -6    2    1    2    0  502  0.17842869839E+03  0.14583471635E+03  0.70239374385E+03  0.76028647465E+03  0.17769070669E+03 0.  0.
        -24    2    5    5    0    0  0.65111664518E+02  0.14525633536E+03  0.42849392799E+03  0.46383363892E+03  0.78712555852E+02 0.  0.
          5    1    3    3  501    0 -0.10792977608E+03 -0.57862577430E+01  0.20206572810E+03  0.22920507372E+03  0.47000000000E+01 0. -1.
        -13    1    4    4    0    0 -0.79331503217E+02 -0.74639435739E+02  0.27476095514E+03  0.29556406284E+03  0.00000000000E+00 0.  1.
         14    1    4    4    0    0  0.88325809050E+01 -0.65409022867E+02  0.19503146511E+03  0.20589712757E+03  0.00000000000E+00 0. -1.
         -5    1    5    5    0  502  0.11331703387E+03  0.57838099318E+00  0.27389981585E+03  0.29645283573E+03  0.47000000000E+01 0.  1.
         13    1    6    6    0    0 -0.13443920806E+02  0.85319991277E+01  0.17662246444E+02  0.23780011884E+02  0.00000000000E+00 0. -1.
        -14    1    6    6    0    0  0.78555585324E+02  0.13672433623E+03  0.41083168155E+03  0.44005362704E+03  0.00000000000E+00 0.  1.
</event>
<event>
12    1  0.1050869E+000  0.1961391E+03  0.7818608E-02  0.1153196E+00
         21   -1    0    0  501  502  0.00000000000E+00  0.00000000000E+00  0.51560860943E+03  0.51560860943E+03  0.00000000000E+00 0. -1.
         21   -1    0    0  502  503 -0.00000000000E+00 -0.00000000000E+00 -0.75246456046E+02  0.75246456046E+02  0.00000000000E+00 0. -1.
         -6    2    1    2    0  503  0.92710274083E+02 -0.14782121807E+02  0.25308948396E+03  0.32019498455E+03  0.17221160006E+03 0.  0.
        -24    2    3    3    0    0  0.11683719625E+03 -0.30280165020E+02  0.25257246556E+03  0.29113203521E+03  0.79982452720E+02 0.  0.
          6    2    1    2  501    0 -0.92710274083E+02  0.14782121807E+02  0.18727266942E+03  0.27066008092E+03  0.17138296487E+03 0.  0.
         24    2    5    5    0    0 -0.71453552631E+02 -0.55281394153E+02  0.12702782015E+03  0.17572707118E+03  0.81131336298E+02 0.  0.
          5    1    5    5  501    0 -0.21256721452E+02  0.70063515959E+02  0.60244849271E+02  0.94933009744E+02  0.47000000000E+01 0. -1.
        -13    1    6    6    0    0 -0.73962388111E+02 -0.27091205372E+02  0.12448402466E+03  0.14731137315E+03  0.00000000000E+00 0.  1.
         14    1    6    6    0    0  0.25088354803E+01 -0.28190188780E+02  0.25437954904E+01  0.28415698028E+02  0.00000000000E+00 0. -1.
         -5    1    3    3    0  503 -0.24126922167E+02  0.15498043213E+02  0.51701840108E+00  0.29062949346E+02  0.47000000000E+01 0.  1.
         13    1    4    4    0    0  0.13573780483E+01 -0.17216698036E+02  0.87896301567E+02  0.89576877572E+02  0.00000000000E+00 0. -1.
        -14    1    4    4    0    0  0.11547981820E+03 -0.13063466984E+02  0.16467616400E+03  0.20155515764E+03  0.00000000000E+00 0.  1.
</event>
<event>
12    1  0.1050869E+000  0.2124523E+03  0.7818608E-02  0.1139666E+00
         21   -1    0    0  503  502  0.00000000000E+00  0.00000000000E+00  0.44430085411E+03  0.44430085411E+03  0.00000000000E+00 0. -1.
         21   -1    0    0  501  503 -0.00000000000E+00 -0.00000000000E+00 -0.11843291798E+03  0.11843291798E+03  0.00000000000E+00 0. -1.
          6    2    1    2  501    0 -0.21503259268E+00 -0.12426765642E+03  0.56566107278E+02  0.21971854060E+03  0.17214533371E+03 0.  0.
         24    2    3    3    0    0 -0.30932121765E+02 -0.14908183464E+03  0.42723830318E+02  0.17761175208E+03  0.80860492344E+02 0.  0.
         -6    2    1    2    0  502  0.21503259268E+00  0.12426765642E+03  0.26930182885E+03  0.34301523149E+03  0.17231795421E+03 0.  0.
        -24    2    5    5    0    0 -0.65898801297E+02  0.49846670595E+02  0.14945423856E+03  0.18714651410E+03  0.76550021130E+02 0.  0.
          5    1    3    3  501    0  0.30717089173E+02  0.24814178221E+02  0.13842276959E+02  0.42106788519E+02  0.47000000000E+01 0. -1.
        -13    1    4    4    0    0 -0.51239497011E+01 -0.36803946725E+02  0.49861697865E+02  0.62185000354E+02  0.00000000000E+00 0.  1.
         14    1    4    4    0    0 -0.25808172064E+02 -0.11227788792E+03 -0.71378675462E+01  0.11542675173E+03  0.00000000000E+00 0. -1.
         -5    1    5    5    0  502  0.66113833889E+02  0.74420985828E+02  0.11984759029E+03  0.15586871739E+03  0.47000000000E+01 0.  1.
         13    1    6    6    0    0 -0.48296163087E+02  0.77330258142E+01  0.25719410780E+02  0.55261262635E+02  0.00000000000E+00 0. -1.
        -14    1    6    6    0    0 -0.17602638210E+02  0.42113644781E+02  0.12373482778E+03  0.13188525146E+03  0.00000000000E+00 0.  1.
</event>
<event>
12    1  0.1050869E+000  0.2276221E+03  0.7818608E-02  0.1128333E+00
         21   -1    0    0  503  502  0.00000000000E+00  0.00000000000E+00  0.10578624878E+04  0.10578624878E+04  0.00000000000E+00 0. -1.
         21   -1    0    0  501  503 -0.00000000000E+00 -0.00000000000E+00 -0.71127491262E+02  0.71127491262E+02  0.00000000000E+00 0. -1.
          6    2    1    2  501    0 -0.91345730892E+02 -0.11783974929E+03  0.17824899199E+03  0.28907245008E+03  0.17193001246E+03 0.  0.
         24    2    3    3    0    0 -0.16154880883E+02  0.55316683980E+01  0.47173097032E+02  0.93938775730E+02  0.79420482058E+02 0.  0.
         -6    2    1    2    0  502  0.91345730892E+02  0.11783974929E+03  0.80848600456E+03  0.83991752899E+03  0.17199298497E+03 0.  0.
        -24    2    5    5    0    0  0.11475184136E+03  0.52035648042E+02  0.64147645411E+03  0.65883106984E+03  0.81796354733E+02 0.  0.
          5    1    3    3  501    0 -0.75190850009E+02 -0.12337141768E+03  0.13107589496E+03  0.19513367435E+03  0.47000000000E+01 0. -1.
        -13    1    4    4    0    0  0.70210162990E+01 -0.34369190566E+02  0.21211956831E+02  0.40993695157E+02  0.00000000000E+00 0.  1.
         14    1    4    4    0    0 -0.23175897182E+02  0.39900858964E+02  0.25961140201E+02  0.52945080572E+02  0.00000000000E+00 0. -1.
         -5    1    5    5    0  502 -0.23406110464E+02  0.65804101244E+02  0.16700955045E+03  0.18108645915E+03  0.47000000000E+01 0.  1.
         13    1    6    6    0    0  0.19535094043E+02  0.45003772612E+02  0.31075343783E+03  0.31460238170E+03  0.00000000000E+00 0. -1.
        -14    1    6    6    0    0  0.95216747313E+02  0.70318754300E+01  0.33072301628E+03  0.34422868814E+03  0.00000000000E+00 0.  1.
</event>
<event>
12    1  0.1050869E+000  0.1933898E+03  0.7818608E-02  0.1155474E+00
         21   -1    0    0  501  502  0.00000000000E+00  0.00000000000E+00  0.13232072398E+03  0.13232072398E+03  0.00000000000E+00 0.  1.
         21   -1    0    0  502  503 -0.00000000000E+00 -0.00000000000E+00 -0.29188332686E+03  0.29188332686E+03  0.00000000000E+00 0.  1.
         -6    2    1    2    0  503  0.20596547470E+01  0.88514883519E+02 -0.11796067273E+03  0.22639014574E+03  0.17175171322E+03 0.  0.
        -24    2    3    3    0    0 -0.29071583406E+02  0.23267162685E+02 -0.13396570980E+01  0.89098593378E+02  0.80933595248E+02 0.  0.
          6    2    1    2  501    0 -0.20596547470E+01 -0.88514883519E+02 -0.41601930152E+02  0.19781390510E+03  0.17193165409E+03 0.  0.
         24    2    5    5    0    0  0.57058281930E+02 -0.24908023899E+02  0.80614394495E+00  0.10106010530E+03  0.79601745103E+02 0.  0.
          5    1    5    5  501    0 -0.59117936677E+02 -0.63606859620E+02 -0.42408074097E+02  0.96753799802E+02  0.47000000000E+01 0. -1.
        -11    1    6    6    0    0  0.25260650447E+01 -0.35073829994E+01  0.33632179666E+02  0.33908793096E+02  0.00000000000E+00 0.  1.
         12    1    6    6    0    0  0.54532216885E+02 -0.21400640900E+02 -0.32826035721E+02  0.67151312202E+02  0.00000000000E+00 0. -1.
         -5    1    3    3    0  503  0.31131238153E+02  0.65247720834E+02 -0.11662101563E+03  0.13729155236E+03  0.47000000000E+01 0.  1.
         13    1    4    4    0    0  0.86165308566E+01  0.82200673348E+01  0.33537791979E+02  0.35589290549E+02  0.00000000000E+00 0. -1.
        -14    1    4    4    0    0 -0.37688114263E+02  0.15047095350E+02 -0.34877449077E+02  0.53509302829E+02  0.00000000000E+00 0.  1.
</event>
<event>
12    1  0.1050869E+000  0.2345752E+03  0.7818608E-02  0.1123619E+00
         21   -1    0    0  501  502  0.00000000000E+00  0.00000000000E+00  0.42623453002E+03  0.42623453002E+03  0.00000000000E+00 0.  1.
         21   -1    0    0  502  503 -0.00000000000E+00 -0.00000000000E+00 -0.13755508900E+03  0.13755508900E+03  0.00000000000E+00 0.  1.
         -6    2    1    2    0  503 -0.43776752510E+02 -0.15304090486E+03  0.21656931219E+03  0.31926129018E+03  0.17230084680E+03 0.  0.
        -24    2    3    3    0    0  0.37664351066E+02 -0.43108745682E+02  0.99752403537E+02  0.13930014682E+03  0.78594030293E+02 0.  0.
          6    2    1    2  501    0  0.43776752510E+02  0.15304090486E+03  0.72110128829E+02  0.24452832884E+03  0.17104476111E+03 0.  0.
         24    2    5    5    0    0 -0.34569874439E+02  0.46305938473E+02  0.16236838019E+02  0.10074216250E+03  0.80907553666E+02 0.  0.
          5    1    5    5  501    0  0.78346626949E+02  0.10673496638E+03  0.55873290810E+02  0.14378616633E+03  0.47000000000E+01 0. -1.
        -11    1    6    6    0    0 -0.21898543977E+01  0.54141373430E+02 -0.13768030384E+02  0.55907445299E+02  0.00000000000E+00 0.  1.
         12    1    6    6    0    0 -0.32380020042E+02 -0.78354349571E+01  0.30004868403E+02  0.44834717204E+02  0.00000000000E+00 0. -1.
         -5    1    3    3    0  503 -0.81441103576E+02 -0.10993215917E+03  0.11681690865E+03  0.17996114336E+03  0.47000000000E+01 0.  1.
         13    1    4    4    0    0 -0.33350128249E+01 -0.54018265546E+02  0.47642978068E+02  0.72103735564E+02  0.00000000000E+00 0. -1.
        -14    1    4    4    0    0  0.40999363891E+02  0.10909519864E+02  0.52109425469E+02  0.67196411257E+02  0.00000000000E+00 0.  1.
</event>
<event>
12    1  0.1050869E+000  0.1833838E+03  0.7818608E-02  0.1164942E+00
         21   -1    0    0  503  502  0.00000000000E+00  0.00000000000E+00  0.74008458616E+03  0.74008458616E+03  0.00000000000E+00 0. -1.
         21   -1    0    0  501  503 -0.00000000000E+00 -0.00000000000E+00 -0.45410711824E+02  0.45410711824E+02  0.00000000000E+00 0. -1.
          6    2    1    2  501    0 -0.24392775757E+02 -0.55700297370E+02  0.31383322855E+03  0.36348441453E+03  0.17300894090E+03 0.  0.
         24    2    3    3    0    0 -0.55061450318E+02  0.16818958650E+02  0.22792409359E+03  0.24685646093E+03  0.75326483929E+02 0.  0.
         -6    2    1    2    0  502  0.24392775757E+02  0.55700297370E+02  0.38084064579E+03  0.42201088346E+03  0.17133609553E+03 0.  0.
        -24    2    5    5    0    0  0.79280518917E+02  0.18166577259E+02  0.21810416922E+03  0.24615100940E+03  0.80034152647E+02 0.  0.
          5    1    3    3  501    0  0.30668674561E+02 -0.72519256021E+02  0.85909134955E+02  0.11662795360E+03  0.47000000000E+01 0. -1.
        -13    1    4    4    0    0 -0.63307312800E+02 -0.98571835171E+01  0.18373141682E+03  0.19458215089E+03  0.00000000000E+00 0.  1.
         14    1    4    4    0    0  0.82458624822E+01  0.26676142167E+02  0.44192676772E+02  0.52274310032E+02  0.00000000000E+00 0. -1.
         -5    1    5    5    0  502 -0.54887743161E+02  0.37533720112E+02  0.16273647657E+03  0.17585987405E+03  0.47000000000E+01 0.  1.
         11    1    6    6    0    0  0.22607118941E+02  0.34840545307E+01  0.16663893635E+03  0.16820153261E+03  0.00000000000E+00 0. -1.
        -12    1    6    6    0    0  0.56673399976E+02  0.14682522728E+02  0.51465232866E+02  0.77949476794E+02  0.00000000000E+00 0.  1.
</event>
<event>
12    1  0.1050869E+000  0.2390963E+03  0.7818608E-02  0.1120479E+00
         21   -1    0    0  503  502  0.00000000000E+00  0.00000000000E+00  0.80054760450E+02  0.80054760450E+02  0.00000000000E+00 0.  1.
         21   -1    0    0  501  503 -0.00000000000E+00 -0.00000000000E+00 -0.71957252783E+03  0.71957252783E+03  0.00000000000E+00 0.  1.
          6    2    1    2  501    0 -0.11465044560E+03  0.11949926093E+03 -0.35935585652E+03  0.43162907625E+03  0.17245935699E+03 0.  0.
         24    2    3    3    0    0 -0.19232452875E+02  0.90076613666E+00 -0.16863977916E+03  0.18756984478E+03  0.79827144082E+02 0.  0.
         -6    2    1    2    0  502  0.11465044560E+03 -0.11949926093E+03 -0.28016191086E+03  0.36799821202E+03  0.17177656918E+03 0.  0.
        -24    2    5    5    0    0  0.70964023749E+02 -0.13573536762E+02 -0.65389229467E+02  0.12452715180E+03  0.77531455801E+02 0.  0.
          5    1    3    3  501    0 -0.95417992725E+02  0.11859849480E+03 -0.19071607736E+03  0.24405923147E+03  0.47000000000E+01 0. -1.
        -13    1    4    4    0    0 -0.14632502524E+02 -0.13794891607E+02 -0.17083574284E+03  0.17201529058E+03  0.00000000000E+00 0.  1.
         14    1    4    4    0    0 -0.45999503505E+01  0.14695657744E+02  0.21959636756E+01  0.15554554195E+02  0.00000000000E+00 0. -1.
         -5    1    5    5    0  502  0.43686421851E+02 -0.10592572417E+03 -0.21477268139E+03  0.24347106022E+03  0.47000000000E+01 0.  1.
         11    1    6    6    0    0  0.46212344319E+02 -0.45900856101E+02 -0.37235974936E+02  0.75026576542E+02  0.00000000000E+00 0. -1.
        -12    1    6    6    0    0  0.24751679430E+02  0.32327319339E+02 -0.28153254531E+02  0.49500575258E+02  0.00000000000E+00 0.  1.
</event>
<event>
12    1  0.1050869E+000  0.1869764E+03  0.7818608E-02  0.1162218E+00
         21   -1    0    0  503  502  0.00000000000E+00  0.00000000000E+00  0.61709315403E+02  0.61709315403E+02  0.00000000000E+00 0. -1.
         21   -1    0    0  501  503 -0.00000000000E+00 -0.00000000000E+00 -0.58577620599E+03  0.58577620599E+03  0.00000000000E+00 0.  1.
          6    2    1    2  501    0  0.71417963179E+02 -0.10043952634E+02 -0.18903428353E+03  0.26588368200E+03  0.17250729131E+03 0.  0.
         24    2    3    3    0    0  0.10793344378E+03 -0.27610686589E+02 -0.17464909169E+03  0.22262869142E+03  0.81542937869E+02 0.  0.
         -6    2    1    2    0  502 -0.71417963179E+02  0.10043952634E+02 -0.33503260706E+03  0.38160183940E+03  0.16784430163E+03 0.  0.
        -24    2    5    5    0    0 -0.57158653916E+02  0.12210573843E+02 -0.86699587200E+02  0.13280593730E+03  0.81880331767E+02 0.  0.
          5    1    3    3  501    0 -0.36515480602E+02  0.17566733955E+02 -0.14385191841E+02  0.43254990576E+02  0.47000000000E+01 0. -1.
        -13    1    4    4    0    0  0.73862738878E+02 -0.54447945893E+02 -0.95921319931E+02  0.13274480262E+03  0.00000000000E+00 0.  1.
         14    1    4    4    0    0  0.34070704903E+02  0.26837259304E+02 -0.78727771754E+02  0.89883888794E+02  0.00000000000E+00 0. -1.
         -5    1    5    5    0  502 -0.14259309263E+02 -0.21666212087E+01 -0.24833301986E+03  0.24879590210E+03  0.47000000000E+01 0.  1.
         13    1    6    6    0    0 -0.47727091651E+02 -0.16541786962E+02 -0.11582947651E+02  0.51823456751E+02  0.00000000000E+00 0. -1.
        -14    1    6    6    0    0 -0.94315622642E+01  0.28752360805E+02 -0.75116639549E+02  0.80982480548E+02  0.00000000000E+00 0.  1.
</event>
<event>
12    1  0.1050869E+000  0.3043097E+03  0.7818608E-02  0.1083427E+00
         21   -1    0    0  501  502  0.00000000000E+00  0.00000000000E+00  0.56409286505E+03  0.56409286505E+03  0.00000000000E+00 0.  1.
         21   -1    0    0  502  503 -0.00000000000E+00 -0.00000000000E+00 -0.22289251781E+03  0.22289251781E+03  0.00000000000E+00 0.  1.
         -6    2    1    2    0  503  0.24149780564E+03 -0.52554666435E+02  0.37551007106E+03  0.48333449503E+03  0.17754221337E+03 0.  0.
        -24    2    3    3    0    0  0.13025148775E+03 -0.23995169200E+02  0.32044299464E+03  0.35587524260E+03  0.80138987233E+02 0.  0.
          6    2    1    2  501    0 -0.24149780564E+03  0.52554666435E+02 -0.34309723830E+02  0.30365088782E+03  0.17304196438E+03 0.  0.
         24    2    5    5    0    0 -0.71227115846E+02 -0.14863142641E+02 -0.53473234132E+02  0.11945914287E+03  0.78210517231E+02 0.  0.
          5    1    5    5  501    0 -0.17027068979E+03  0.67417809076E+02  0.19163510302E+02  0.18419174496E+03  0.47000000000E+01 0. -1.
        -11    1    6    6    0    0  0.15724799009E+02 -0.24012971620E+00 -0.19298552283E+02  0.24895001233E+02  0.00000000000E+00 0.  1.
         12    1    6    6    0    0 -0.86951914855E+02 -0.14623012925E+02 -0.34174681848E+02  0.94564141636E+02  0.00000000000E+00 0. -1.
         -5    1    3    3    0  503  0.11124631789E+03 -0.28559497235E+02  0.55067076428E+02  0.12745925244E+03  0.47000000000E+01 0.  1.
         11    1    4    4    0    0  0.14005548182E+03 -0.15839023798E+02  0.28009263160E+03  0.31355748267E+03  0.00000000000E+00 0. -1.
        -12    1    4    4    0    0 -0.98039940738E+01 -0.81561454025E+01  0.40350363040E+02  0.42317759925E+02  0.00000000000E+00 0.  1.
</event>
<event>
12    1  0.1050869E+000  0.5240522E+03  0.7818608E-02  0.1007692E+00
         21   -1    0    0  501  502  0.00000000000E+00  0.00000000000E+00  0.91081028816E+03  0.91081028816E+03  0.00000000000E+00 0.  1.
         21   -1    0    0  502  503 -0.00000000000E+00 -0.00000000000E+00 -0.30305348068E+03  0.30305348068E+03  0.00000000000E+00 0.  1.
         -6    2    1    2    0  503 -0.31545271661E+03  0.38180498289E+03  0.34800964484E+03  0.62907980260E+03  0.17130447679E+03 0.  0.
        -24    2    3    3    0    0 -0.28961770981E+03  0.26416215930E+03  0.22974510856E+03  0.46021337001E+03  0.73167388793E+02 0.  0.
          6    2    1    2  501    0  0.31545271661E+03 -0.38180498289E+03  0.25974716265E+03  0.58478396623E+03  0.17093342939E+03 0.  0.
         24    2    5    5    0    0  0.32621567978E+03 -0.33460037095E+03  0.22287722150E+03  0.52374627849E+03  0.79131728116E+02 0.  0.
          5    1    5    5  501    0 -0.10762963169E+02 -0.47204611936E+02  0.36869941151E+02  0.61037687741E+02  0.47000000000E+01 0. -1.
        -13    1    6    6    0    0  0.22637357575E+03 -0.17943395816E+03  0.14860074181E+03  0.32484414971E+03  0.00000000000E+00 0.  1.
         14    1    6    6    0    0  0.99842104036E+02 -0.15516641279E+03  0.74276479683E+02  0.19890212878E+03  0.00000000000E+00 0. -1.
         -5    1    3    3    0  503 -0.25835006806E+02  0.11764282358E+03  0.11826453627E+03  0.16886643260E+03  0.47000000000E+01 0.  1.
         11    1    4    4    0    0 -0.21583690148E+03  0.16784004325E+03  0.12812345819E+03  0.30194613542E+03  0.00000000000E+00 0. -1.
        -12    1    4    4    0    0 -0.73780808332E+02  0.96322116059E+02  0.10162165037E+03  0.15826723459E+03  0.00000000000E+00 0.  1.
</event>
<event>
12    1  0.1050869E+000  0.1906625E+03  0.7818608E-02  0.1158760E+00
         21   -1    0    0  501  502  0.00000000000E+00  0.00000000000E+00  0.10242916285E+03  0.10242916285E+03  0.00000000000E+00 0. -1.
         21   -1    0    0  502  503 -0.00000000000E+00 -0.00000000000E+00 -0.36670628268E+03  0.36670628268E+03  0.00000000000E+00 0. -1.
         -6    2    1    2    0  503 -0.71721940882E+02 -0.25085381219E+02 -0.77297677450E+02  0.20208956881E+03  0.17056362370E+03 0.  0.
        -24    2    3    3    0    0  0.24982287378E+01  0.13067303453E+02 -0.86893640638E+02  0.11795614242E+03  0.78652089521E+02 0.  0.
          6    2    1    2  501    0  0.71721940882E+02  0.25085381219E+02 -0.18697944239E+03  0.26704587672E+03  0.17486816532E+03 0.  0.
         24    2    5    5    0    0  0.19122895840E+02  0.42942968036E+02 -0.19002764522E+03  0.21121636403E+03  0.79322524169E+02 0.  0.
          5    1    5    5  501    0  0.52599045042E+02 -0.17857586817E+02  0.30482028309E+01  0.55829512686E+02  0.47000000000E+01 0. -1.
        -11    1    6    6    0    0  0.49152469071E+02  0.30612504693E+02 -0.14087128596E+03  0.15230827248E+03  0.00000000000E+00 0.  1.
         12    1    6    6    0    0 -0.30029573231E+02  0.12330463343E+02 -0.49156359258E+02  0.58908091551E+02  0.00000000000E+00 0. -1.
         -5    1    3    3    0  503 -0.74220169620E+02 -0.38152684671E+02  0.95959631872E+01  0.84133426386E+02  0.47000000000E+01 0.  1.
         11    1    4    4    0    0 -0.21378361285E+02  0.14090593745E+02 -0.90260317592E+02  0.93821661119E+02  0.00000000000E+00 0. -1.
        -12    1    4    4    0    0  0.23876590023E+02 -0.10232902924E+01  0.33666769547E+01  0.24134481305E+02  0.00000000000E+00 0.  1.
</event>
<event>
12    1  0.1050869E+000  0.2099671E+03  0.7818608E-02  0.1141739E+00
         21   -1    0    0  503  502  0.00000000000E+00  0.00000000000E+00  0.11065881658E+03  0.11065881658E+03  0.00000000000E+00 0. -1.
         21   -1    0    0  501  503 -0.00000000000E+00 -0.00000000000E+00 -0.11163532097E+04  0.11163532097E+04  0.00000000000E+00 0. -1.
          6    2    1    2  501    0 -0.10593737677E+03  0.45067369444E+02 -0.10047230740E+02  0.20946622069E+03  0.17470362096E+03 0.  0.
         24    2    3    3    0    0 -0.98344552725E+01  0.46468088060E+02 -0.48628177525E+02  0.10579214974E+03  0.81063429350E+02 0.  0.
         -6    2    1    2    0  502  0.10593737677E+03 -0.45067369444E+02 -0.99564716242E+03  0.10175458056E+04  0.17559156858E+03 0.  0.
        -24    2    5    5    0    0  0.13156477650E+03 -0.64722539814E+02 -0.91852344242E+03  0.93380067130E+03  0.82462608922E+02 0.  0.
          5    1    3    3  501    0 -0.96102921495E+02 -0.14007186161E+01  0.38580946785E+02  0.10367407095E+03  0.47000000000E+01 0. -1.
        -13    1    4    4    0    0  0.19020133536E+02 -0.90955486619E+01  0.68209401079E+01  0.22158964532E+02  0.00000000000E+00 0.  1.
         14    1    4    4    0    0 -0.28854588808E+02  0.55563636722E+02 -0.55449117633E+02  0.83633185204E+02  0.00000000000E+00 0. -1.
         -5    1    5    5    0  502 -0.25627399727E+02  0.19655170370E+02 -0.77123719997E+02  0.83745134338E+02  0.47000000000E+01 0.  1.
         13    1    6    6    0    0  0.10480601549E+03 -0.82770673873E+01 -0.53651316089E+03  0.54671672971E+03  0.00000000000E+00 0. -1.
        -14    1    6    6    0    0  0.26758761001E+02 -0.56445472427E+02 -0.38201028153E+03  0.38708394159E+03  0.00000000000E+00 0.  1.
</event>
<event>
12    1  0.1050869E+000  0.1776132E+03  0.7818608E-02  0.1172486E+00
         21   -1    0    0  501  502  0.00000000000E+00  0.00000000000E+00  0.24097889036E+03  0.24097889036E+03  0.00000000000E+00 0.  1.
         21   -1    0    0  502  503 -0.00000000000E+00 -0.00000000000E+00 -0.14728744885E+03  0.14728744885E+03  0.00000000000E+00 0.  1.
         -6    2    1    2    0  503  0.33759112549E+02 -0.16247495603E+02 -0.29004873142E+02  0.17996593806E+03  0.17361681198E+03 0.  0.
        -24    2    3    3    0    0  0.80283289213E+02 -0.17290714113E+02 -0.55088418454E+02  0.12641195917E+03  0.78745630044E+02 0.  0.
          6    2    1    2  501    0 -0.33759112549E+02  0.16247495603E+02  0.12269631465E+03  0.20830040116E+03  0.16410671132E+03 0.  0.
         24    2    5    5    0    0 -0.23931422463E+02 -0.15889939005E+01  0.17538466734E+02  0.10108572479E+03  0.96620329423E+02 0.  0.
          5    1    5    5  501    0 -0.98276900858E+01  0.17836489503E+02  0.10515784792E+03  0.10721467637E+03  0.47000000000E+01 0. -1.
        -13    1    6    6    0    0  0.30784248704E+02 -0.17966694096E+02  0.24927631843E+02  0.43495504300E+02  0.00000000000E+00 0.  1.
         14    1    6    6    0    0 -0.54715671167E+02  0.16377700195E+02 -0.73891651086E+01  0.57590220489E+02  0.00000000000E+00 0. -1.
         -5    1    3    3    0  503 -0.46524176664E+02  0.10432185105E+01  0.26083545313E+02  0.53553978893E+02  0.47000000000E+01 0.  1.
         13    1    4    4    0    0  0.35933219375E+01  0.21437098331E+02  0.40518986704E+01  0.22110608997E+02  0.00000000000E+00 0. -1.
        -14    1    4    4    0    0  0.76689967276E+02 -0.38727812444E+02 -0.59140317125E+02  0.10430135017E+03  0.00000000000E+00 0.  1.
</event>
<event>
12    1  0.1050869E+000  0.1819159E+03  0.7818608E-02  0.1166765E+00
         21   -1    0    0  501  502  0.00000000000E+00  0.00000000000E+00  0.19641263161E+03  0.19641263161E+03  0.00000000000E+00 0.  1.
         21   -1    0    0  502  503 -0.00000000000E+00 -0.00000000000E+00 -0.17594325737E+03  0.17594325737E+03  0.00000000000E+00 0.  1.
         -6    2    1    2    0  503  0.54564555517E+02 -0.59093193289E+01  0.55685458927E+02  0.18706273102E+03  0.16993935455E+03 0.  0.
        -24    2    3    3    0    0 -0.57230505396E+01  0.16333341177E+02 -0.23913880831E+02  0.84654351085E+02  0.79340746907E+02 0.  0.
          6    2    1    2  501    0 -0.54564555517E+02  0.59093193289E+01 -0.35216084689E+02  0.18529315797E+03  0.17343924295E+03 0.  0.
         24    2    5    5    0    0 -0.10306098545E+03  0.15131525441E+02 -0.35299494965E+02  0.13570435117E+03  0.79492683924E+02 0.  0.
          5    1    5    5  501    0  0.48496429938E+02 -0.92222061118E+01  0.83410275284E-01  0.49588806797E+02  0.47000000000E+01 0. -1.
        -13    1    6    6    0    0 -0.20643047115E+02  0.37475559375E+02  0.12853854118E+01  0.42804265679E+02  0.00000000000E+00 0.  1.
         14    1    6    6    0    0 -0.82417938340E+02 -0.22344033934E+02 -0.36584880377E+02  0.92900085494E+02  0.00000000000E+00 0. -1.
         -5    1    3    3    0  503  0.60287606056E+02 -0.22242660506E+02  0.79599339758E+02  0.10240837993E+03  0.47000000000E+01 0.  1.
         13    1    4    4    0    0  0.21812784840E+02  0.21473160580E+02 -0.41509820631E+02  0.51574794392E+02  0.00000000000E+00 0. -1.
        -14    1    4    4    0    0 -0.27535835380E+02 -0.51398194031E+01  0.17595939800E+02  0.33079556693E+02  0.00000000000E+00 0.  1.
</event>
<event>
12    1  0.1050869E+000  0.2350183E+03  0.7818608E-02  0.1123405E+00
         21   -1    0    0  503  502  0.00000000000E+00  0.00000000000E+00  0.42044632169E+03  0.42044632169E+03  0.00000000000E+00 0. -1.
         21   -1    0    0  501  503 -0.00000000000E+00 -0.00000000000E+00 -0.33053213240E+03  0.33053213240E+03  0.00000000000E+00 0. -1.
          6    2    1    2  501    0 -0.15265243622E+03  0.37518575293E+02 -0.24704877878E+03  0.34097899907E+03  0.17470881183E+03 0.  0.
         24    2    3    3    0    0 -0.17478875729E+03  0.15342342117E+02 -0.16841991307E+03  0.25620641770E+03  0.80560314128E+02 0.  0.
         -6    2    1    2    0  502  0.15265243622E+03 -0.37518575293E+02  0.33696296807E+03  0.40999945502E+03  0.17275734859E+03 0.  0.
        -24    2    5    5    0    0  0.26449046089E+02  0.64790577710E+01  0.60819580139E+02  0.10317646355E+03  0.78770750118E+02 0.  0.
          5    1    3    3  501    0  0.22136321074E+02  0.22176233176E+02 -0.78628865713E+02  0.84772581369E+02  0.47000000000E+01 0. -1.
        -13    1    4    4    0    0 -0.16522598372E+03  0.21723995500E+02 -0.17604448995E+03  0.24241126235E+03  0.00000000000E+00 0.  1.
         14    1    4    4    0    0 -0.95627735795E+01 -0.63816533830E+01  0.76245768762E+01  0.13795155344E+02  0.00000000000E+00 0. -1.
         -5    1    5    5    0  502  0.12620339013E+03 -0.43997633064E+02  0.27614338793E+03  0.30682299147E+03  0.47000000000E+01 0.  1.
         13    1    6    6    0    0  0.20932403877E+02 -0.34045569466E+02  0.17587886216E+02  0.43664631842E+02  0.00000000000E+00 0. -1.
        -14    1    6    6    0    0  0.55166422120E+01  0.40524627237E+02  0.43231693923E+02  0.59511831709E+02  0.00000000000E+00 0.  1.
</event>
<event>
12    1  0.1050869E+000  0.2410454E+03  0.7818608E-02  0.1119106E+00
         21   -1    0    0  501  502  0.00000000000E+00  0.00000000000E+00  0.21031475915E+04  0.21031475915E+04  0.00000000000E+00 0. -1.
         21   -1    0    0  502  503 -0.00000000000E+00 -0.00000000000E+00 -0.60138968789E+02  0.60138968789E+02  0.00000000000E+00 0.  1.
         -6    2    1    2    0  503  0.14683985505E+03 -0.82489810485E+02  0.22609257295E+03  0.33045082514E+03  0.17237570718E+03 0.  0.
        -24    2    3    3    0    0  0.89387918564E+02  0.21029540833E+02  0.98351862766E+02  0.15621891032E+03  0.79365089670E+02 0.  0.
          6    2    1    2  501    0 -0.14683985505E+03  0.82489810485E+02  0.18169160497E+04  0.18328357351E+04  0.17244242030E+03 0.  0.
         24    2    5    5    0    0 -0.97713177686E+02 -0.12592023731E+02  0.74819724126E+03  0.75876126508E+03  0.78823355676E+02 0.  0.
          5    1    5    5  501    0 -0.49126677360E+02  0.95081834215E+02  0.10687188085E+04  0.10740744700E+04  0.47000000000E+01 0. -1.
        -13    1    6    6    0    0 -0.11222392217E+02 -0.25975357561E+02  0.34582876812E+03  0.34698443502E+03  0.00000000000E+00 0.  1.
         14    1    6    6    0    0 -0.86490785469E+02  0.13383333830E+02  0.40236847314E+03  0.41177683005E+03  0.00000000000E+00 0. -1.
         -5    1    3    3    0  503  0.57451936482E+02 -0.10351935132E+03  0.12774071019E+03  0.17423191482E+03  0.47000000000E+01 0.  1.
         11    1    4    4    0    0  0.19777364394E+02 -0.20308703546E+02  0.60573742075E+02  0.66878739605E+02  0.00000000000E+00 0. -1.
        -12    1    4    4    0    0  0.69610554170E+02  0.41338244378E+02  0.37778120691E+02  0.89340170713E+02  0.00000000000E+00 0.  1.
</event>
<event>
12    1  0.1050869E+000  0.2271871E+03  0.7818608E-02  0.1128697E+00
         21   -1    0    0  501  502  0.00000000000E+00  0.00000000000E+00  0.11754293988E+03  0.11754293988E+03  0.00000000000E+00 0.  1.
         21   -1    0    0  502  503 -0.00000000000E+00 -0.00000000000E+00 -0.52382329990E+03  0.52382329990E+03  0.00000000000E+00 0.  1.
         -6    2    1    2    0  503 -0.14918299655E+03  0.26253001865E+01 -0.73537716029E+02  0.23846221296E+03  0.17086243786E+03 0.  0.
        -24    2    3    3    0    0 -0.13922907277E+03 -0.17276988008E+02  0.44893712549E-01  0.16144486342E+03  0.79882494267E+02 0.  0.
          6    2    1    2  501    0  0.14918299655E+03 -0.26253001865E+01 -0.33274264399E+03  0.40290402681E+03  0.17132287948E+03 0.  0.
         24    2    5    5    0    0  0.11133293717E+03 -0.64369942971E+02 -0.18910665839E+03  0.24197418412E+03  0.79067471688E+02 0.  0.
          5    1    5    5  501    0  0.37850059381E+02  0.61744642785E+02 -0.14363598561E+03  0.16092984269E+03  0.47000000000E+01 0. -1.
        -13    1    6    6    0    0  0.56999704446E+02 -0.23682530466E+02 -0.29251572011E+02  0.68304341160E+02  0.00000000000E+00 0.  1.
         14    1    6    6    0    0  0.54333232722E+02 -0.40687412505E+02 -0.15985508638E+03  0.17366984296E+03  0.00000000000E+00 0. -1.
         -5    1    3    3    0  503 -0.99539237755E+01  0.19902288194E+02 -0.73582609742E+02  0.77017349541E+02  0.47000000000E+01 0.  1.
         13    1    4    4    0    0 -0.65985663450E+02 -0.70243119935E+01 -0.39858716668E+02  0.77409082377E+02  0.00000000000E+00 0. -1.
        -14    1    4    4    0    0 -0.73243409323E+02 -0.10252676014E+02  0.39903610381E+02  0.84035781047E+02  0.00000000000E+00 0.  1.
</event>
<event>
12    1  0.1050869E+000  0.1892605E+03  0.7818608E-02  0.1159178E+00
         21   -1    0    0  501  502  0.00000000000E+00  0.00000000000E+00  0.13564010111E+03  0.13564010111E+03  0.00000000000E+00 0.  1.
         21   -1    0    0  502  503 -0.00000000000E+00 -0.00000000000E+00 -0.33275245576E+03  0.33275245576E+03  0.00000000000E+00 0.  1.
         -6    2    1    2    0  503 -0.31832087485E+02  0.71552906532E+02  0.80243778455E+01  0.18943056702E+03  0.17229755905E+03 0.  0.
        -24    2    3    3    0    0  0.42924346208E+02  0.13562078778E+02 -0.10398492688E+02  0.92926926458E+02  0.80627883097E+02 0.  0.
          6    2    1    2  501    0  0.31832087485E+02 -0.71552906532E+02 -0.20513673249E+03  0.27896198985E+03  0.17206281568E+03 0.  0.
         24    2    5    5    0    0  0.18588179385E+02  0.12932919545E+02 -0.37382467897E+02  0.90609025450E+02  0.79371063783E+02 0.  0.
          5    1    5    5  501    0  0.13243908100E+02 -0.84485826077E+02 -0.16775426459E+03  0.18835296440E+03  0.47000000000E+01 0. -1.
        -13    1    6    6    0    0  0.41538027215E+02 -0.12921720156E+02 -0.59905466061E+01  0.43912016640E+02  0.00000000000E+00 0.  1.
         14    1    6    6    0    0 -0.22949847830E+02  0.25854639702E+02 -0.31391921291E+02  0.46697008810E+02  0.00000000000E+00 0. -1.
         -5    1    3    3    0  503 -0.74756433693E+02  0.57990827754E+02  0.18422870533E+02  0.96503640557E+02  0.47000000000E+01 0.  1.
         11    1    4    4    0    0  0.15244714516E+02  0.39651131203E+02  0.17305549907E+02  0.45870421667E+02  0.00000000000E+00 0. -1.
        -12    1    4    4    0    0  0.27679631692E+02 -0.26089052426E+02 -0.27704042594E+02  0.47056504791E+02  0.00000000000E+00 0.  1.
</event>
<event>
12    1  0.1050869E+000  0.2176619E+03  0.7818608E-02  0.1136055E+00
         21   -1    0    0  503  502  0.00000000000E+00  0.00000000000E+00  0.15005273408E+03  0.15005273408E+03  0.00000000000E+00 0. -1.
         21   -1    0    0  501  503 -0.00000000000E+00 -0.00000000000E+00 -0.57257701653E+03  0.57257701653E+03  0.00000000000E+00 0.  1.
          6    2    1    2  501    0  0.22412209722E+02 -0.13128777811E+03  0.31636643550E+02  0.21994905049E+03  0.17215667216E+03 0.  0.
         24    2    3    3    0    0  0.61681352041E+02 -0.12375244115E+03 -0.22289654348E+02  0.15265133547E+03  0.60715283499E+02 0.  0.
         -6    2    1    2    0  502 -0.22412209722E+02  0.13128777811E+03 -0.45416092600E+03  0.50268070012E+03  0.16937222836E+03 0.  0.
        -24    2    5    5    0    0 -0.50102919193E+02  0.16010015077E+03 -0.37770684904E+03  0.41628484320E+03  0.49882322270E+02 0.  0.
          5    1    3    3  501    0 -0.39269142319E+02 -0.75353369583E+01  0.53926297898E+02  0.67297715017E+02  0.47000000000E+01 0. -1.
        -13    1    4    4    0    0  0.17669944305E+02 -0.86895344437E+02 -0.32311246729E+02  0.94377139614E+02  0.00000000000E+00 0.  1.
         14    1    4    4    0    0  0.44011407736E+02 -0.36857096710E+02  0.10021592381E+02  0.58274195856E+02  0.00000000000E+00 0. -1.
         -5    1    5    5    0  502  0.27690709471E+02 -0.28812372661E+02 -0.76454076962E+02  0.86395856923E+02  0.47000000000E+01 0.  1.
         13    1    6    6    0    0 -0.39787598379E+02  0.11025636164E+03 -0.20403678982E+03  0.23530943429E+03  0.00000000000E+00 0. -1.
        -14    1    6    6    0    0 -0.10315320814E+02  0.49843789125E+02 -0.17367005922E+03  0.18097540890E+03  0.00000000000E+00 0.  1.
</event>
<event>
12    1  0.1050869E+000  0.3332226E+03  0.7818608E-02  0.1070134E+00
         21   -1    0    0  503  502  0.00000000000E+00  0.00000000000E+00  0.25023079340E+03  0.25023079340E+03  0.00000000000E+00 0.  1.
         21   -1    0    0  501  503 -0.00000000000E+00 -0.00000000000E+00 -0.44567995868E+03  0.44567995868E+03  0.00000000000E+00 0.  1.
          6    2    1    2  501    0  0.16186179915E+03  0.22874054753E+03 -0.53762413355E+02  0.33381620612E+03  0.17326679507E+03 0.  0.
         24    2    3    3    0    0  0.78113846564E+02  0.90302352006E+02 -0.92778838986E+02  0.16731327819E+03  0.71620753223E+02 0.  0.
         -6    2    1    2    0  502 -0.16186179915E+03 -0.22874054753E+03 -0.14168675193E+03  0.36209454596E+03  0.18032150299E+03 0.  0.
        -24    2    5    5    0    0 -0.13255036969E+03 -0.22064491703E+03 -0.61709542371E+02  0.27640240409E+03  0.79601767896E+02 0.  0.
          5    1    3    3  501    0  0.83747952583E+02  0.13843819552E+03  0.39016425631E+02  0.16650292793E+03  0.47000000000E+01 0. -1.
        -11    1    4    4    0    0  0.46668092802E+02  0.63288659970E+01 -0.47391494871E+02  0.66812567805E+02  0.00000000000E+00 0.  1.
         12    1    4    4    0    0  0.31445753762E+02  0.83973486009E+02 -0.45387344115E+02  0.10050071039E+03  0.00000000000E+00 0. -1.
         -5    1    5    5    0  502 -0.29311429459E+02 -0.80956304918E+01 -0.79977209555E+02  0.85692141869E+02  0.47000000000E+01 0.  1.
         13    1    6    6    0    0 -0.10350205114E+03 -0.98274840822E+02 -0.44236641706E+02  0.14942389166E+03  0.00000000000E+00 0. -1.
        -14    1    6    6    0    0 -0.29048318546E+02 -0.12237007621E+03 -0.17472900665E+02  0.12697851244E+03  0.00000000000E+00 0.  1.
</event>
<event>
12    1  0.1050869E+000  0.2305858E+03  0.7818608E-02  0.1126287E+00
         21   -1    0    0  501  502  0.00000000000E+00  0.00000000000E+00  0.38423089973E+04  0.38423089973E+04  0.00000000000E+00 0.  1.
         21   -1    0    0  502  503 -0.00000000000E+00 -0.00000000000E+00 -0.18423607339E+02  0.18423607339E+02  0.00000000000E+00 0.  1.
         -6    2    1    2    0  503  0.97049785318E+02  0.11873307546E+03  0.28760701840E+04  0.28852719540E+04  0.17175081167E+03 0.  0.
        -24    2    3    3    0    0  0.91250596233E+02  0.10125433383E+02  0.14298750323E+04  0.14349851695E+04  0.78807569500E+02 0.  0.
          6    2    1    2  501    0 -0.97049785318E+02 -0.11873307546E+03  0.94781520594E+03  0.97546065060E+03  0.17220224220E+03 0.  0.
         24    2    5    5    0    0 -0.13628772893E+03 -0.10236635868E+03  0.76602903983E+03  0.78871005268E+03  0.78802543606E+02 0.  0.
          5    1    5    5  501    0  0.39237943612E+02 -0.16366716782E+02  0.18178616611E+03  0.18675059793E+03  0.47000000000E+01 0. -1.
        -11    1    6    6    0    0 -0.29607475092E+02 -0.63233882730E+02  0.21383357935E+03  0.22494427346E+03  0.00000000000E+00 0.  1.
         12    1    6    6    0    0 -0.10668025384E+03 -0.39132475947E+02  0.55219546048E+03  0.56376577921E+03  0.00000000000E+00 0. -1.
         -5    1    3    3    0  503  0.57991890851E+01  0.10860764208E+03  0.14461951517E+04  0.14502867845E+04  0.47000000000E+01 0.  1.
         13    1    4    4    0    0  0.21548624042E+02 -0.97890802583E+01  0.87207260806E+02  0.90361914697E+02  0.00000000000E+00 0. -1.
        -14    1    4    4    0    0  0.69701972191E+02  0.19914513641E+02  0.13426677715E+04  0.13446232548E+04  0.00000000000E+00 0.  1.
</event>
<event>
12    1  0.1050869E+000  0.2797011E+03  0.7818608E-02  0.1096739E+00
         21   -1    0    0  501  502  0.00000000000E+00  0.00000000000E+00  0.14272170436E+03  0.14272170436E+03  0.00000000000E+00 0. -1.
         21   -1    0    0  502  503 -0.00000000000E+00 -0.00000000000E+00 -0.54903688757E+03  0.54903688757E+03  0.00000000000E+00 0. -1.
         -6    2    1    2    0  503  0.96139075426E+02  0.18943120881E+03 -0.25942874637E+03  0.38149178539E+03  0.18195000187E+03 0.  0.
        -24    2    3    3    0    0  0.88046572726E+02  0.35017399523E+02 -0.13122021163E+03  0.18057232023E+03  0.80057489684E+02 0.  0.
          6    2    1    2  501    0 -0.96139075426E+02 -0.18943120881E+03 -0.14688643684E+03  0.31026680654E+03  0.17193882987E+03 0.  0.
         24    2    5    5    0    0 -0.14032555560E+03 -0.14855766774E+03 -0.12034460866E+03  0.24431492990E+03  0.58705348459E+02 0.  0.
          5    1    5    5  501    0  0.44186480173E+02 -0.40873541073E+02 -0.26541828182E+02  0.65951876646E+02  0.47000000000E+01 0. -1.
        -11    1    6    6    0    0 -0.93993713187E+02 -0.86001248065E+02 -0.10472150590E+03  0.16491702940E+03  0.00000000000E+00 0.  1.
         12    1    6    6    0    0 -0.46331842412E+02 -0.62556419675E+02 -0.15623102764E+02  0.79397900500E+02  0.00000000000E+00 0. -1.
         -5    1    3    3    0  503  0.80925026997E+01  0.15441380929E+03 -0.12820853474E+03  0.20091946516E+03  0.47000000000E+01 0.  1.
         13    1    4    4    0    0  0.83964701663E+02  0.53086977507E+02 -0.12757857493E+03  0.16169289127E+03  0.00000000000E+00 0. -1.
        -14    1    4    4    0    0  0.40818710638E+01 -0.18069577985E+02 -0.36416366978E+01  0.18879428958E+02  0.00000000000E+00 0.  1.
</event>
<event>
12    1  0.1050869E+000  0.3748323E+03  0.7818608E-02  0.1052895E+00
         21   -1    0    0  503  502  0.00000000000E+00  0.00000000000E+00  0.21763226767E+03  0.21763226767E+03  0.00000000000E+00 0.  1.
         21   -1    0    0  501  503 -0.00000000000E+00 -0.00000000000E+00 -0.75828583196E+03  0.75828583196E+03  0.00000000000E+00 0.  1.
          6    2    1    2  501    0 -0.33067344245E+03  0.37163501002E+02 -0.45908183476E+03  0.59266804601E+03  0.17254921158E+03 0.  0.
         24    2    3    3    0    0 -0.19070497224E+03  0.78673030870E+02 -0.33389972226E+03  0.40029636148E+03  0.78678588349E+02 0.  0.
         -6    2    1    2    0  502  0.33067344245E+03 -0.37163501002E+02 -0.81571729533E+02  0.38325005361E+03  0.17175740213E+03 0.  0.
        -24    2    5    5    0    0  0.29791785550E+03 -0.64189119934E+02 -0.10772438763E+03  0.33315650033E+03  0.80705751204E+02 0.  0.
          5    1    3    3  501    0 -0.13996847021E+03 -0.41509529868E+02 -0.12518211249E+03  0.19237168453E+03  0.47000000000E+01 0. -1.
        -11    1    4    4    0    0 -0.14908077844E+03  0.39586495350E+02 -0.28926843606E+03  0.32782372887E+03  0.00000000000E+00 0.  1.
         12    1    4    4    0    0 -0.41624193806E+02  0.39086535520E+02 -0.44631286206E+02  0.72472632609E+02  0.00000000000E+00 0. -1.
         -5    1    5    5    0  502  0.32755586948E+02  0.27025618932E+02  0.26152658095E+02  0.50093553281E+02  0.47000000000E+01 0.  1.
         13    1    6    6    0    0  0.19985531334E+03 -0.37541120624E+01 -0.73739572417E+02  0.21305812391E+03  0.00000000000E+00 0. -1.
        -14    1    6    6    0    0  0.98062542164E+02 -0.60435007871E+02 -0.33984815211E+02  0.12009837641E+03  0.00000000000E+00 0.  1.
</event>
<event>
12    1  0.1050869E+000  0.2569482E+03  0.7818608E-02  0.1109064E+00
         21   -1    0    0  501  502  0.00000000000E+00  0.00000000000E+00  0.47026446549E+03  0.47026446549E+03  0.00000000000E+00 0. -1.
         21   -1    0    0  502  503 -0.00000000000E+00 -0.00000000000E+00 -0.15224245373E+03  0.15224245373E+03  0.00000000000E+00 0. -1.
         -6    2    1    2    0  503  0.17304996441E+03 -0.79533665776E+02  0.71087504993E+02  0.26613770827E+03  0.17176714536E+03 0.  0.
        -24    2    3    3    0    0  0.46473075595E+02  0.11923197756E+02 -0.84870286247E+01  0.90808694503E+02  0.76630802830E+02 0.  0.
          6    2    1    2  501    0 -0.17304996441E+03  0.79533665776E+02  0.24693450677E+03  0.35636921095E+03  0.17248324471E+03 0.  0.
         24    2    5    5    0    0 -0.15838131393E+03  0.11348675017E+03  0.17245293173E+03  0.27307709688E+03  0.82868595433E+02 0.  0.
          5    1    5    5  501    0 -0.14668650479E+02 -0.33953084396E+02  0.74481575039E+02  0.83292114076E+02  0.47000000000E+01 0. -1.
        -13    1    6    6    0    0 -0.45577369251E+00  0.30472345097E+02  0.10835345317E+02  0.32344647988E+02  0.00000000000E+00 0.  1.
         14    1    6    6    0    0 -0.15792554024E+03  0.83014405075E+02  0.16161758641E+03  0.24073244889E+03  0.00000000000E+00 0. -1.
         -5    1    3    3    0  503  0.12657688882E+03 -0.91456863532E+02  0.79574533618E+02  0.17532901377E+03  0.47000000000E+01 0.  1.
         13    1    4    4    0    0  0.10633098491E+02  0.78409894922E+01  0.33170131493E+02  0.35704362801E+02  0.00000000000E+00 0. -1.
        -14    1    4    4    0    0  0.35839977104E+02  0.40822082636E+01 -0.41657160118E+02  0.55104331702E+02  0.00000000000E+00 0.  1.
</event>
<event>
12    1  0.1050869E+000  0.2290124E+03  0.7818608E-02  0.1128202E+00
         21   -1    0    0  501  502  0.00000000000E+00  0.00000000000E+00  0.34515616523E+02  0.34515616523E+02  0.00000000000E+00 0. -1.
         21   -1    0    0  502  503 -0.00000000000E+00 -0.00000000000E+00 -0.15073424382E+04  0.15073424382E+04  0.00000000000E+00 0. -1.
         -6    2    1    2    0  503 -0.13613638600E+03  0.52903215729E+02 -0.81689573250E+03  0.84709747017E+03  0.17006945747E+03 0.  0.
        -24    2    3    3    0    0 -0.74061324393E+02  0.98259494662E+02 -0.56141578254E+03  0.58025931671E+03  0.79832234575E+02 0.  0.
          6    2    1    2  501    0  0.13613638600E+03 -0.52903215729E+02 -0.65593108918E+03  0.69476058456E+03  0.17639390657E+03 0.  0.
         24    2    5    5    0    0  0.11869230895E+03 -0.39025719990E+02 -0.27153168575E+03  0.30968673181E+03  0.81028047421E+02 0.  0.
          5    1    5    5  501    0  0.17444077049E+02 -0.13877495739E+02 -0.38439940343E+03  0.38507385275E+03  0.47000000000E+01 0. -1.
        -13    1    6    6    0    0  0.73584637596E+02  0.13614215636E+02 -0.10181473372E+03  0.12635776890E+03  0.00000000000E+00 0.  1.
         14    1    6    6    0    0  0.45107671353E+02 -0.52639935626E+02 -0.16971695203E+03  0.18332896291E+03  0.00000000000E+00 0. -1.
         -5    1    3    3    0  503 -0.62075061604E+02 -0.45356278933E+02 -0.25547994996E+03  0.26683815346E+03  0.47000000000E+01 0.  1.
         11    1    4    4    0    0 -0.37274149895E+02  0.54208087767E+01 -0.77766686569E+02  0.86408361622E+02  0.00000000000E+00 0. -1.
        -12    1    4    4    0    0 -0.36787174498E+02  0.92838685886E+02 -0.48364909597E+03  0.49385095509E+03  0.00000000000E+00 0.  1.
</event>
<event>
12    1  0.1050869E+000  0.2553429E+03  0.7818608E-02  0.1110071E+00
         21   -1    0    0  501  502  0.00000000000E+00  0.00000000000E+00  0.33944165001E+03  0.33944165001E+03  0.00000000000E+00 0.  1.
         21   -1    0    0  502  503 -0.00000000000E+00 -0.00000000000E+00 -0.24911113121E+03  0.24911113121E+03  0.00000000000E+00 0.  1.
         -6    2    1    2    0  503 -0.76289528797E+02  0.17147296343E+03  0.18659682233E+03  0.31625677797E+03  0.17313840163E+03 0.  0.
        -24    2    3    3    0    0 -0.13265426001E+02  0.81908828672E+02  0.17830909766E+03  0.20632703610E+03  0.62383361371E+02 0.  0.
          6    2    1    2  501    0  0.76289528797E+02 -0.17147296343E+03 -0.96266303522E+02  0.27229600325E+03  0.17220581523E+03 0.  0.
         24    2    5    5    0    0  0.10079142101E+03 -0.17808412908E+03 -0.10711709439E+03  0.24429814805E+03  0.79590487181E+02 0.  0.
          5    1    5    5  501    0 -0.24501892212E+02  0.66111656500E+01  0.10850790870E+02  0.27997855199E+02  0.47000000000E+01 0. -1.
        -11    1    6    6    0    0  0.16699778916E+01  0.80341559763E+01 -0.73666881689E+01  0.11027446803E+02  0.00000000000E+00 0.  1.
         12    1    6    6    0    0  0.99121443118E+02 -0.18611828506E+03 -0.99750406223E+02  0.23327070125E+03  0.00000000000E+00 0. -1.
         -5    1    3    3    0  503 -0.63024102796E+02  0.89564134757E+02  0.82877246714E+01  0.10992974187E+03  0.47000000000E+01 0.  1.
         13    1    4    4    0    0 -0.86164592058E+01  0.18700316799E+01  0.75203061911E+02  0.75718167625E+02  0.00000000000E+00 0. -1.
        -14    1    4    4    0    0 -0.46489667949E+01  0.80038796992E+02  0.10310603574E+03  0.13060886847E+03  0.00000000000E+00 0.  1.
</event>
<event>
12    1  0.1050869E+000  0.2475333E+03  0.7818608E-02  0.1114949E+00
         21   -1    0    0  501  502  0.00000000000E+00  0.00000000000E+00  0.30490407708E+03  0.30490407708E+03  0.00000000000E+00 0.  1.
         21   -1    0    0  502  503 -0.00000000000E+00 -0.00000000000E+00 -0.40287115242E+03  0.40287115242E+03  0.00000000000E+00 0. -1.
         -6    2    1    2    0  503  0.36202514889E+02 -0.17381303840E+03  0.20176244140E+03  0.31934432566E+03  0.17248513317E+03 0.  0.
        -24    2    3    3    0    0 -0.48373228799E+02 -0.74873971777E+02  0.94004656114E+02  0.15030046858E+03  0.76205475987E+02 0.  0.
          6    2    1    2  501    0 -0.36202514889E+02  0.17381303840E+03 -0.29972951673E+03  0.38843090384E+03  0.17181149396E+03 0.  0.
         24    2    5    5    0    0  0.82013658712E+01  0.46462032900E+02 -0.18317893201E+03  0.21011626051E+03  0.91478625333E+02 0.  0.
          5    1    5    5  501    0 -0.44403880760E+02  0.12735100551E+03 -0.11655058472E+03  0.17831464334E+03  0.47000000000E+01 0. -1.
        -11    1    6    6    0    0  0.15557141821E+02  0.22931664646E+02 -0.25668639168E+01  0.27829385467E+02  0.00000000000E+00 0.  1.
         12    1    6    6    0    0 -0.73557759501E+01  0.23530368254E+02 -0.18061206810E+03  0.18228687504E+03  0.00000000000E+00 0. -1.
         -5    1    3    3    0  503  0.84575743688E+02 -0.98939066628E+02  0.10775778528E+03  0.16904385707E+03  0.47000000000E+01 0.  1.
         11    1    4    4    0    0 -0.42409151384E+02 -0.87085874185E+02  0.60652515197E+02  0.11428566491E+03  0.00000000000E+00 0. -1.
        -12    1    4    4    0    0 -0.59640774146E+01  0.12211902408E+02  0.33352140918E+02  0.36014803673E+02  0.00000000000E+00 0.  1.
</event>
<event>
12    1  0.1050869E+000  0.1807793E+03  0.7818608E-02  0.1167387E+00
         21   -1    0    0  501  502  0.00000000000E+00  0.00000000000E+00  0.55918062165E+02  0.55918062165E+02  0.00000000000E+00 0. -1.
         21   -1    0    0  502  503 -0.00000000000E+00 -0.00000000000E+00 -0.58068947486E+03  0.58068947486E+03  0.00000000000E+00 0. -1.
         -6    2    1    2    0  503 -0.49563974388E+02 -0.26827801999E+02 -0.27465716132E+03  0.32881259210E+03  0.17176974689E+03 0.  0.
        -24    2    3    3    0    0 -0.61451046179E+02 -0.43815865751E+02 -0.87376169982E+02  0.14032875592E+03  0.79759033908E+02 0.  0.
          6    2    1    2  501    0  0.49563974388E+02  0.26827801999E+02 -0.25011425138E+03  0.30779494492E+03  0.17030640287E+03 0.  0.
         24    2    5    5    0    0  0.70971109373E+02  0.55753204126E+02 -0.11945613575E+03  0.17219045571E+03  0.85055667251E+02 0.  0.
          5    1    5    5  501    0 -0.21407134984E+02 -0.28925402127E+02 -0.13065811563E+03  0.13560448922E+03  0.47000000000E+01 0. -1.
        -13    1    6    6    0    0 -0.88955385272E+01  0.17498686386E+02  0.42206253256E+01  0.20078553460E+02  0.00000000000E+00 0.  1.
         14    1    6    6    0    0  0.79866647900E+02  0.38254517740E+02 -0.12367676108E+03  0.15211190225E+03  0.00000000000E+00 0. -1.
         -5    1    3    3    0  503  0.11887071791E+02  0.16988063752E+02 -0.18728099134E+03  0.18848383618E+03  0.47000000000E+01 0.  1.
         11    1    4    4    0    0 -0.61741149166E+02  0.38993924272E+01 -0.44837319885E+02  0.76403926706E+02  0.00000000000E+00 0. -1.
        -12    1    4    4    0    0  0.29010298683E+00 -0.47715258178E+02 -0.42538850096E+02  0.63924829216E+02  0.00000000000E+00 0.  1.
</event>
<event>
12    1  0.1050869E+000  0.1834120E+03  0.7818608E-02  0.1164542E+00
         21   -1    0    0  503  502  0.00000000000E+00  0.00000000000E+00  0.27840315342E+02  0.27840315342E+02  0.00000000000E+00 0.  1.
         21   -1    0    0  501  503 -0.00000000000E+00 -0.00000000000E+00 -0.12110879009E+04  0.12110879009E+04  0.00000000000E+00 0.  1.
          6    2    1    2  501    0  0.62139948412E+02  0.15945313581E+02 -0.62132042837E+03  0.64782578396E+03  0.17182417013E+03 0.  0.
         24    2    3    3    0    0  0.60516304414E+02 -0.19249734158E+01 -0.62094110760E+03  0.62927269092E+03  0.82160402907E+02 0.  0.
         -6    2    1    2    0  502 -0.62139948412E+02 -0.15945313581E+02 -0.56192715715E+03  0.59110243224E+03  0.17182645095E+03 0.  0.
        -24    2    5    5    0    0 -0.74302671273E+01  0.31407438507E+02 -0.44671764389E+03  0.45497471904E+03  0.80023156265E+02 0.  0.
          5    1    3    3  501    0  0.16236439976E+01  0.17870286996E+02 -0.37932076821E+00  0.18553093042E+02  0.47000000000E+01 0. -1.
        -13    1    4    4    0    0 -0.90932589323E+01  0.23537376201E+02 -0.10250907873E+03  0.10556896637E+03  0.00000000000E+00 0.  1.
         14    1    4    4    0    0  0.69609563347E+02 -0.25462349617E+02 -0.51843202886E+03  0.52370372455E+03  0.00000000000E+00 0. -1.
         -5    1    5    5    0  502 -0.54709681285E+02 -0.47352752087E+02 -0.11520951326E+03  0.13612771320E+03  0.47000000000E+01 0.  1.
         13    1    6    6    0    0 -0.28957482918E+02  0.19802661141E+02 -0.78930452828E+02  0.86375329747E+02  0.00000000000E+00 0. -1.
        -14    1    6    6    0    0  0.21527215790E+02  0.11604777366E+02 -0.36778719106E+03  0.36859938929E+03  0.00000000000E+00 0.  1.
</event>
<event>
12    1  0.1050869E+000  0.2509386E+03  0.7818608E-02  0.1112885E+00
         21   -1    0    0  503  502  0.00000000000E+00  0.00000000000E+00  0.78893174966E+03  0.78893174966E+03  0.00000000000E+00 0. -1.
         21   -1    0    0  501  503 -0.00000000000E+00 -0.00000000000E+00 -0.82278536493E+02  0.82278536493E+02  0.00000000000E+00 0. -1.
          6    2    1    2  501    0  0.17649997977E+03  0.48417332567E+02  0.27210369592E+03  0.36941006994E+03  0.17007909187E+03 0.  0.
         24    2    3    3    0    0  0.43588849360E+02 -0.28144770515E+02  0.11929487347E+03  0.15284656786E+03  0.80241451732E+02 0.  0.
         -6    2    1    2    0  502 -0.17649997977E+03 -0.48417332567E+02  0.43454951725E+03  0.50180021621E+03  0.17167904093E+03 0.  0.
        -24    2    5    5    0    0 -0.15647591035E+03  0.18830210669E+02  0.26422169031E+03  0.31752636007E+03  0.78553168959E+02 0.  0.
          5    1    3    3  501    0  0.13291113041E+03  0.76562103081E+02  0.15280882245E+03  0.21656350208E+03  0.47000000000E+01 0. -1.
        -13    1    4    4    0    0  0.28577761917E+01  0.23642676910E+02  0.58643732919E+02  0.63294790204E+02  0.00000000000E+00 0.  1.
         14    1    4    4    0    0  0.40731073168E+02 -0.51787447424E+02  0.60651140549E+02  0.89551777660E+02  0.00000000000E+00 0. -1.
         -5    1    5    5    0  502 -0.20024069417E+02 -0.67247543236E+02  0.17032782694E+03  0.18427385614E+03  0.47000000000E+01 0.  1.
         13    1    6    6    0    0 -0.82220812978E+02  0.43050391287E+02  0.18091358066E+03  0.20333057307E+03  0.00000000000E+00 0. -1.
        -14    1    6    6    0    0 -0.74255097374E+02 -0.24220180618E+02  0.83308109651E+02  0.11419578700E+03  0.00000000000E+00 0.  1.
</event>
<event>
12    1  0.1050869E+000  0.1991273E+03  0.7818608E-02  0.1150496E+00
         21   -1    0    0  503  502  0.00000000000E+00  0.00000000000E+00  0.42454447289E+03  0.42454447289E+03  0.00000000000E+00 0. -1.
         21   -1    0    0  501  503 -0.00000000000E+00 -0.00000000000E+00 -0.15944823930E+03  0.15944823930E+03  0.00000000000E+00 0. -1.
          6    2    1    2  501    0 -0.71363878146E+02 -0.69401565381E+02  0.32052346466E+03  0.37729515894E+03  0.17235708624E+03 0.  0.
         24    2    3    3    0    0 -0.10162851923E+03 -0.92952883254E+01  0.20757334473E+03  0.24573326235E+03  0.82966164642E+02 0.  0.
         -6    2    1    2    0  502  0.71363878146E+02  0.69401565381E+02 -0.55427231072E+02  0.20669755326E+03  0.17245961903E+03 0.  0.
        -24    2    5    5    0    0  0.12409061656E+02  0.66519548824E+02 -0.90389202395E+02  0.13793414841E+03  0.79226171195E+02 0.  0.
          5    1    3    3  501    0  0.30264641087E+02 -0.60106277055E+02  0.11295011993E+03  0.13156189659E+03  0.47000000000E+01 0. -1.
        -11    1    4    4    0    0 -0.19529330504E+02  0.48227126790E+01 -0.19953119284E+01  0.20214711900E+02  0.00000000000E+00 0.  1.
         12    1    4    4    0    0 -0.82099188730E+02 -0.14118001004E+02  0.20956865666E+03  0.22551855045E+03  0.00000000000E+00 0. -1.
         -5    1    5    5    0  502  0.58954816491E+02  0.28820165564E+01  0.34961971323E+02  0.68763404843E+02  0.47000000000E+01 0.  1.
         11    1    6    6    0    0  0.39153221785E+02  0.83698605752E+01 -0.38383120503E+02  0.55464342435E+02  0.00000000000E+00 0. -1.
        -12    1    6    6    0    0 -0.26744160129E+02  0.58149688249E+02 -0.52006081891E+02  0.82469805979E+02  0.00000000000E+00 0.  1.
</event>
<event>
12    1  0.1050869E+000  0.2790578E+03  0.7818608E-02  0.1096518E+00
         21   -1    0    0  501  502  0.00000000000E+00  0.00000000000E+00  0.70843210751E+03  0.70843210751E+03  0.00000000000E+00 0. -1.
         21   -1    0    0  502  503 -0.00000000000E+00 -0.00000000000E+00 -0.19095931345E+03  0.19095931345E+03  0.00000000000E+00 0. -1.
         -6    2    1    2    0  503 -0.21757784744E+03 -0.18836291442E+02 -0.35214248393E+02  0.28127085475E+03  0.17371909759E+03 0.  0.
        -24    2    3    3    0    0 -0.14989434720E+03  0.52815655206E+02 -0.56326422818E+01  0.17825522931E+03  0.80531927590E+02 0.  0.
          6    2    1    2  501    0  0.21757784744E+03  0.18836291442E+02  0.55268704245E+03  0.61812056621E+03  0.17004452919E+03 0.  0.
         24    2    5    5    0    0  0.67444214109E+02 -0.37684446323E+02  0.20441978914E+03  0.23465365579E+03  0.85475426141E+02 0.  0.
          5    1    5    5  501    0  0.15013363333E+03  0.56520737765E+02  0.34826725331E+03  0.38346691041E+03  0.47000000000E+01 0. -1.
        -11    1    6    6    0    0  0.57499543016E+02 -0.14147135796E+02  0.20017751574E+03  0.20875195018E+03  0.00000000000E+00 0.  1.
         12    1    6    6    0    0  0.99446710933E+01 -0.23537310527E+02  0.42422734035E+01  0.25901705612E+02  0.00000000000E+00 0. -1.
         -5    1    3    3    0  503 -0.67683500246E+02 -0.71651946648E+02 -0.29581606111E+02  0.10301562544E+03  0.47000000000E+01 0.  1.
         11    1    4    4    0    0 -0.66958037772E+02  0.32552882760E+02 -0.41971854237E+02  0.85467570144E+02  0.00000000000E+00 0. -1.
        -12    1    4    4    0    0 -0.82936309426E+02  0.20262772446E+02  0.36339211955E+02  0.92787659168E+02  0.00000000000E+00 0.  1.
</event>
<event>
12    1  0.1050869E+000  0.4218098E+03  0.7818608E-02  0.1036482E+00
         21   -1    0    0  501  502  0.00000000000E+00  0.00000000000E+00  0.70373559988E+03  0.70373559988E+03  0.00000000000E+00 0.  1.
         21   -1    0    0  502  503 -0.00000000000E+00 -0.00000000000E+00 -0.25402590117E+03  0.25402590117E+03  0.00000000000E+00 0.  1.
         -6    2    1    2    0  503  0.37913436937E+03 -0.67901135566E+02  0.25809706372E+03  0.49447009332E+03  0.17185210105E+03 0.  0.
        -24    2    3    3    0    0  0.24034523316E+03 -0.48323387410E+02  0.24146090569E+03  0.35324486786E+03  0.79859794728E+02 0.  0.
          6    2    1    2  501    0 -0.37913436937E+03  0.67901135566E+02  0.19161263499E+03  0.46329140773E+03  0.17195956601E+03 0.  0.
         24    2    5    5    0    0 -0.13040093871E+03  0.76727831635E+02  0.97738401806E+02  0.19724499872E+03  0.80381772619E+02 0.  0.
          5    1    5    5  501    0 -0.24873343066E+03 -0.88266960682E+01  0.93874233183E+02  0.26604640901E+03  0.47000000000E+01 0. -1.
        -13    1    6    6    0    0 -0.13596083680E+02 -0.14117372240E+02  0.26649306074E+02  0.33080798125E+02  0.00000000000E+00 0.  1.
         14    1    6    6    0    0 -0.11680485503E+03  0.90845203874E+02  0.71089095732E+02  0.16416420060E+03  0.00000000000E+00 0. -1.
         -5    1    3    3    0  503  0.13878913621E+03 -0.19577748156E+02  0.16636158022E+02  0.14122522546E+03  0.47000000000E+01 0.  1.
         13    1    4    4    0    0  0.14367830146E+02 -0.70110622838E+01  0.55292142789E+02  0.57557020350E+02  0.00000000000E+00 0. -1.
        -14    1    4    4    0    0  0.22597740302E+03 -0.41312325127E+02  0.18616876291E+03  0.29568784751E+03  0.00000000000E+00 0.  1.
</event>
<event>
12    1  0.1050869E+000  0.1955596E+03  0.7818608E-02  0.1155934E+00
         21   -1    0    0  501  502  0.00000000000E+00  0.00000000000E+00  0.24821015099E+03  0.24821015099E+03  0.00000000000E+00 0.  1.
         21   -1    0    0  502  503 -0.00000000000E+00 -0.00000000000E+00 -0.14648913589E+03  0.14648913589E+03  0.00000000000E+00 0.  1.
         -6    2    1    2    0  503 -0.26596516696E+02  0.61438698492E+02  0.63281452521E+02  0.19539762210E+03  0.17231831045E+03 0.  0.
        -24    2    3    3    0    0 -0.62046579997E+02 -0.10937587479E+02  0.19881066404E+02  0.10374219524E+03  0.79986107304E+02 0.  0.
          6    2    1    2  501    0  0.26596516696E+02 -0.61438698492E+02  0.38439562571E+02  0.19930166478E+03  0.18374293249E+03 0.  0.
         24    2    5    5    0    0  0.48372933120E+02 -0.97270239700E+01  0.84407789611E+02  0.12661413152E+03  0.80448167781E+02 0.  0.
          5    1    5    5  501    0 -0.21776416424E+02 -0.51711674522E+02 -0.45968227040E+02  0.72687533260E+02  0.47000000000E+01 0. -1.
        -13    1    6    6    0    0  0.18739180414E+02 -0.17445161099E+02 -0.99070875363E+01  0.27452521046E+02  0.00000000000E+00 0.  1.
         14    1    6    6    0    0  0.29633752706E+02  0.77181371289E+01  0.94314877147E+02  0.99161610473E+02  0.00000000000E+00 0. -1.
         -5    1    3    3    0  503  0.35450063301E+02  0.72376285972E+02  0.43400386117E+02  0.91655426867E+02  0.47000000000E+01 0.  1.
         13    1    4    4    0    0 -0.16851033489E+02  0.60642866219E+01  0.45629711280E+02  0.49018399131E+02  0.00000000000E+00 0. -1.
        -14    1    4    4    0    0 -0.45195546508E+02 -0.17001874101E+02 -0.25748644876E+02  0.54723796104E+02  0.00000000000E+00 0.  1.
</event>
<event>
12    1  0.1050869E+000  0.1783643E+03  0.7818608E-02  0.1170975E+00
         21   -1    0    0  503  502  0.00000000000E+00  0.00000000000E+00  0.16646427110E+03  0.16646427110E+03  0.00000000000E+00 0. -1.
         21   -1    0    0  501  503 -0.00000000000E+00 -0.00000000000E+00 -0.30683138466E+03  0.30683138466E+03  0.00000000000E+00 0. -1.
          6    2    1    2  501    0  0.42764813087E+02 -0.13907941798E+02  0.78527859184E+02  0.19488570832E+03  0.17260230171E+03 0.  0.
         24    2    3    3    0    0  0.33763883940E+02  0.90525684472E+01  0.11861361307E+03  0.14758708868E+03  0.80565567615E+02 0.  0.
         -6    2    1    2    0  502 -0.42764813087E+02  0.13907941798E+02 -0.21889497274E+03  0.27840994743E+03  0.16605670613E+03 0.  0.
        -24    2    5    5    0    0 -0.45679831423E+02 -0.39816055004E+02 -0.19373469911E+03  0.21882895605E+03  0.81737464668E+02 0.  0.
          5    1    3    3  501    0  0.90009291472E+01 -0.22960510245E+02 -0.40085753882E+02  0.47298619647E+02  0.47000000000E+01 0. -1.
        -13    1    4    4    0    0  0.59625223475E+02 -0.19082621967E+01  0.77697629591E+02  0.97957798991E+02  0.00000000000E+00 0.  1.
         14    1    4    4    0    0 -0.25861339535E+02  0.10960830644E+02  0.40915983475E+02  0.49629289685E+02  0.00000000000E+00 0. -1.
         -5    1    5    5    0  502  0.29150183355E+01  0.53723996803E+02 -0.25160273631E+02  0.59580991378E+02  0.47000000000E+01 0.  1.
         11    1    6    6    0    0  0.16476386954E+02  0.12204376154E+02 -0.33921302916E+02  0.39636762177E+02  0.00000000000E+00 0. -1.
        -12    1    6    6    0    0 -0.62156218377E+02 -0.52020431159E+02 -0.15981339620E+03  0.17919219387E+03  0.00000000000E+00 0.  1.
</event>
<event>
12    1  0.1050869E+000  0.2578230E+03  0.7818608E-02  0.1108480E+00
         21   -1    0    0  501  502  0.00000000000E+00  0.00000000000E+00  0.30909647948E+03  0.30909647948E+03  0.00000000000E+00 0.  1.
         21   -1    0    0  502  503 -0.00000000000E+00 -0.00000000000E+00 -0.25550684057E+03  0.25550684057E+03  0.00000000000E+00 0.  1.
         -6    2    1    2    0  503 -0.25953021302E+02 -0.19023597663E+03  0.13928118450E+03  0.29291282066E+03  0.17185862223E+03 0.  0.
        -24    2    3    3    0    0 -0.26548409706E+02 -0.20304730376E+03  0.15718165665E+03  0.27039612700E+03  0.80467177703E+02 0.  0.
          6    2    1    2  501    0  0.25953021302E+02  0.19023597663E+03 -0.85691545590E+02  0.27169049938E+03  0.17207382238E+03 0.  0.
         24    2    5    5    0    0 -0.22985991978E+02  0.83888992455E+02 -0.88588969349E+02  0.15449325911E+03  0.91948043680E+02 0.  0.
          5    1    5    5  501    0  0.48939013280E+02  0.10634698418E+03  0.28974237593E+01  0.11719724028E+03  0.47000000000E+01 0. -1.
        -13    1    6    6    0    0  0.32906147444E+02  0.30662785543E+02 -0.52968372719E+02  0.69488628317E+02  0.00000000000E+00 0.  1.
         14    1    6    6    0    0 -0.55892139422E+02  0.53226206912E+02 -0.35620596630E+02  0.85004630789E+02  0.00000000000E+00 0. -1.
         -5    1    3    3    0  503  0.59538840348E+00  0.12811327131E+02 -0.17900472152E+02  0.22516693662E+02  0.47000000000E+01 0.  1.
         11    1    4    4    0    0 -0.94538316365E+01 -0.14606283458E+02  0.49983244080E+02  0.52924882029E+02  0.00000000000E+00 0. -1.
        -12    1    4    4    0    0 -0.17094578069E+02 -0.18844102030E+03  0.10719841257E+03  0.21747124497E+03  0.00000000000E+00 0.  1.
</event>
<event>
12    1  0.1050869E+000  0.2007951E+03  0.7818608E-02  0.1150114E+00
         21   -1    0    0  501  502  0.00000000000E+00  0.00000000000E+00  0.39514242563E+03  0.39514242563E+03  0.00000000000E+00 0.  1.
         21   -1    0    0  502  503 -0.00000000000E+00 -0.00000000000E+00 -0.12411213034E+03  0.12411213034E+03  0.00000000000E+00 0.  1.
         -6    2    1    2    0  503  0.83707968846E+02 -0.61002440368E+02  0.18694277766E+02  0.19677640828E+03  0.16626231400E+03 0.  0.
        -24    2    3    3    0    0  0.11892184660E+02 -0.21156943130E+02 -0.43027501295E+02  0.93932650480E+02  0.79893282947E+02 0.  0.
          6    2    1    2  501    0 -0.83707968846E+02  0.61002440368E+02  0.25233601753E+03  0.32247814768E+03  0.17201851125E+03 0.  0.
         24    2    5    5    0    0 -0.12701768164E+03  0.69180783674E+02  0.20156621873E+03  0.25508171609E+03  0.59314998705E+02 0.  0.
          5    1    5    5  501    0  0.43309712796E+02 -0.81783433053E+01  0.50769798798E+02  0.67396431595E+02  0.47000000000E+01 0. -1.
        -13    1    6    6    0    0 -0.44754708515E+02  0.23066231413E+02  0.28157277815E+02  0.57687669911E+02  0.00000000000E+00 0.  1.
         14    1    6    6    0    0 -0.82262973127E+02  0.46114552261E+02  0.17340894091E+03  0.19739404618E+03  0.00000000000E+00 0. -1.
         -5    1    3    3    0  503  0.71815784185E+02 -0.39845497238E+02  0.61721779061E+02  0.10284375780E+03  0.47000000000E+01 0.  1.
         11    1    4    4    0    0 -0.33531612278E+02 -0.33640986804E+01 -0.24852059104E+02  0.41872556927E+02  0.00000000000E+00 0. -1.
        -12    1    4    4    0    0  0.45423796939E+02 -0.17792844450E+02 -0.18175442191E+02  0.52060093553E+02  0.00000000000E+00 0.  1.
</event>
<event>
12    1  0.1050869E+000  0.2534902E+03  0.7818608E-02  0.1112201E+00
         21   -1    0    0  503  502  0.00000000000E+00  0.00000000000E+00  0.50235335569E+02  0.50235335569E+02  0.00000000000E+00 0. -1.
         21   -1    0    0  501  503 -0.00000000000E+00 -0.00000000000E+00 -0.12653189602E+04  0.12653189602E+04  0.00000000000E+00 0. -1.
          6    2    1    2  501    0  0.94871608103E+02 -0.14912950606E+03 -0.51530974473E+03  0.57128232746E+03  0.17198585131E+03 0.  0.
         24    2    3    3    0    0  0.56623755752E+02 -0.17054069096E+03 -0.36212923956E+03  0.41188441589E+03  0.78872104837E+02 0.  0.
         -6    2    1    2    0  502 -0.94871608103E+02  0.14912950606E+03 -0.69977387992E+03  0.74427196833E+03  0.18170593887E+03 0.  0.
        -24    2    5    5    0    0 -0.91693365470E+02  0.17942578307E+03 -0.65587051831E+03  0.69062906771E+03  0.78746983862E+02 0.  0.
          5    1    3    3  501    0  0.38247852351E+02  0.21411184896E+02 -0.15318050517E+03  0.15939791156E+03  0.47000000000E+01 0. -1.
        -11    1    4    4    0    0  0.24749006649E+02 -0.88745202916E+02 -0.10252493501E+03  0.13783898821E+03  0.00000000000E+00 0.  1.
         12    1    4    4    0    0  0.31874749103E+02 -0.81795488044E+02 -0.25960430455E+03  0.27404542769E+03  0.00000000000E+00 0. -1.
         -5    1    5    5    0  502 -0.31782426331E+01 -0.30296277008E+02 -0.43903361609E+02  0.53642900624E+02  0.47000000000E+01 0.  1.
         11    1    6    6    0    0  0.10731080847E+01  0.15255019199E+02 -0.14963175657E+03  0.15041120220E+03  0.00000000000E+00 0. -1.
        -12    1    6    6    0    0 -0.92766473555E+02  0.16417076387E+03 -0.50623876174E+03  0.54021786551E+03  0.00000000000E+00 0.  1.
</event>
<event>
12    1  0.1050869E+000  0.3739195E+03  0.7818608E-02  0.1053421E+00
         21   -1    0    0  503  502  0.00000000000E+00  0.00000000000E+00  0.94873683877E+03  0.94873683877E+03  0.00000000000E+00 0.  1.
         21   -1    0    0  501  503 -0.00000000000E+00 -0.00000000000E+00 -0.17255652305E+03  0.17255652305E+03  0.00000000000E+00 0.  1.
          6    2    1    2  501    0  0.76696078414E+02 -0.32014882410E+03  0.60506231071E+03  0.71007907348E+03  0.17243646000E+03 0.  0.
         24    2    3    3    0    0  0.13829483907E+02 -0.24018198855E+03  0.32575354805E+03  0.41278733395E+03  0.79996042116E+02 0.  0.
         -6    2    1    2    0  502 -0.76696078414E+02  0.32014882410E+03  0.17111800501E+03  0.41121428833E+03  0.17730837903E+03 0.  0.
        -24    2    5    5    0    0  0.19743407644E+02  0.78609550287E+02  0.55052863566E+02  0.12637222275E+03  0.79811386123E+02 0.  0.
          5    1    3    3  501    0  0.62866594508E+02 -0.79966835547E+02  0.27930876266E+03  0.29729173953E+03  0.47000000000E+01 0. -1.
        -13    1    4    4    0    0  0.41196680882E+02 -0.71884864599E+02  0.11370297724E+03  0.14068748099E+03  0.00000000000E+00 0.  1.
         14    1    4    4    0    0 -0.27367196975E+02 -0.16829712395E+03  0.21205057081E+03  0.27209985296E+03  0.00000000000E+00 0. -1.
         -5    1    5    5    0  502 -0.96439486058E+02  0.24153927381E+03  0.11606514145E+03  0.28484206558E+03  0.47000000000E+01 0.  1.
         11    1    6    6    0    0  0.29732011565E+02  0.75460788764E+02  0.70664998404E+02  0.10757260410E+03  0.00000000000E+00 0. -1.
        -12    1    6    6    0    0 -0.99886039213E+01  0.31487615233E+01 -0.15612134838E+02  0.18799618657E+02  0.00000000000E+00 0.  1.
</event>
<event>
12    1  0.1050869E+000  0.2140984E+03  0.7818608E-02  0.1138636E+00
         21   -1    0    0  503  502  0.00000000000E+00  0.00000000000E+00  0.46980216906E+03  0.46980216906E+03  0.00000000000E+00 0. -1.
         21   -1    0    0  501  503 -0.00000000000E+00 -0.00000000000E+00 -0.99603538931E+02  0.99603538931E+02  0.00000000000E+00 0. -1.
          6    2    1    2  501    0  0.11069710965E+03 -0.56798222752E+02  0.23240407355E+03  0.31599014127E+03  0.17423612652E+03 0.  0.
         24    2    3    3    0    0  0.90369671022E+02  0.12980878511E+02  0.20399768884E+03  0.23781507858E+03  0.81275912183E+02 0.  0.
         -6    2    1    2    0  502 -0.11069710965E+03  0.56798222752E+02  0.13779455657E+03  0.25341556671E+03  0.17248832262E+03 0.  0.
        -24    2    5    5    0    0  0.23949758760E+01  0.49767385316E+02  0.67201012398E+02  0.11983117031E+03  0.85796298056E+02 0.  0.
          5    1    3    3  501    0  0.20327438626E+02 -0.69779101263E+02  0.28406384710E+02  0.78175062689E+02  0.47000000000E+01 0. -1.
        -11    1    4    4    0    0  0.42331955926E+02 -0.26480630615E+02  0.13980070278E+03  0.14845017611E+03  0.00000000000E+00 0.  1.
         12    1    4    4    0    0  0.48037715096E+02  0.39461509126E+02  0.64196986063E+02  0.89364902471E+02  0.00000000000E+00 0. -1.
         -5    1    5    5    0  502 -0.11309208552E+03  0.70308374359E+01  0.70593544176E+02  0.13358439640E+03  0.47000000000E+01 0.  1.
         11    1    6    6    0    0  0.11732016202E+02 -0.14066475107E+02 -0.86490870942E+01  0.20256175199E+02  0.00000000000E+00 0. -1.
        -12    1    6    6    0    0 -0.93370403260E+01  0.63833860423E+02  0.75850099492E+02  0.99574995112E+02  0.00000000000E+00 0.  1.
</event>
<event>
12    1  0.1050869E+000  0.2065983E+03  0.7818608E-02  0.1144404E+00
         21   -1    0    0  501  502  0.00000000000E+00  0.00000000000E+00  0.14409182647E+03  0.14409182647E+03  0.00000000000E+00 0. -1.
         21   -1    0    0  502  503 -0.00000000000E+00 -0.00000000000E+00 -0.38947229432E+03  0.38947229432E+03  0.00000000000E+00 0. -1.
         -6    2    1    2    0  503 -0.85801770324E+02  0.73829615770E+02  0.85480594792E+01  0.20620719747E+03  0.17214988531E+03 0.  0.
        -24    2    3    3    0    0 -0.11748705346E+03  0.71499398621E+02 -0.23914171279E+02  0.16054240244E+03  0.79288105396E+02 0.  0.
          6    2    1    2  501    0  0.85801770324E+02 -0.73829615770E+02 -0.25392852733E+03  0.32735692332E+03  0.17282969159E+03 0.  0.
         24    2    5    5    0    0  0.11290752696E+03 -0.96788223848E+02 -0.22494329321E+03  0.28126946814E+03  0.79980989144E+02 0.  0.
          5    1    5    5  501    0 -0.27105756640E+02  0.22958608078E+02 -0.28985234119E+02  0.46087455178E+02  0.47000000000E+01 0. -1.
        -13    1    6    6    0    0  0.52599427934E+02 -0.57843091025E+01 -0.11366840107E+03  0.12538206990E+03  0.00000000000E+00 0.  1.
         14    1    6    6    0    0  0.60308099030E+02 -0.91003914745E+02 -0.11127489214E+03  0.15588739823E+03  0.00000000000E+00 0. -1.
         -5    1    3    3    0  503  0.31685283140E+02  0.23302171485E+01  0.32462230758E+02  0.45664795033E+02  0.47000000000E+01 0.  1.
         13    1    4    4    0    0 -0.64720970763E+02  0.73729025660E+02 -0.39067197198E+02  0.10559838625E+03  0.00000000000E+00 0. -1.
        -14    1    4    4    0    0 -0.52766082702E+02 -0.22296270395E+01  0.15153025919E+02  0.54944016188E+02  0.00000000000E+00 0.  1.
</event>
<event>
12    1  0.1050869E+000  0.7495412E+03  0.7818608E-02  0.9636113E-01
         21   -1    0    0  503  502  0.00000000000E+00  0.00000000000E+00  0.75465022044E+03  0.75465022044E+03  0.00000000000E+00 0. -1.
         21   -1    0    0  501  503 -0.00000000000E+00 -0.00000000000E+00 -0.80168211632E+03  0.80168211632E+03  0.00000000000E+00 0. -1.
          6    2    1    2  501    0  0.44988974715E+03 -0.57421380506E+03  0.18456721356E+03  0.77193077205E+03  0.17230723143E+03 0.  0.
         24    2    3    3    0    0  0.28472451747E+03 -0.41430476017E+03  0.66715715168E+02  0.51354826218E+03  0.81020650403E+02 0.  0.
         -6    2    1    2    0  502 -0.44988974715E+03  0.57421380506E+03 -0.23159910944E+03  0.78440156471E+03  0.17182953386E+03 0.  0.
        -24    2    5    5    0    0 -0.19020968351E+03  0.17651891846E+03 -0.44621753353E+02  0.27393356378E+03  0.75563511146E+02 0.  0.
          5    1    3    3  501    0  0.16516522968E+03 -0.15990904490E+03  0.11785149839E+03  0.25838250987E+03  0.47000000000E+01 0. -1.
        -11    1    4    4    0    0  0.97365546734E+02 -0.19447794892E+03  0.55660756943E+02  0.22449909169E+03  0.00000000000E+00 0.  1.
         12    1    4    4    0    0  0.18735897074E+03 -0.21982681125E+03  0.11054958225E+02  0.28904917049E+03  0.00000000000E+00 0. -1.
         -5    1    5    5    0  502 -0.25968006364E+03  0.39769488661E+03 -0.18697735609E+03  0.51046800093E+03  0.47000000000E+01 0.  1.
         13    1    6    6    0    0 -0.10950073045E+03  0.86532562249E+02 -0.60317013245E+02  0.15204090366E+03  0.00000000000E+00 0. -1.
        -14    1    6    6    0    0 -0.80708953065E+02  0.89986356207E+02  0.15695259892E+02  0.12189266012E+03  0.00000000000E+00 0.  1.
</event>
<event>
12    1  0.1050869E+000  0.2231387E+03  0.7818608E-02  0.1131627E+00
         21   -1    0    0  501  502  0.00000000000E+00  0.00000000000E+00  0.47130853583E+02  0.47130853583E+02  0.00000000000E+00 0.  1.
         21   -1    0    0  502  503 -0.00000000000E+00 -0.00000000000E+00 -0.12307241683E+04  0.12307241683E+04  0.00000000000E+00 0. -1.
         -6    2    1    2    0  503  0.13363537327E+03  0.45455350862E+02 -0.35063846142E+03  0.41561785575E+03  0.17281860281E+03 0.  0.
        -24    2    3    3    0    0  0.12800511042E+03 -0.19358922340E+02 -0.25938783998E+03  0.30345121283E+03  0.89668895771E+02 0.  0.
          6    2    1    2  501    0 -0.13363537327E+03 -0.45455350862E+02 -0.83295485329E+03  0.86223716613E+03  0.17237906232E+03 0.  0.
         24    2    5    5    0    0 -0.63868103158E+02  0.22278671310E+02 -0.60973708976E+03  0.61871380033E+03  0.80324182446E+02 0.  0.
          5    1    5    5  501    0 -0.69767270110E+02 -0.67734022171E+02 -0.22321776353E+03  0.24352336581E+03  0.47000000000E+01 0. -1.
        -11    1    6    6    0    0 -0.40534326084E+02  0.35977103671E+02 -0.17652807343E+03  0.18466061922E+03  0.00000000000E+00 0.  1.
         12    1    6    6    0    0 -0.23333777074E+02 -0.13698432361E+02 -0.43320901633E+03  0.43405318111E+03  0.00000000000E+00 0. -1.
         -5    1    3    3    0  503  0.56302628446E+01  0.64814273202E+02 -0.91250621439E+02  0.11216664292E+03  0.47000000000E+01 0.  1.
         13    1    4    4    0    0  0.19877763803E+02  0.17965730755E+02 -0.12088692350E+03  0.12382060107E+03  0.00000000000E+00 0. -1.
        -14    1    4    4    0    0  0.10812734662E+03 -0.37324653095E+02 -0.13850091648E+03  0.17963061176E+03  0.00000000000E+00 0.  1.
</event>
<event>
12    1  0.1050869E+000  0.2360910E+03  0.7818608E-02  0.1122948E+00
         21   -1    0    0  503  502  0.00000000000E+00  0.00000000000E+00  0.80776411331E+02  0.80776411331E+02  0.00000000000E+00 0.  1.
         21   -1    0    0  501  503 -0.00000000000E+00 -0.00000000000E+00 -0.68164522123E+03  0.68164522123E+03  0.00000000000E+00 0.  1.
          6    2    1    2  501    0  0.15933143296E+03  0.66423561410E+01 -0.30889304966E+03  0.38693685532E+03  0.16992524078E+03 0.  0.
         24    2    3    3    0    0  0.20265050092E+02 -0.14780544284E+02 -0.70429044793E+02  0.11001525789E+03  0.80709168459E+02 0.  0.
         -6    2    1    2    0  502 -0.15933143296E+03 -0.66423561410E+01 -0.29197576024E+03  0.37548477724E+03  0.17409292618E+03 0.  0.
        -24    2    5    5    0    0 -0.28037709155E+02  0.25136064487E+02 -0.56144976557E+02  0.10366469251E+03  0.78588645544E+02 0.  0.
          5    1    3    3  501    0  0.13906638287E+03  0.21422900425E+02 -0.23846400487E+03  0.27692159743E+03  0.47000000000E+01 0. -1.
        -11    1    4    4    0    0  0.11972067504E+02 -0.20442540028E+02 -0.87258790577E+02  0.90417500386E+02  0.00000000000E+00 0.  1.
         12    1    4    4    0    0  0.82929825878E+01  0.56619957432E+01  0.16829745784E+02  0.19597757503E+02  0.00000000000E+00 0. -1.
         -5    1    5    5    0  502 -0.13129372381E+03 -0.31778420628E+02 -0.23583078368E+03  0.27182008473E+03  0.47000000000E+01 0.  1.
         13    1    6    6    0    0 -0.32034369991E+02 -0.17012874912E+02 -0.48626261226E+02  0.60664256810E+02  0.00000000000E+00 0. -1.
        -14    1    6    6    0    0  0.39966608362E+01  0.42148939399E+02 -0.75187153306E+01  0.43000435702E+02  0.00000000000E+00 0.  1.
</event>
<event>
12    1  0.1050869E+000  0.1742590E+03  0.7818608E-02  0.1173563E+00
         21   -1    0    0  503  502  0.00000000000E+00  0.00000000000E+00  0.36315101494E+03  0.36315101494E+03  0.00000000000E+00 0.  1.
         21   -1    0    0  501  503 -0.00000000000E+00 -0.00000000000E+00 -0.83457506528E+02  0.83457506528E+02  0.00000000000E+00 0.  1.
          6    2    1    2  501    0 -0.60943971221E+01 -0.23792994162E+02  0.13992861924E+03  0.22322452641E+03  0.17217991306E+03 0.  0.
         24    2    3    3    0    0  0.10237669212E+01 -0.52435300024E+02  0.17794771608E+02  0.97487432907E+02  0.80228653802E+02 0.  0.
         -6    2    1    2    0  502  0.60943971221E+01  0.23792994162E+02  0.13976488917E+03  0.22338399506E+03  0.17251938082E+03 0.  0.
        -24    2    5    5    0    0  0.23991149063E+02 -0.34324960777E+02  0.26645632084E+02  0.94869222603E+02  0.80848014956E+02 0.  0.
          5    1    3    3  501    0 -0.71181640433E+01  0.28642305862E+02  0.12213384763E+03  0.12573709350E+03  0.47000000000E+01 0. -1.
        -13    1    4    4    0    0 -0.38020998785E+02 -0.35295969163E+02  0.16889410704E+01  0.51906206851E+02  0.00000000000E+00 0.  1.
         14    1    4    4    0    0  0.39044765706E+02 -0.17139330861E+02  0.16105830538E+02  0.45581226055E+02  0.00000000000E+00 0. -1.
         -5    1    5    5    0  502 -0.17896751941E+02  0.58117954939E+02  0.11311925709E+03  0.12851477246E+03  0.47000000000E+01 0.  1.
         13    1    6    6    0    0  0.36204492813E+02 -0.50246951410E+02  0.37149920577E+02  0.72219374303E+02  0.00000000000E+00 0. -1.
        -14    1    6    6    0    0 -0.12213343749E+02  0.15921990633E+02 -0.10504288493E+02  0.22649848300E+02  0.00000000000E+00 0.  1.
</event>
<event>
12    1  0.1050869E+000  0.2612086E+03  0.7818608E-02  0.1106833E+00
         21   -1    0    0  501  502  0.00000000000E+00  0.00000000000E+00  0.18298577769E+03  0.18298577769E+03  0.00000000000E+00 0. -1.
         21   -1    0    0  502  503 -0.00000000000E+00 -0.00000000000E+00 -0.59802683961E+03  0.59802683961E+03  0.00000000000E+00 0. -1.
         -6    2    1    2    0  503  0.17186534152E+03 -0.92234389622E+02 -0.44989094726E+03  0.52022283870E+03  0.17373847941E+03 0.  0.
        -24    2    3    3    0    0  0.91989777956E+02 -0.10094771644E+03 -0.18699254246E+03  0.24527977374E+03  0.80891258918E+02 0.  0.
          6    2    1    2  501    0 -0.17186534152E+03  0.92234389622E+02  0.34849885341E+02  0.26078977860E+03  0.16956389908E+03 0.  0.
         24    2    5    5    0    0 -0.76045295230E+02  0.88075202782E+02 -0.30569038546E+02  0.14459810202E+03  0.80212322729E+02 0.  0.
          5    1    5    5  501    0 -0.95820046285E+02  0.41591868400E+01  0.65418923887E+02  0.11619167659E+03  0.47000000000E+01 0. -1.
        -13    1    6    6    0    0 -0.62018608981E+02  0.11107335661E+02 -0.11088438577E+02  0.63973699561E+02  0.00000000000E+00 0.  1.
         14    1    6    6    0    0 -0.14026686250E+02  0.76967867121E+02 -0.19480599969E+02  0.80624402457E+02  0.00000000000E+00 0. -1.
         -5    1    3    3    0  503  0.79875563559E+02  0.87133268139E+01 -0.26289840481E+03  0.27494306496E+03  0.47000000000E+01 0.  1.
         13    1    4    4    0    0  0.13365503605E+02 -0.30378810129E+02 -0.32741688281E+01  0.33350097046E+02  0.00000000000E+00 0. -1.
        -14    1    4    4    0    0  0.78624274352E+02 -0.70568906307E+02 -0.18371837363E+03  0.21192967669E+03  0.00000000000E+00 0.  1.
</event>
<event>
12    1  0.1050869E+000  0.2601839E+03  0.7818608E-02  0.1107557E+00
         21   -1    0    0  503  502  0.00000000000E+00  0.00000000000E+00  0.14832738038E+03  0.14832738038E+03  0.00000000000E+00 0.  1.
         21   -1    0    0  501  503 -0.00000000000E+00 -0.00000000000E+00 -0.47025684928E+03  0.47025684928E+03  0.00000000000E+00 0. -1.
          6    2    1    2  501    0  0.19201640387E+03  0.31815202931E+02 -0.22566905170E+03  0.34441573007E+03  0.17266490012E+03 0.  0.
         24    2    3    3    0    0  0.10436786225E+03  0.69355794928E+02 -0.19311305591E+03  0.24355173373E+03  0.79510487866E+02 0.  0.
         -6    2    1    2    0  502 -0.19201640387E+03 -0.31815202931E+02 -0.96260417209E+02  0.27416849959E+03  0.16739113403E+03 0.  0.
        -24    2    5    5    0    0 -0.86660530012E+02  0.43351381362E+02 -0.28256005438E+02  0.12789285031E+03  0.78541642395E+02 0.  0.
          5    1    3    3  501    0  0.87648541621E+02 -0.37540591996E+02 -0.32555995789E+02  0.10086399634E+03  0.47000000000E+01 0. -1.
        -11    1    4    4    0    0  0.86955598387E+01  0.49509434915E+02 -0.56990443432E+02  0.75991496558E+02  0.00000000000E+00 0.  1.
         12    1    4    4    0    0  0.95672302411E+02  0.19846360013E+02 -0.13612261248E+03  0.16756023717E+03  0.00000000000E+00 0. -1.
         -5    1    5    5    0  502 -0.10535587386E+03 -0.75166584293E+02 -0.68004411771E+02  0.14627564928E+03  0.47000000000E+01 0.  1.
         13    1    6    6    0    0 -0.23182876189E+02 -0.18579878530E+02 -0.25521655871E+02  0.39166472307E+02  0.00000000000E+00 0. -1.
        -14    1    6    6    0    0 -0.63477653823E+02  0.61931259892E+02 -0.27343495673E+01  0.88726378007E+02  0.00000000000E+00 0.  1.
</event>
<event>
12    1  0.1050869E+000  0.4722889E+03  0.7818608E-02  0.1021284E+00
         21   -1    0    0  503  502  0.00000000000E+00  0.00000000000E+00  0.77267524633E+03  0.77267524633E+03  0.00000000000E+00 0. -1.
         21   -1    0    0  501  503 -0.00000000000E+00 -0.00000000000E+00 -0.31855241820E+03  0.31855241820E+03  0.00000000000E+00 0.  1.
          6    2    1    2  501    0  0.17404365783E+02 -0.43927757702E+03  0.39436651975E+03  0.61529000303E+03  0.17259529051E+03 0.  0.
         24    2    3    3    0    0  0.13916490195E+02 -0.20816486854E+03  0.11006867648E+03  0.24885774055E+03  0.79301830338E+02 0.  0.
         -6    2    1    2    0  502 -0.17404365783E+02  0.43927757702E+03  0.59756308373E+02  0.47593766150E+03  0.17227344435E+03 0.  0.
        -24    2    5    5    0    0 -0.76178295160E+02  0.31907607148E+03  0.55752978939E+02  0.34199404144E+03  0.78986439832E+02 0.  0.
          5    1    3    3  501    0  0.34878755877E+01 -0.23111270847E+03  0.28429784328E+03  0.36643226248E+03  0.47000000000E+01 0. -1.
        -13    1    4    4    0    0 -0.58097321308E+01 -0.20203933872E+03  0.95283498125E+02  0.22345601892E+03  0.00000000000E+00 0.  1.
         14    1    4    4    0    0  0.19726222326E+02 -0.61255298286E+01  0.14785178352E+02  0.25401721631E+02  0.00000000000E+00 0. -1.
         -5    1    5    5    0  502  0.58773929377E+02  0.12020150553E+03  0.40033294337E+01  0.13394362006E+03  0.47000000000E+01 0.  1.
         13    1    6    6    0    0 -0.67311077004E+01  0.11456075333E+03  0.51966285989E+02  0.12597606476E+03  0.00000000000E+00 0. -1.
        -14    1    6    6    0    0 -0.69447187460E+02  0.20451531815E+03  0.37866929498E+01  0.21601797668E+03  0.00000000000E+00 0.  1.
</event>
<event>
12    1  0.1050869E+000  0.2088134E+03  0.7818608E-02  0.1142527E+00
         21   -1    0    0  503  502  0.00000000000E+00  0.00000000000E+00  0.11829624630E+03  0.11829624630E+03  0.00000000000E+00 0.  1.
         21   -1    0    0  501  503 -0.00000000000E+00 -0.00000000000E+00 -0.64193853800E+03  0.64193853800E+03  0.00000000000E+00 0.  1.
          6    2    1    2  501    0 -0.11777610064E+03  0.64120396232E+01 -0.13673580048E+02  0.20917115536E+03  0.17220128138E+03 0.  0.
         24    2    3    3    0    0  0.96816996282E+01 -0.18453274994E+00  0.55594274503E+01  0.80016193420E+02  0.79233292345E+02 0.  0.
         -6    2    1    2    0  502  0.11777610064E+03 -0.64120396232E+01 -0.50996871165E+03  0.55106362895E+03  0.17230993051E+03 0.  0.
        -24    2    5    5    0    0  0.46696881992E+01  0.18399272106E+02 -0.30828369378E+03  0.31845322901E+03  0.77545367469E+02 0.  0.
          5    1    3    3  501    0 -0.12745780027E+03  0.65965723732E+01 -0.19233007499E+02  0.12915496194E+03  0.47000000000E+01 0. -1.
        -13    1    4    4    0    0 -0.14502085593E+01 -0.39180646485E+02  0.11630962733E+01  0.39224723795E+02  0.00000000000E+00 0.  1.
         14    1    4    4    0    0  0.11131908188E+02  0.38996113735E+02  0.43963311769E+01  0.40791469625E+02  0.00000000000E+00 0. -1.
         -5    1    5    5    0  502  0.11310641244E+03 -0.24811311729E+02 -0.20168501788E+03  0.23261039994E+03  0.47000000000E+01 0.  1.
         11    1    6    6    0    0 -0.93706524134E+01  0.44151088584E+02 -0.23887632921E+03  0.24310291732E+03  0.00000000000E+00 0. -1.
        -12    1    6    6    0    0  0.14040340613E+02 -0.25751816478E+02 -0.69407364564E+02  0.75350311692E+02  0.00000000000E+00 0.  1.
</event>
<event>
12    1  0.1050869E+000  0.2168237E+03  0.7818608E-02  0.1136343E+00
         21   -1    0    0  501  502  0.00000000000E+00  0.00000000000E+00  0.49443585212E+02  0.49443585212E+02  0.00000000000E+00 0. -1.
         21   -1    0    0  502  503 -0.00000000000E+00 -0.00000000000E+00 -0.97751407283E+03  0.97751407283E+03  0.00000000000E+00 0.  1.
         -6    2    1    2    0  503  0.12850181686E+03  0.33803020834E+02 -0.37632524492E+03  0.43413785392E+03  0.17087897790E+03 0.  0.
        -24    2    3    3    0    0  0.14062806999E+03  0.13945430946E+01 -0.36198487171E+03  0.39638746653E+03  0.79446695713E+02 0.  0.
          6    2    1    2  501    0 -0.12850181686E+03 -0.33803020834E+02 -0.55174524270E+03  0.59281980412E+03  0.17133927210E+03 0.  0.
         24    2    5    5    0    0 -0.12287493263E+03  0.31680942089E+02 -0.35294579309E+03  0.38338455783E+03  0.79442149770E+02 0.  0.
          5    1    5    5  501    0 -0.56268842345E+01 -0.65483962922E+02 -0.19879944961E+03  0.20943524630E+03  0.47000000000E+01 0. -1.
        -13    1    6    6    0    0 -0.83512788631E+02  0.11569826623E+01 -0.29680288216E+03  0.30833046448E+03  0.00000000000E+00 0.  1.
         14    1    6    6    0    0 -0.39362143998E+02  0.30523959427E+02 -0.56142910935E+02  0.75054093343E+02  0.00000000000E+00 0. -1.
         -5    1    3    3    0  503 -0.12126253127E+02  0.32408477739E+02 -0.14340373216E+02  0.37750387392E+02  0.47000000000E+01 0.  1.
         11    1    4    4    0    0  0.10295699089E+02  0.22880822464E+01  0.11134667196E+01  0.10605496133E+02  0.00000000000E+00 0. -1.
        -12    1    4    4    0    0  0.13033237090E+03 -0.89353915183E+00 -0.36309833843E+03  0.38578197040E+03  0.00000000000E+00 0.  1.
</event>
<event>
12    1  0.1050869E+000  0.2547592E+03  0.7818608E-02  0.1110605E+00
         21   -1    0    0  503  502  0.00000000000E+00  0.00000000000E+00  0.90767781232E+02  0.90767781232E+02  0.00000000000E+00 0. -1.
         21   -1    0    0  501  503 -0.00000000000E+00 -0.00000000000E+00 -0.11587900580E+04  0.11587900580E+04  0.00000000000E+00 0. -1.
          6    2    1    2  501    0  0.16758588990E+03 -0.83683245024E+02 -0.14637711055E+03  0.29381711656E+03  0.17266824693E+03 0.  0.
         24    2    3    3    0    0  0.84307883248E+02  0.20764175134E+02 -0.96389307222E+02  0.15110986218E+03  0.77487558716E+02 0.  0.
         -6    2    1    2    0  502 -0.16758588990E+03  0.83683245024E+02 -0.92164516618E+03  0.95574072264E+03  0.17006645926E+03 0.  0.
        -24    2    5    5    0    0 -0.70962206133E+02  0.96594702838E+02 -0.42600279038E+03  0.45058104818E+03  0.84727399640E+02 0.  0.
          5    1    3    3  501    0  0.83278006654E+02 -0.10444742016E+03 -0.49987803328E+02  0.14270725438E+03  0.47000000000E+01 0. -1.
        -13    1    4    4    0    0  0.83377529093E+02  0.13119195445E+02 -0.10806666221E+03  0.13712158520E+03  0.00000000000E+00 0.  1.
         14    1    4    4    0    0  0.93035415582E+00  0.76449796896E+01  0.11677354991E+02  0.13988276981E+02  0.00000000000E+00 0. -1.
         -5    1    5    5    0  502 -0.96623683770E+02 -0.12911457814E+02 -0.49564237580E+03  0.50515967446E+03  0.47000000000E+01 0.  1.
         11    1    6    6    0    0 -0.64685874978E+02  0.19711059180E+02 -0.23655039321E+03  0.24602617097E+03  0.00000000000E+00 0. -1.
        -12    1    6    6    0    0 -0.62763311549E+01  0.76883643658E+02 -0.18945239717E+03  0.20455487721E+03  0.00000000000E+00 0.  1.
</event>
<event>
12    1  0.1050869E+000  0.4273088E+03  0.7818608E-02  0.1034733E+00
         21   -1    0    0  503  502  0.00000000000E+00  0.00000000000E+00  0.12190067289E+04  0.12190067289E+04  0.00000000000E+00 0. -1.
         21   -1    0    0  501  503 -0.00000000000E+00 -0.00000000000E+00 -0.15404617898E+03  0.15404617898E+03  0.00000000000E+00 0. -1.
          6    2    1    2  501    0 -0.17473875522E+03 -0.34978853294E+03  0.41732157274E+03  0.59728559527E+03  0.17235758436E+03 0.  0.
         24    2    3    3    0    0 -0.15957000068E+03 -0.35037202365E+03  0.42566828780E+03  0.57933596498E+03  0.78825941211E+02 0.  0.
         -6    2    1    2    0  502  0.17473875522E+03  0.34978853294E+03  0.64763897714E+03  0.77576731257E+03  0.17173534345E+03 0.  0.
        -24    2    5    5    0    0  0.72797140662E+02  0.27492566569E+03  0.50614140570E+03  0.58592476098E+03  0.79026309657E+02 0.  0.
          5    1    3    3  501    0 -0.15168754540E+02  0.58349070040E+00 -0.83467150514E+01  0.17949630298E+02  0.47000000000E+01 0. -1.
        -13    1    4    4    0    0 -0.11729001782E+03 -0.24053829479E+03  0.34512845436E+03  0.43672562273E+03  0.00000000000E+00 0.  1.
         14    1    4    4    0    0 -0.42279982868E+02 -0.10983372885E+03  0.80539833432E+02  0.14261034224E+03  0.00000000000E+00 0. -1.
         -5    1    5    5    0  502  0.10194161456E+03  0.74862867250E+02  0.14149757144E+03  0.18984255160E+03  0.47000000000E+01 0.  1.
         11    1    6    6    0    0 -0.37385316203E+01  0.79334720568E+02  0.19473563553E+03  0.21030915874E+03  0.00000000000E+00 0. -1.
        -12    1    6    6    0    0  0.76535672282E+02  0.19559094513E+03  0.31140577017E+03  0.37561560223E+03  0.00000000000E+00 0.  1.
</event>
<event>
12    1  0.1050869E+000  0.2135486E+03  0.7818608E-02  0.1138895E+00
         21   -1    0    0  503  502  0.00000000000E+00  0.00000000000E+00  0.10603744134E+04  0.10603744134E+04  0.00000000000E+00 0.  1.
         21   -1    0    0  501  503 -0.00000000000E+00 -0.00000000000E+00 -0.42920022274E+02  0.42920022274E+02  0.00000000000E+00 0.  1.
          6    2    1    2  501    0  0.43683233151E+02  0.11791948321E+03  0.52177329396E+03  0.56356974087E+03  0.17190187071E+03 0.  0.
         24    2    3    3    0    0  0.89637292732E+00  0.74668217023E+02  0.14334489494E+03  0.18025325203E+03  0.79795550271E+02 0.  0.
         -6    2    1    2    0  502 -0.43683233151E+02 -0.11791948321E+03  0.49568109715E+03  0.53972469478E+03  0.17259712255E+03 0.  0.
        -24    2    5    5    0    0 -0.16434464887E+02 -0.13387114895E+03  0.47828073607E+03  0.50336794057E+03  0.80219978409E+02 0.  0.
          5    1    3    3  501    0  0.42786860223E+02  0.43251266187E+02  0.37842839902E+03  0.38331648884E+03  0.47000000000E+01 0. -1.
        -13    1    4    4    0    0  0.15677745738E+02  0.16393280554E+02 -0.21906356366E+01  0.22788818382E+02  0.00000000000E+00 0.  1.
         14    1    4    4    0    0 -0.14781372811E+02  0.58274936469E+02  0.14553553058E+03  0.15746443365E+03  0.00000000000E+00 0. -1.
         -5    1    5    5    0  502 -0.27248768264E+02  0.15951665737E+02  0.17400361071E+02  0.36356754216E+02  0.47000000000E+01 0.  1.
         13    1    6    6    0    0 -0.34873703869E+01 -0.77670099938E+02  0.13940935914E+03  0.15962385659E+03  0.00000000000E+00 0. -1.
        -14    1    6    6    0    0 -0.12947094500E+02 -0.56201049010E+02  0.33887137693E+03  0.34374408398E+03  0.00000000000E+00 0.  1.
</event>
<event>
12    1  0.1050869E+000  0.5964705E+03  0.7818608E-02  0.9912820E-01
         21   -1    0    0  503  502  0.00000000000E+00  0.00000000000E+00  0.36498551077E+03  0.36498551077E+03  0.00000000000E+00 0.  1.
         21   -1    0    0  501  503 -0.00000000000E+00 -0.00000000000E+00 -0.12172482531E+04  0.12172482531E+04  0.00000000000E+00 0.  1.
          6    2    1    2  501    0 -0.17553726340E+03 -0.54304112807E+03 -0.77940289956E+03  0.98145092469E+03  0.17340715129E+03 0.  0.
         24    2    3    3    0    0 -0.59843862226E+02 -0.14449191418E+03 -0.27096712287E+03  0.32513128611E+03  0.88475818294E+02 0.  0.
         -6    2    1    2    0  502  0.17553726340E+03  0.54304112807E+03 -0.72859842730E+02  0.60078283915E+03  0.17298689406E+03 0.  0.
        -24    2    5    5    0    0  0.12297962890E+03  0.44569112135E+03 -0.11409311612E+03  0.48262361781E+03  0.78382093294E+02 0.  0.
          5    1    3    3  501    0 -0.11569340117E+03 -0.39854921389E+03 -0.50843577670E+03  0.65631963859E+03  0.47000000000E+01 0. -1.
        -13    1    4    4    0    0 -0.36206183891E+02 -0.15050785850E+03 -0.22525909610E+03  0.27332245352E+03  0.00000000000E+00 0.  1.
         14    1    4    4    0    0 -0.23637678335E+02  0.60159443239E+01 -0.45708026762E+02  0.51808832584E+02  0.00000000000E+00 0. -1.
         -5    1    5    5    0  502  0.52557634492E+02  0.97350006723E+02  0.41233273394E+02  0.11815922134E+03  0.47000000000E+01 0.  1.
         11    1    6    6    0    0 -0.77116266473E+01  0.83816811982E+02 -0.22283495673E+02  0.87070553781E+02  0.00000000000E+00 0. -1.
        -12    1    6    6    0    0  0.13069125555E+03  0.36187430937E+03 -0.91809620450E+02  0.39555306403E+03  0.00000000000E+00 0.  1.
</event>
<event>
12    1  0.1050869E+000  0.1885862E+03  0.7818608E-02  0.1160143E+00
         21   -1    0    0  503  502  0.00000000000E+00  0.00000000000E+00  0.27678211380E+03  0.27678211380E+03  0.00000000000E+00 0.  1.
         21   -1    0    0  501  503 -0.00000000000E+00 -0.00000000000E+00 -0.12742327772E+03  0.12742327772E+03  0.00000000000E+00 0.  1.
          6    2    1    2  501    0 -0.56423566749E+02 -0.51070237407E+02  0.68182205202E+02  0.19888998484E+03  0.17063594266E+03 0.  0.
         24    2    3    3    0    0 -0.30264034023E+02 -0.94943383852E+02  0.68605526231E+02  0.14759238906E+03  0.84537785561E+02 0.  0.
         -6    2    1    2    0  502  0.56423566749E+02  0.51070237407E+02  0.81176630879E+02  0.20531540668E+03  0.17254849401E+03 0.  0.
        -24    2    5    5    0    0  0.93864240357E+02  0.26141450194E+01  0.64620999375E+02  0.14170742082E+03  0.84189014630E+02 0.  0.
          5    1    3    3  501    0 -0.26159532725E+02  0.43873146445E+02 -0.42332102907E+00  0.51297595773E+02  0.47000000000E+01 0. -1.
        -13    1    4    4    0    0 -0.51449797803E+01  0.72991795841E+01 -0.12026887358E+02  0.14979815055E+02  0.00000000000E+00 0.  1.
         14    1    4    4    0    0 -0.25119054243E+02 -0.10224256344E+03  0.80632413589E+02  0.13261257401E+03  0.00000000000E+00 0. -1.
         -5    1    5    5    0  502 -0.37440673609E+02  0.48456092388E+02  0.16555631504E+02  0.63607985853E+02  0.47000000000E+01 0.  1.
         11    1    6    6    0    0  0.56798074964E+02  0.42627944557E+02  0.43104739886E+02  0.83073350585E+02  0.00000000000E+00 0. -1.
        -12    1    6    6    0    0  0.37066165393E+02 -0.40013799538E+02  0.21516259490E+02  0.58634070240E+02  0.00000000000E+00 0.  1.
</event>
<event>
12    1  0.1050869E+000  0.1858690E+03  0.7818608E-02  0.1162304E+00
         21   -1    0    0  501  502  0.00000000000E+00  0.00000000000E+00  0.54705367598E+02  0.54705367598E+02  0.00000000000E+00 0. -1.
         21   -1    0    0  502  503 -0.00000000000E+00 -0.00000000000E+00 -0.99657115964E+03  0.99657115964E+03  0.00000000000E+00 0. -1.
         -6    2    1    2    0  503 -0.40502860351E+02 -0.61392326583E+02 -0.15217282586E+03  0.24000453003E+03  0.17039984168E+03 0.  0.
        -24    2    3    3    0    0 -0.78941923033E+02 -0.96358811495E+01 -0.12915674762E+03  0.17138878080E+03  0.79799569631E+02 0.  0.
          6    2    1    2  501    0  0.40502860351E+02  0.61392326583E+02 -0.78969296619E+03  0.81127199721E+03  0.17069790027E+03 0.  0.
         24    2    5    5    0    0  0.52590315710E+02  0.10095976417E+03 -0.52317601113E+03  0.54152199068E+03  0.81082134125E+02 0.  0.
          5    1    5    5  501    0 -0.12087455359E+02 -0.39567437588E+02 -0.26651695506E+03  0.26975000654E+03  0.47000000000E+01 0. -1.
        -11    1    6    6    0    0 -0.48899592440E+01  0.77136478152E+02 -0.30575029760E+03  0.31536834407E+03  0.00000000000E+00 0.  1.
         12    1    6    6    0    0  0.57480274954E+02  0.23823286019E+02 -0.21742571353E+03  0.22615364660E+03  0.00000000000E+00 0. -1.
         -5    1    3    3    0  503  0.38439062682E+02 -0.51756445433E+02 -0.23016078240E+02  0.68615749222E+02  0.47000000000E+01 0.  1.
         13    1    4    4    0    0  0.12865627459E+01 -0.11199119200E+02  0.70546856358E+01  0.13298274473E+02  0.00000000000E+00 0. -1.
        -14    1    4    4    0    0 -0.80228485779E+02  0.15632380503E+01 -0.13621143325E+03  0.15809050633E+03  0.00000000000E+00 0.  1.
</event>
<event>
12    1  0.1050869E+000  0.1917478E+03  0.7818608E-02  0.1157183E+00
         21   -1    0    0  501  502  0.00000000000E+00  0.00000000000E+00  0.74498946763E+02  0.74498946763E+02  0.00000000000E+00 0. -1.
         21   -1    0    0  502  503 -0.00000000000E+00 -0.00000000000E+00 -0.58751299383E+03  0.58751299383E+03  0.00000000000E+00 0. -1.
         -6    2    1    2    0  503  0.53031101735E+02 -0.63127605463E+02 -0.12108221562E+03  0.22568890397E+03  0.17168921374E+03 0.  0.
        -24    2    3    3    0    0  0.67850108436E+02 -0.47228385861E+01 -0.22287934607E+02  0.10987388027E+03  0.83364111689E+02 0.  0.
          6    2    1    2  501    0 -0.53031101735E+02  0.63127605463E+02 -0.39193183145E+03  0.43632303662E+03  0.17311799289E+03 0.  0.
         24    2    5    5    0    0 -0.82823639150E+02  0.80394818523E+02 -0.36759953554E+03  0.39389777815E+03  0.81871601026E+02 0.  0.
          5    1    5    5  501    0  0.29792537414E+02 -0.17267213060E+02 -0.24332295906E+02  0.42425258473E+02  0.47000000000E+01 0. -1.
        -13    1    6    6    0    0 -0.86256445742E+01  0.25984903546E+01  0.17876846759E+01  0.91842099793E+01  0.00000000000E+00 0.  1.
         14    1    6    6    0    0 -0.74197994575E+02  0.77796328168E+02 -0.36938722022E+03  0.38471356817E+03  0.00000000000E+00 0. -1.
         -5    1    3    3    0  503 -0.14819006701E+02 -0.58404766877E+02 -0.98794281017E+02  0.11581502370E+03  0.47000000000E+01 0.  1.
         13    1    4    4    0    0  0.63106225316E+02 -0.25184855507E+02  0.12644567838E+02  0.69112645126E+02  0.00000000000E+00 0. -1.
        -14    1    4    4    0    0  0.47438831206E+01  0.20462016921E+02 -0.34932502445E+02  0.40761235145E+02  0.00000000000E+00 0.  1.
</event>
<event>
12    1  0.1050869E+000  0.2500810E+03  0.7818608E-02  0.1113858E+00
         21   -1    0    0  503  502  0.00000000000E+00  0.00000000000E+00  0.63094614152E+03  0.63094614152E+03  0.00000000000E+00 0. -1.
         21   -1    0    0  501  503 -0.00000000000E+00 -0.00000000000E+00 -0.10071687398E+03  0.10071687398E+03  0.00000000000E+00 0. -1.
          6    2    1    2  501    0  0.16592982747E+03  0.59510539902E+02  0.19902547841E+03  0.31664919676E+03  0.17199232759E+03 0.  0.
         24    2    3    3    0    0  0.13405270632E+02  0.47574806708E+01  0.90519884899E+02  0.12156667126E+03  0.79889117506E+02 0.  0.
         -6    2    1    2    0  502 -0.16592982747E+03 -0.59510539902E+02  0.33120378913E+03  0.41501381874E+03  0.17738745111E+03 0.  0.
        -24    2    5    5    0    0 -0.90032428388E+02 -0.54985320029E+02  0.30833464213E+03  0.33547778486E+03  0.79660962920E+02 0.  0.
          5    1    3    3  501    0  0.15252455683E+03  0.54753059231E+02  0.10850559351E+03  0.19508252550E+03  0.47000000000E+01 0. -1.
        -11    1    4    4    0    0  0.43087406060E+02  0.15432135847E+02  0.34640115466E+02  0.57398719300E+02  0.00000000000E+00 0.  1.
         12    1    4    4    0    0 -0.29682135428E+02 -0.10674655176E+02  0.55879769433E+02  0.64167951959E+02  0.00000000000E+00 0. -1.
         -5    1    5    5    0  502 -0.75897399079E+02 -0.45252198736E+01  0.22869146996E+02  0.79536033885E+02  0.47000000000E+01 0.  1.
         13    1    6    6    0    0 -0.28751583446E+02  0.10110887748E+02  0.15512854611E+03  0.15809411571E+03  0.00000000000E+00 0. -1.
        -14    1    6    6    0    0 -0.61280844942E+02 -0.65096207777E+02  0.15320609602E+03  0.17738366915E+03  0.00000000000E+00 0.  1.
</event>
<event>
12    1  0.1050869E+000  0.2017576E+03  0.7818608E-02  0.1148314E+00
         21   -1    0    0  501  502  0.00000000000E+00  0.00000000000E+00  0.35060219514E+03  0.35060219514E+03  0.00000000000E+00 0. -1.
         21   -1    0    0  502  503 -0.00000000000E+00 -0.00000000000E+00 -0.12529567594E+03  0.12529567594E+03  0.00000000000E+00 0. -1.
         -6    2    1    2    0  503 -0.83345603150E+02 -0.64645299351E+02  0.47787575246E+02  0.20733979198E+03  0.17199021105E+03 0.  0.
        -24    2    3    3    0    0 -0.54617079460E+02  0.17161589920E+02 -0.14991081167E+02  0.10019062070E+03  0.80844804559E+02 0.  0.
          6    2    1    2  501    0  0.83345603150E+02  0.64645299351E+02  0.17751894396E+03  0.26855807910E+03  0.17171185775E+03 0.  0.
         24    2    5    5    0    0  0.15046114739E+02  0.66553702429E+02  0.29089660035E+02  0.10509002581E+03  0.74444102037E+02 0.  0.
          5    1    5    5  501    0  0.68299488411E+02 -0.19084030789E+01  0.14842928393E+03  0.16346805329E+03  0.47000000000E+01 0. -1.
        -13    1    6    6    0    0 -0.15893083676E+02  0.44408122230E+02 -0.12426745688E+02  0.48775971924E+02  0.00000000000E+00 0.  1.
         14    1    6    6    0    0  0.30939198415E+02  0.22145580199E+02  0.41516405724E+02  0.56314053886E+02  0.00000000000E+00 0. -1.
         -5    1    3    3    0  503 -0.28728523690E+02 -0.81806889271E+02  0.62778656412E+02  0.10714917128E+03  0.47000000000E+01 0.  1.
         11    1    4    4    0    0 -0.27931975531E+02  0.38968698318E+02  0.19198326431E+02  0.51646204540E+02  0.00000000000E+00 0. -1.
        -12    1    4    4    0    0 -0.26685103929E+02 -0.21807108397E+02 -0.34189407597E+02  0.48544416159E+02  0.00000000000E+00 0.  1.
</event>
<event>
12    1  0.1050869E+000  0.2078482E+03  0.7818608E-02  0.1146474E+00
         21   -1    0    0  503  502  0.00000000000E+00  0.00000000000E+00  0.60609780609E+03  0.60609780609E+03  0.00000000000E+00 0. -1.
         21   -1    0    0  501  503 -0.00000000000E+00 -0.00000000000E+00 -0.66760630784E+02  0.66760630784E+02  0.00000000000E+00 0. -1.
          6    2    1    2  501    0  0.51031292130E+01 -0.87133533478E+02  0.31243255730E+03  0.37525324435E+03  0.18863350696E+03 0.  0.
         24    2    3    3    0    0  0.15227513565E+02  0.20353593561E+01  0.25728920201E+03  0.26981855252E+03  0.79801616263E+02 0.  0.
         -6    2    1    2    0  502 -0.51031292130E+01  0.87133533478E+02  0.22690461800E+03  0.29760519252E+03  0.17165328532E+03 0.  0.
        -24    2    5    5    0    0  0.12024275301E+02  0.12349519397E+03  0.15024548349E+03  0.21092052696E+03  0.80734857733E+02 0.  0.
          5    1    3    3  501    0 -0.10124384352E+02 -0.89168892834E+02  0.55143355296E+02  0.10543469183E+03  0.47000000000E+01 0. -1.
        -11    1    4    4    0    0 -0.30163241865E+01  0.13317493036E+02  0.22022103790E+01  0.13831253121E+02  0.00000000000E+00 0.  1.
         12    1    4    4    0    0  0.18243837752E+02 -0.11282133680E+02  0.25508699163E+03  0.25598729940E+03  0.00000000000E+00 0. -1.
         -5    1    5    5    0  502 -0.17127404514E+02 -0.36361660495E+02  0.76659134510E+02  0.86684665559E+02  0.47000000000E+01 0.  1.
         13    1    6    6    0    0  0.46354661557E+02  0.59767042873E+02  0.75556846591E+02  0.10690973355E+03  0.00000000000E+00 0. -1.
        -14    1    6    6    0    0 -0.34330386256E+02  0.63728151100E+02  0.74688636900E+02  0.10401079341E+03  0.00000000000E+00 0.  1.
</event>
<event>
12    1  0.1050869E+000  0.2234396E+03  0.7818608E-02  0.1131659E+00
         21   -1    0    0  501  502  0.00000000000E+00  0.00000000000E+00  0.46734496165E+02  0.46734496165E+02  0.00000000000E+00 0.  1.
         21   -1    0    0  502  503 -0.00000000000E+00 -0.00000000000E+00 -0.12756961233E+04  0.12756961233E+04  0.00000000000E+00 0.  1.
         -6    2    1    2    0  503 -0.10830886752E+03 -0.89440383430E+02 -0.88828079200E+03  0.91595198085E+03  0.17376671954E+03 0.  0.
        -24    2    3    3    0    0 -0.12938454077E+03 -0.27428914443E+02 -0.55005979251E+03  0.57141585679E+03  0.80359201823E+02 0.  0.
          6    2    1    2  501    0  0.10830886752E+03  0.89440383430E+02 -0.34068083513E+03  0.40647863860E+03  0.17155482869E+03 0.  0.
         24    2    5    5    0    0  0.69873418833E+01  0.37426868804E+00 -0.17157922691E+03  0.19010796533E+03  0.81563744086E+02 0.  0.
          5    1    5    5  501    0  0.10132152564E+03  0.89066114742E+02 -0.16910160822E+03  0.21637067328E+03  0.47000000000E+01 0. -1.
        -13    1    6    6    0    0  0.22918538193E+02 -0.18128247286E+02 -0.16077366177E+03  0.16340765912E+03  0.00000000000E+00 0.  1.
         14    1    6    6    0    0 -0.15931196309E+02  0.18502515974E+02 -0.10805565145E+02  0.26700306202E+02  0.00000000000E+00 0. -1.
         -5    1    3    3    0  503  0.21075673241E+02 -0.62011468987E+02 -0.33822099949E+03  0.34453612407E+03  0.47000000000E+01 0.  1.
         11    1    4    4    0    0 -0.95847124367E+02 -0.34804652569E+02 -0.25920980626E+03  0.27854579291E+03  0.00000000000E+00 0. -1.
        -12    1    4    4    0    0 -0.33537416398E+02  0.73757381260E+01 -0.29084998625E+03  0.29287006387E+03  0.00000000000E+00 0.  1.
</event>
<event>
12    1  0.1050869E+000  0.2075973E+03  0.7818608E-02  0.1143789E+00
         21   -1    0    0  501  502  0.00000000000E+00  0.00000000000E+00  0.52914619517E+03  0.52914619517E+03  0.00000000000E+00 0.  1.
         21   -1    0    0  502  503 -0.00000000000E+00 -0.00000000000E+00 -0.16029287912E+03  0.16029287912E+03  0.00000000000E+00 0.  1.
         -6    2    1    2    0  503  0.66372979306E+02 -0.91652170070E+02  0.42676344524E+03  0.47391593829E+03  0.17223177904E+03 0.  0.
        -24    2    3    3    0    0 -0.13180425297E+02 -0.78887182961E+02  0.32229560811E+03  0.34190340830E+03  0.81403749010E+02 0.  0.
          6    2    1    2  501    0 -0.66372979306E+02  0.91652170070E+02 -0.57910129190E+02  0.21552313600E+03  0.17404351878E+03 0.  0.
         24    2    5    5    0    0 -0.20828158627E+02 -0.13427856106E+02  0.57893655116E+01  0.84390156863E+02  0.80461557970E+02 0.  0.
          5    1    5    5  501    0 -0.45544820679E+02  0.10508002618E+03 -0.63699494702E+02  0.13113297914E+03  0.47000000000E+01 0. -1.
        -13    1    6    6    0    0  0.29735443085E+02 -0.99739490717E+01 -0.69667840743E+01  0.32128061191E+02  0.00000000000E+00 0.  1.
         14    1    6    6    0    0 -0.50563601712E+02 -0.34539070346E+01  0.12756149586E+02  0.52262095673E+02  0.00000000000E+00 0. -1.
         -5    1    3    3    0  503  0.79553404604E+02 -0.12764987109E+02  0.10446783713E+03  0.13201252999E+03  0.47000000000E+01 0.  1.
         11    1    4    4    0    0 -0.15983960444E+02 -0.89698481261E+02  0.31643402866E+03  0.32928984045E+03  0.00000000000E+00 0. -1.
        -12    1    4    4    0    0  0.28035351463E+01  0.10811298300E+02  0.58615794579E+01  0.12613567853E+02  0.00000000000E+00 0.  1.
</event>
<event>
12    1  0.1050869E+000  0.1841989E+03  0.7818608E-02  0.1164103E+00
         21   -1    0    0  503  502  0.00000000000E+00  0.00000000000E+00  0.48481398257E+03  0.48481398257E+03  0.00000000000E+00 0. -1.
         21   -1    0    0  501  503 -0.00000000000E+00 -0.00000000000E+00 -0.69497844324E+02  0.69497844324E+02  0.00000000000E+00 0. -1.
          6    2    1    2  501    0  0.34464376572E+02 -0.52117718023E+02  0.20735529190E+03  0.27735437173E+03  0.17327775579E+03 0.  0.
         24    2    3    3    0    0  0.39304444861E+02 -0.48734355588E+02  0.37424318415E+02  0.10725587334E+03  0.78634381521E+02 0.  0.
         -6    2    1    2    0  502 -0.34464376572E+02  0.52117718023E+02  0.20796084634E+03  0.27695745517E+03  0.17191180464E+03 0.  0.
        -24    2    5    5    0    0  0.12729733085E+02  0.74724331562E+02  0.19227965978E+03  0.22212742166E+03  0.81383979125E+02 0.  0.
          5    1    3    3  501    0 -0.48400682885E+01 -0.33833624349E+01  0.16993097349E+03  0.17009849839E+03  0.47000000000E+01 0. -1.
        -13    1    4    4    0    0  0.26092136982E+02 -0.22484180990E+01  0.50764212289E+02  0.57121451711E+02  0.00000000000E+00 0.  1.
         14    1    4    4    0    0  0.13212307879E+02 -0.46485937489E+02 -0.13339893874E+02  0.50134421631E+02  0.00000000000E+00 0. -1.
         -5    1    5    5    0  502 -0.47194109657E+02 -0.22606613539E+02  0.15681186567E+02  0.54830033505E+02  0.47000000000E+01 0.  1.
         11    1    6    6    0    0  0.13077937711E+02  0.45692015956E+02  0.27707310368E+02  0.55013524017E+02  0.00000000000E+00 0. -1.
        -12    1    6    6    0    0 -0.34820462597E+00  0.29032315606E+02  0.16457234941E+03  0.16711389764E+03  0.00000000000E+00 0.  1.
</event>
<event>
12    1  0.1050869E+000  0.2851271E+03  0.7818608E-02  0.1093605E+00
         21   -1    0    0  501  502  0.00000000000E+00  0.00000000000E+00  0.22718599022E+04  0.22718599022E+04  0.00000000000E+00 0. -1.
         21   -1    0    0  502  503 -0.00000000000E+00 -0.00000000000E+00 -0.43054234871E+02  0.43054234871E+02  0.00000000000E+00 0.  1.
         -6    2    1    2    0  503 -0.20097847873E+03 -0.88452383279E+02  0.16021543283E+04  0.16264452676E+04  0.17380892861E+03 0.  0.
        -24    2    3    3    0    0 -0.62775473237E+02  0.10485693910E+02  0.35184315861E+03  0.36462557961E+03  0.71466742124E+02 0.  0.
          6    2    1    2  501    0  0.20097847873E+03  0.88452383279E+02  0.62665133900E+03  0.68846886948E+03  0.18188268349E+03 0.  0.
         24    2    5    5    0    0  0.71796944236E+02  0.66050052573E+02  0.16134761300E+03  0.20502354610E+03  0.80524478177E+02 0.  0.
          5    1    5    5  501    0  0.12918153449E+03  0.22402330706E+02  0.46530372600E+03  0.48344532339E+03  0.47000000000E+01 0. -1.
        -11    1    6    6    0    0  0.88387148732E+02  0.48944049877E+02  0.11626419095E+03  0.15402977043E+03  0.00000000000E+00 0.  1.
         12    1    6    6    0    0 -0.16590204496E+02  0.17106002696E+02  0.45083422051E+02  0.50993775672E+02  0.00000000000E+00 0. -1.
         -5    1    3    3    0  503 -0.13820300549E+03 -0.98938077189E+02  0.12503111697E+04  0.12618196880E+04  0.47000000000E+01 0.  1.
         13    1    4    4    0    0  0.12002855004E+02  0.15094114548E+01  0.14061214298E+02  0.18548978374E+02  0.00000000000E+00 0. -1.
        -14    1    4    4    0    0 -0.74778328241E+02  0.89762824555E+01  0.33778194431E+03  0.34607660123E+03  0.00000000000E+00 0.  1.
</event>
<event>
12    1  0.1050869E+000  0.2208451E+03  0.7818608E-02  0.1133389E+00
         21   -1    0    0  501  502  0.00000000000E+00  0.00000000000E+00  0.10030029499E+03  0.10030029499E+03  0.00000000000E+00 0. -1.
         21   -1    0    0  502  503 -0.00000000000E+00 -0.00000000000E+00 -0.11918968140E+04  0.11918968140E+04  0.00000000000E+00 0. -1.
         -6    2    1    2    0  503  0.13678425199E+03  0.13074065882E+02 -0.48474226193E+02  0.22610242192E+03  0.17289213921E+03 0.  0.
        -24    2    3    3    0    0  0.79757838210E+02  0.70612255766E+02 -0.10815390127E+02  0.13664330780E+03  0.84894154592E+02 0.  0.
          6    2    1    2  501    0 -0.13678425199E+03 -0.13074065882E+02 -0.10431222928E+04  0.10660946870E+04  0.17196773313E+03 0.  0.
         24    2    5    5    0    0 -0.15505833921E+03 -0.44245442860E+01 -0.67452469364E+03  0.69691311033E+03  0.81496354926E+02 0.  0.
          5    1    5    5  501    0  0.18274087220E+02 -0.86495215955E+01 -0.36859759913E+03  0.36918157670E+03  0.47000000000E+01 0. -1.
        -13    1    6    6    0    0 -0.13975118260E+03  0.94070403614E+01 -0.64973779800E+03  0.66466389371E+03  0.00000000000E+00 0.  1.
         14    1    6    6    0    0 -0.15307156609E+02 -0.13831584647E+02 -0.24786895644E+02  0.32249216626E+02  0.00000000000E+00 0. -1.
         -5    1    3    3    0  503  0.57026413784E+02 -0.57538189885E+02 -0.37658836066E+02  0.89459114114E+02  0.47000000000E+01 0.  1.
         13    1    4    4    0    0  0.22328484375E+02  0.21749257649E+02 -0.44277074005E+02  0.54148413691E+02  0.00000000000E+00 0. -1.
        -14    1    4    4    0    0  0.57429353835E+02  0.48862998117E+02  0.33461683878E+02  0.82494894114E+02  0.00000000000E+00 0.  1.
</event>
<event>
12    1  0.1050869E+000  0.2430122E+03  0.7818608E-02  0.1117947E+00
         21   -1    0    0  501  502  0.00000000000E+00  0.00000000000E+00  0.32805422846E+03  0.32805422846E+03  0.00000000000E+00 0. -1.
         21   -1    0    0  502  503 -0.00000000000E+00 -0.00000000000E+00 -0.27549782957E+03  0.27549782957E+03  0.00000000000E+00 0. -1.
         -6    2    1    2    0  503  0.15333262757E+03 -0.76148631720E+02  0.20451270643E+03  0.31694145597E+03  0.17122187544E+03 0.  0.
        -24    2    3    3    0    0  0.47207798910E+02 -0.73919347183E+02  0.16505773405E+03  0.20360022863E+03  0.80723920654E+02 0.  0.
          6    2    1    2  501    0 -0.15333262757E+03  0.76148631720E+02 -0.15195630754E+03  0.28661060206E+03  0.17246857401E+03 0.  0.
         24    2    5    5    0    0 -0.11054492311E+03  0.11874750267E+03 -0.12758356892E+03  0.22132988632E+03  0.79926229132E+02 0.  0.
          5    1    5    5  501    0 -0.42787704457E+02 -0.42598870954E+02 -0.24372738622E+02  0.65280715738E+02  0.47000000000E+01 0. -1.
        -13    1    6    6    0    0 -0.10748070535E+03  0.98129742253E+02 -0.72833187029E+02  0.16274588004E+03  0.00000000000E+00 0.  1.
         14    1    6    6    0    0 -0.30642177694E+01  0.20617760422E+02 -0.54750381889E+02  0.58584006285E+02  0.00000000000E+00 0. -1.
         -5    1    3    3    0  503  0.10612482866E+03 -0.22292845377E+01  0.39454972387E+02  0.11334122734E+03  0.47000000000E+01 0.  1.
         11    1    4    4    0    0  0.22693859522E+02 -0.24679579537E+02  0.44338170319E+01  0.33819397387E+02  0.00000000000E+00 0. -1.
        -12    1    4    4    0    0  0.24513939387E+02 -0.49239767645E+02  0.16062391701E+03  0.16978083125E+03  0.00000000000E+00 0.  1.
</event>
<event>
12    1  0.1050869E+000  0.1789008E+03  0.7818608E-02  0.1169220E+00
         21   -1    0    0  503  502  0.00000000000E+00  0.00000000000E+00  0.26331760770E+03  0.26331760770E+03  0.00000000000E+00 0. -1.
         21   -1    0    0  501  503 -0.00000000000E+00 -0.00000000000E+00 -0.12388765611E+03  0.12388765611E+03  0.00000000000E+00 0. -1.
          6    2    1    2  501    0 -0.22455554392E+02  0.43105689588E+02  0.10107381540E+03  0.20423886687E+03  0.17069049823E+03 0.  0.
         24    2    3    3    0    0  0.32792887738E+02  0.65709597924E+02  0.38155418753E+02  0.11738184835E+03  0.83243844200E+02 0.  0.
         -6    2    1    2    0  502  0.22455554392E+02 -0.43105689588E+02  0.38356136192E+02  0.18296639695E+03  0.17217188165E+03 0.  0.
        -24    2    5    5    0    0  0.73776402670E+02 -0.61654239440E+02  0.23886598774E+02  0.12631539799E+03  0.78363303507E+02 0.  0.
          5    1    3    3  501    0 -0.55248442130E+02 -0.22603908336E+02  0.62918396645E+02  0.86857018520E+02  0.47000000000E+01 0. -1.
        -11    1    4    4    0    0  0.12597787105E+02  0.52186577775E+02  0.62901282909E+02  0.82696520672E+02  0.00000000000E+00 0.  1.
         12    1    4    4    0    0  0.20195100633E+02  0.13523020149E+02 -0.24745864156E+02  0.34685327681E+02  0.00000000000E+00 0. -1.
         -5    1    5    5    0  502 -0.51320848278E+02  0.18548549852E+02  0.14469537417E+02  0.56650998956E+02  0.47000000000E+01 0.  1.
         11    1    6    6    0    0  0.27753898743E+02  0.14986149075E+02  0.18919397838E+02  0.36780527104E+02  0.00000000000E+00 0. -1.
        -12    1    6    6    0    0  0.46022503928E+02 -0.76640388514E+02  0.49672009364E+01  0.89534870886E+02  0.00000000000E+00 0.  1.
</event>
<event>
12    1  0.1050869E+000  0.1741388E+03  0.7818608E-02  0.1174597E+00
         21   -1    0    0  501  502  0.00000000000E+00  0.00000000000E+00  0.76725029230E+02  0.76725029230E+02  0.00000000000E+00 0. -1.
         21   -1    0    0  502  503 -0.00000000000E+00 -0.00000000000E+00 -0.40506509035E+03  0.40506509035E+03  0.00000000000E+00 0. -1.
         -6    2    1    2    0  503  0.57917895644E+01 -0.25736751478E+02 -0.11073170332E+03  0.20308292253E+03  0.16818215749E+03 0.  0.
        -24    2    3    3    0    0 -0.48788150113E+02 -0.21779314865E+00 -0.10706872453E+03  0.14253794369E+03  0.80455096746E+02 0.  0.
          6    2    1    2  501    0 -0.57917895644E+01  0.25736751478E+02 -0.21760835780E+03  0.27870719705E+03  0.17212896067E+03 0.  0.
         24    2    5    5    0    0 -0.31825332604E+02 -0.40258646784E+02 -0.79109077085E+02  0.12302393298E+03  0.79012857000E+02 0.  0.
          5    1    5    5  501    0  0.26033543040E+02  0.65995398262E+02 -0.13849928072E+03  0.15568326408E+03  0.47000000000E+01 0. -1.
        -13    1    6    6    0    0 -0.26860074493E+02 -0.21988014589E+02  0.65264289432E+01  0.35320400084E+02  0.00000000000E+00 0.  1.
         14    1    6    6    0    0 -0.49652581114E+01 -0.18270632195E+02 -0.85635506028E+02  0.87703532892E+02  0.00000000000E+00 0. -1.
         -5    1    3    3    0  503  0.54579939678E+02 -0.25518958329E+02 -0.36629787899E+01  0.60544978842E+02  0.47000000000E+01 0.  1.
         13    1    4    4    0    0 -0.44888167198E+01 -0.36457593495E+02 -0.45472020490E+02  0.58455198626E+02  0.00000000000E+00 0. -1.
        -14    1    4    4    0    0 -0.44299333393E+02  0.36239800346E+02 -0.61596704039E+02  0.84082745059E+02  0.00000000000E+00 0.  1.
</event>
<event>
12    1  0.1050869E+000  0.3983002E+03  0.7818608E-02  0.1044469E+00
         21   -1    0    0  501  502  0.00000000000E+00  0.00000000000E+00  0.90892784958E+03  0.90892784958E+03  0.00000000000E+00 0.  1.
         21   -1    0    0  502  503 -0.00000000000E+00 -0.00000000000E+00 -0.22880341168E+03  0.22880341168E+03  0.00000000000E+00 0.  1.
         -6    2    1    2    0  503  0.22738459453E+03  0.27809352300E+03  0.61391769693E+02  0.40188266998E+03  0.16941360536E+03 0.  0.
        -24    2    3    3    0    0  0.24313293542E+03  0.25779479113E+03  0.77081887305E+02  0.37141434961E+03  0.80219842455E+02 0.  0.
          6    2    1    2  501    0 -0.22738459453E+03 -0.27809352300E+03  0.61873266821E+03  0.73584859127E+03  0.17205601765E+03 0.  0.
         24    2    5    5    0    0 -0.23777067296E+03 -0.28395128116E+03  0.61544363674E+03  0.72261636985E+03  0.78995727595E+02 0.  0.
          5    1    5    5  501    0  0.10386078430E+02  0.58577581598E+01  0.32890314653E+01  0.13232221423E+02  0.47000000000E+01 0. -1.
        -11    1    6    6    0    0 -0.55812448846E+01 -0.68182860868E+01 -0.26078122095E-01  0.88113562913E+01  0.00000000000E+00 0.  1.
         12    1    6    6    0    0 -0.23218942808E+03 -0.27713299507E+03  0.61546971486E+03  0.71380501356E+03  0.00000000000E+00 0. -1.
         -5    1    3    3    0  503 -0.15748340883E+02  0.20298731861E+02 -0.15690117612E+02  0.30468320373E+02  0.47000000000E+01 0.  1.
         13    1    4    4    0    0  0.25438998003E+02  0.60627717981E+02  0.35664711048E+02  0.74798625797E+02  0.00000000000E+00 0. -1.
        -14    1    4    4    0    0  0.21769393741E+03  0.19716707315E+03  0.41417176257E+02  0.29661572381E+03  0.00000000000E+00 0.  1.
</event>
<event>
12    1  0.1050869E+000  0.1759685E+03  0.7818608E-02  0.1171837E+00
         21   -1    0    0  503  502  0.00000000000E+00  0.00000000000E+00  0.61472172668E+03  0.61472172668E+03  0.00000000000E+00 0.  1.
         21   -1    0    0  501  503 -0.00000000000E+00 -0.00000000000E+00 -0.55681807296E+02  0.55681807296E+02  0.00000000000E+00 0.  1.
          6    2    1    2  501    0  0.22069943105E+02 -0.31724577083E+02  0.38364421934E+03  0.42195121361E+03  0.17136629905E+03 0.  0.
         24    2    3    3    0    0  0.34244084610E+02 -0.42364081876E+02  0.10986218474E+03  0.14765192222E+03  0.82243648606E+02 0.  0.
         -6    2    1    2    0  502 -0.22069943105E+02  0.31724577083E+02  0.17539570004E+03  0.24845232037E+03  0.17167228292E+03 0.  0.
        -24    2    5    5    0    0 -0.13196067942E+02  0.45749606472E+01  0.10877629697E+02  0.81407018720E+02  0.79458878641E+02 0.  0.
          5    1    3    3  501    0 -0.12174141505E+02  0.10639504793E+02  0.27378203460E+03  0.27429929139E+03  0.47000000000E+01 0. -1.
        -11    1    4    4    0    0 -0.84464013778E+01  0.16159177388E+02  0.28913453999E+01  0.18461326829E+02  0.00000000000E+00 0.  1.
         12    1    4    4    0    0  0.42690485987E+02 -0.58523259264E+02  0.10697083934E+03  0.12919059539E+03  0.00000000000E+00 0. -1.
         -5    1    5    5    0  502 -0.88738751625E+01  0.27149616436E+02  0.16451807034E+03  0.16704530165E+03  0.47000000000E+01 0.  1.
         11    1    6    6    0    0 -0.40446920363E+02  0.15947630442E+02  0.23351695011E+02  0.49351615409E+02  0.00000000000E+00 0. -1.
        -12    1    6    6    0    0  0.27250852421E+02 -0.11372669795E+02 -0.12474065314E+02  0.32055403311E+02  0.00000000000E+00 0.  1.
</event>
<event>
12    1  0.1050869E+000  0.1874771E+03  0.7818608E-02  0.1161460E+00
         21   -1    0    0  501  502  0.00000000000E+00  0.00000000000E+00  0.12591953188E+03  0.12591953188E+03  0.00000000000E+00 0.  1.
         21   -1    0    0  502  503 -0.00000000000E+00 -0.00000000000E+00 -0.28097729081E+03  0.28097729081E+03  0.00000000000E+00 0.  1.
         -6    2    1    2    0  503 -0.59010489857E+02  0.46822257558E+02 -0.47558239039E+02  0.19341520254E+03  0.17167729249E+03 0.  0.
        -24    2    3    3    0    0 -0.35011742832E+02 -0.27875158824E+02  0.15495567557E+02  0.92650544059E+02  0.79631426490E+02 0.  0.
          6    2    1    2  501    0  0.59010489857E+02 -0.46822257558E+02 -0.10749951989E+03  0.21348162016E+03  0.16835585422E+03 0.  0.
         24    2    5    5    0    0  0.48514985707E+02  0.33677902396E+02 -0.80741972927E+02  0.12787503350E+03  0.79654585880E+02 0.  0.
          5    1    5    5  501    0  0.10495504150E+02 -0.80500159954E+02 -0.26757546963E+02  0.85606586659E+02  0.47000000000E+01 0. -1.
        -13    1    6    6    0    0 -0.16303164762E+01  0.36905253939E+01  0.15098859974E+02  0.15628611007E+02  0.00000000000E+00 0.  1.
         14    1    6    6    0    0  0.50145302183E+02  0.29987377002E+02 -0.95840832901E+02  0.11224642249E+03  0.00000000000E+00 0. -1.
         -5    1    3    3    0  503 -0.23998747025E+02  0.74697416382E+02 -0.63053806596E+02  0.10076465848E+03  0.47000000000E+01 0.  1.
         11    1    4    4    0    0 -0.18523794217E+02 -0.87680049577E+01  0.47593846000E+02  0.51818751820E+02  0.00000000000E+00 0. -1.
        -12    1    4    4    0    0 -0.16487948615E+02 -0.19107153867E+02 -0.32098278443E+02  0.40831792239E+02  0.00000000000E+00 0.  1.
</event>
<event>
12    1  0.1050869E+000  0.2263625E+03  0.7818608E-02  0.1132647E+00
         21   -1    0    0  501  502  0.00000000000E+00  0.00000000000E+00  0.92950921776E+02  0.92950921776E+02  0.00000000000E+00 0.  1.
         21   -1    0    0  502  503 -0.00000000000E+00 -0.00000000000E+00 -0.70517585749E+03  0.70517585749E+03  0.00000000000E+00 0.  1.
         -6    2    1    2    0  503  0.47587423389E+02 -0.10881564285E+03 -0.50786242668E+03  0.54886485062E+03  0.17094728080E+03 0.  0.
        -24    2    3    3    0    0 -0.31302412706E+02 -0.94144335549E+02 -0.31896453251E+03  0.34357637573E+03  0.80394999880E+02 0.  0.
          6    2    1    2  501    0 -0.47587423389E+02  0.10881564285E+03 -0.10436250903E+03  0.24926192865E+03  0.19270331805E+03 0.  0.
         24    2    5    5    0    0 -0.98759051825E+02  0.69336918744E+02 -0.11611842606E+03  0.18340301278E+03  0.74781131377E+02 0.  0.
          5    1    5    5  501    0  0.51171628436E+02  0.39478724107E+02  0.11755917024E+02  0.65858915866E+02  0.47000000000E+01 0. -1.
        -11    1    6    6    0    0  0.69915061976E+01 -0.82226627597E+01 -0.97595497820E+01  0.14551362607E+02  0.00000000000E+00 0.  1.
         12    1    6    6    0    0 -0.10575055802E+03  0.77559581503E+02 -0.10635887627E+03  0.16885165018E+03  0.00000000000E+00 0. -1.
         -5    1    3    3    0  503  0.78889836095E+02 -0.14671307302E+02 -0.18889789418E+03  0.20528847489E+03  0.47000000000E+01 0.  1.
         11    1    4    4    0    0 -0.35145511768E+02 -0.19955245067E+02 -0.48690597508E+02  0.63278693798E+02  0.00000000000E+00 0. -1.
        -12    1    4    4    0    0  0.38430990617E+01 -0.74189090481E+02 -0.27027393500E+03  0.28029768193E+03  0.00000000000E+00 0.  1.
</event>
<event>
12    1  0.1050869E+000  0.2714399E+03  0.7818608E-02  0.1100588E+00
         21   -1    0    0  501  502  0.00000000000E+00  0.00000000000E+00  0.19525647663E+03  0.19525647663E+03  0.00000000000E+00 0. -1.
         21   -1    0    0  502  503 -0.00000000000E+00 -0.00000000000E+00 -0.37621463706E+03  0.37621463706E+03  0.00000000000E+00 0. -1.
         -6    2    1    2    0  503 -0.16159338233E+03  0.13418914371E+03 -0.85303179140E+02  0.28452810329E+03  0.17193156107E+03 0.  0.
        -24    2    3    3    0    0 -0.15671257050E+03  0.97958666924E+02 -0.11970046131E+03  0.23411250261E+03  0.79534478458E+02 0.  0.
          6    2    1    2  501    0  0.16159338233E+03 -0.13418914371E+03 -0.95654981286E+02  0.28694301039E+03  0.17049125569E+03 0.  0.
         24    2    5    5    0    0  0.36579962702E+02 -0.11068595372E+03 -0.31751898961E+02  0.14451250468E+03  0.79285603357E+02 0.  0.
          5    1    5    5  501    0  0.12501341963E+03 -0.23503189987E+02 -0.63903082325E+02  0.14243050571E+03  0.47000000000E+01 0. -1.
        -11    1    6    6    0    0  0.61343196662E+02 -0.88548035546E+02 -0.22723383166E+02  0.11009130083E+03  0.00000000000E+00 0.  1.
         12    1    6    6    0    0 -0.24763233960E+02 -0.22137918175E+02 -0.90285157949E+01  0.34421203854E+02  0.00000000000E+00 0. -1.
         -5    1    3    3    0  503 -0.48808118339E+01  0.36230476785E+02  0.34397282165E+02  0.50415600686E+02  0.47000000000E+01 0.  1.
         11    1    4    4    0    0 -0.14047333765E+02  0.46551793519E+00  0.10675473034E+02  0.17649646380E+02  0.00000000000E+00 0. -1.
        -12    1    4    4    0    0 -0.14266523673E+03  0.97493148989E+02 -0.13037593434E+03  0.21646285623E+03  0.00000000000E+00 0.  1.
</event>
<event>
12    1  0.1050869E+000  0.2898972E+03  0.7818608E-02  0.1090539E+00
         21   -1    0    0  503  502  0.00000000000E+00  0.00000000000E+00  0.14229151326E+03  0.14229151326E+03  0.00000000000E+00 0.  1.
         21   -1    0    0  501  503 -0.00000000000E+00 -0.00000000000E+00 -0.15137883627E+04  0.15137883627E+04  0.00000000000E+00 0.  1.
          6    2    1    2  501    0 -0.23064886337E+03  0.36191394273E+02 -0.13336076675E+04  0.13647526521E+04  0.17184782632E+03 0.  0.
         24    2    3    3    0    0 -0.65277700277E+02  0.59823082243E+02 -0.67363859046E+03  0.68395359885E+03  0.78508569603E+02 0.  0.
         -6    2    1    2    0  502  0.23064886337E+03 -0.36191394273E+02 -0.37889181974E+02  0.29132722389E+03  0.17008011663E+03 0.  0.
        -24    2    5    5    0    0  0.11126546571E+03 -0.79573423508E+02 -0.33621751913E+02  0.16414744147E+03  0.84273523416E+02 0.  0.
          5    1    3    3  501    0 -0.16537116310E+03 -0.23631687970E+02 -0.65996907705E+03  0.68079905326E+03  0.47000000000E+01 0. -1.
        -11    1    4    4    0    0 -0.47046098776E+02  0.27628906247E+02 -0.16123044781E+03  0.17021148367E+03  0.00000000000E+00 0.  1.
         12    1    4    4    0    0 -0.18231601501E+02  0.32194175996E+02 -0.51240814264E+03  0.51374211518E+03  0.00000000000E+00 0. -1.
         -5    1    5    5    0  502  0.11938339766E+03  0.43382029235E+02 -0.42674300615E+01  0.12717978242E+03  0.47000000000E+01 0.  1.
         11    1    6    6    0    0  0.41917665332E+02 -0.36263215240E+02  0.27683319707E+02  0.61955448804E+02  0.00000000000E+00 0. -1.
        -12    1    6    6    0    0  0.69347800381E+02 -0.43310208268E+02 -0.61305071620E+02  0.10219199266E+03  0.00000000000E+00 0.  1.
</event>
<event>
12    1  0.1050869E+000  0.1986722E+03  0.7818608E-02  0.1152990E+00
         21   -1    0    0  503  502  0.00000000000E+00  0.00000000000E+00  0.43959581956E+03  0.43959581956E+03  0.00000000000E+00 0. -1.
         21   -1    0    0  501  503 -0.00000000000E+00 -0.00000000000E+00 -0.12134618029E+03  0.12134618029E+03  0.00000000000E+00 0. -1.
          6    2    1    2  501    0  0.78819039027E+02  0.67435982813E+02  0.94170034241E+01  0.19889525714E+03  0.16944199795E+03 0.  0.
         24    2    3    3    0    0  0.81146749723E+02  0.62370160422E+02  0.63889173682E+02  0.14393719926E+03  0.78493687107E+02 0.  0.
         -6    2    1    2    0  502 -0.78819039027E+02 -0.67435982813E+02  0.30883263584E+03  0.36204674271E+03  0.15792464738E+03 0.  0.
        -24    2    5    5    0    0 -0.10179976573E+03 -0.84295099452E+02  0.28619165112E+03  0.32534459287E+03  0.80464817415E+02 0.  0.
          5    1    3    3  501    0 -0.23277106954E+01  0.50658223907E+01 -0.54472170258E+02  0.54958057882E+02  0.47000000000E+01 0. -1.
        -11    1    4    4    0    0  0.73078164469E+02  0.67338453099E+02  0.23046729304E+02  0.10200998539E+03  0.00000000000E+00 0.  1.
         12    1    4    4    0    0  0.80685852532E+01 -0.49682926763E+01  0.40842444378E+02  0.41927213870E+02  0.00000000000E+00 0. -1.
         -5    1    5    5    0  502  0.22980726703E+02  0.16859116639E+02  0.22640984723E+02  0.36702149840E+02  0.47000000000E+01 0.  1.
         11    1    6    6    0    0  0.11750567324E+02 -0.17011262415E+01  0.10052262063E+02  0.15556916002E+02  0.00000000000E+00 0. -1.
        -12    1    6    6    0    0 -0.11355033305E+03 -0.82593973211E+02  0.27613938906E+03  0.30978767686E+03  0.00000000000E+00 0.  1.
</event>
<event>
12    1  0.1050869E+000  0.2791020E+03  0.7818608E-02  0.1096347E+00
         21   -1    0    0  501  502  0.00000000000E+00  0.00000000000E+00  0.28551193126E+03  0.28551193126E+03  0.00000000000E+00 0.  1.
         21   -1    0    0  502  503 -0.00000000000E+00 -0.00000000000E+00 -0.27166915143E+03  0.27166915143E+03  0.00000000000E+00 0.  1.
         -6    2    1    2    0  503  0.18493265760E+03  0.11754109601E+03  0.47448777690E+01  0.27914230934E+03  0.17286387102E+03 0.  0.
        -24    2    3    3    0    0  0.17639266250E+03  0.39450333070E+02 -0.21989392711E+02  0.19602847180E+03  0.72614930996E+02 0.  0.
          6    2    1    2  501    0 -0.18493265760E+03 -0.11754109601E+03  0.90979020691E+01  0.27803877335E+03  0.17089994314E+03 0.  0.
         24    2    5    5    0    0 -0.13400226626E+02 -0.25173319105E+02  0.41586054848E+01  0.83098608848E+02  0.77941149110E+02 0.  0.
          5    1    5    5  501    0 -0.17153243097E+03 -0.92367776905E+02  0.49392965843E+01  0.19494016450E+03  0.47000000000E+01 0. -1.
        -11    1    6    6    0    0 -0.23071379286E+02 -0.24614542613E+02 -0.31494631245E+02  0.46152746912E+02  0.00000000000E+00 0.  1.
         12    1    6    6    0    0  0.96711526602E+01 -0.55877649127E+00  0.35653236730E+02  0.36945861937E+02  0.00000000000E+00 0. -1.
         -5    1    3    3    0  503  0.85399950985E+01  0.78090762939E+02  0.26734270480E+02  0.83113837541E+02  0.47000000000E+01 0.  1.
         11    1    4    4    0    0  0.12609293230E+03  0.25250097534E+02  0.18492083026E+02  0.12991902146E+03  0.00000000000E+00 0. -1.
        -12    1    4    4    0    0  0.50299730193E+02  0.14200235537E+02 -0.40481475737E+02  0.66109450343E+02  0.00000000000E+00 0.  1.
</event>
<event>
12    1  0.1050869E+000  0.3051738E+03  0.7818608E-02  0.1083114E+00
         21   -1    0    0  501  502  0.00000000000E+00  0.00000000000E+00  0.10251694196E+03  0.10251694196E+03  0.00000000000E+00 0.  1.
         21   -1    0    0  502  503 -0.00000000000E+00 -0.00000000000E+00 -0.10100100815E+04  0.10100100815E+04  0.00000000000E+00 0.  1.
         -6    2    1    2    0  503  0.20094043408E+03 -0.15245654452E+03 -0.63663075100E+03  0.70448602198E+03  0.16547442711E+03 0.  0.
        -24    2    3    3    0    0  0.17816203606E+03 -0.13741007382E+03 -0.39720838832E+03  0.46346650109E+03  0.80021587107E+02 0.  0.
          6    2    1    2  501    0 -0.20094043408E+03  0.15245654452E+03 -0.27086238854E+03  0.40804100149E+03  0.17178757044E+03 0.  0.
         24    2    5    5    0    0 -0.91465635097E+02  0.79976967350E+01 -0.87024780341E+02  0.14983285580E+03  0.80291012734E+02 0.  0.
          5    1    5    5  501    0 -0.10947479898E+03  0.14445884778E+03 -0.18383760820E+03  0.25820814569E+03  0.47000000000E+01 0. -1.
        -11    1    6    6    0    0  0.99725516677E+01  0.12441612393E+02 -0.28448751810E+02  0.32612528041E+02  0.00000000000E+00 0.  1.
         12    1    6    6    0    0 -0.10143818676E+03 -0.44439156580E+01 -0.58576028531E+02  0.11722032776E+03  0.00000000000E+00 0. -1.
         -5    1    3    3    0  503  0.22778398020E+02 -0.15046470700E+02 -0.23942236268E+03  0.24101952088E+03  0.47000000000E+01 0.  1.
         13    1    4    4    0    0  0.78133957449E+02 -0.25873673958E+02 -0.91833275734E+02  0.12331955580E+03  0.00000000000E+00 0. -1.
        -14    1    4    4    0    0  0.10002807861E+03 -0.11153639986E+03 -0.30537511259E+03  0.34014694529E+03  0.00000000000E+00 0.  1.
</event>
<event>
12    1  0.1050869E+000  0.2191774E+03  0.7818608E-02  0.1134511E+00
         21   -1    0    0  501  502  0.00000000000E+00  0.00000000000E+00  0.66555622971E+03  0.66555622971E+03  0.00000000000E+00 0.  1.
         21   -1    0    0  502  503 -0.00000000000E+00 -0.00000000000E+00 -0.75089818320E+02  0.75089818320E+02  0.00000000000E+00 0.  1.
         -6    2    1    2    0  503 -0.27416356149E+02 -0.13177841752E+03  0.36849424368E+03  0.42875020951E+03  0.17297839930E+03 0.  0.
        -24    2    3    3    0    0  0.44653557740E+02 -0.10668686865E+03  0.21796626568E+03  0.25991768755E+03  0.81681596237E+02 0.  0.
          6    2    1    2  501    0  0.27416356149E+02  0.13177841752E+03  0.22197216770E+03  0.31189583851E+03  0.17288771772E+03 0.  0.
         24    2    5    5    0    0 -0.49759158989E+01  0.76778902758E+01  0.40894530017E+02  0.89946742951E+02  0.79588593681E+02 0.  0.
          5    1    5    5  501    0  0.32392272048E+02  0.12410052724E+03  0.18107763769E+03  0.22194909556E+03  0.47000000000E+01 0. -1.
        -13    1    6    6    0    0  0.14881669018E+02 -0.15972145244E+02  0.52577491071E+02  0.56929483256E+02  0.00000000000E+00 0.  1.
         14    1    6    6    0    0 -0.19857584917E+02  0.23650035520E+02 -0.11682961054E+02  0.33017259696E+02  0.00000000000E+00 0. -1.
         -5    1    3    3    0  503 -0.72069913889E+02 -0.25091548863E+02  0.15052797800E+03  0.16883252197E+03  0.47000000000E+01 0.  1.
         11    1    4    4    0    0 -0.18305950824E+02 -0.54325826536E+02  0.11374422967E+03  0.12737406741E+03  0.00000000000E+00 0. -1.
        -12    1    4    4    0    0  0.62959508563E+02 -0.52361042117E+02  0.10422203601E+03  0.13254362014E+03  0.00000000000E+00 0.  1.
</event>
<event>
12    1  0.1050869E+000  0.2056336E+03  0.7818608E-02  0.1145181E+00
         21   -1    0    0  501  502  0.00000000000E+00  0.00000000000E+00  0.48419124017E+03  0.48419124017E+03  0.00000000000E+00 0. -1.
         21   -1    0    0  502  503 -0.00000000000E+00 -0.00000000000E+00 -0.12083848384E+03  0.12083848384E+03  0.00000000000E+00 0. -1.
         -6    2    1    2    0  503  0.33235636844E+02  0.10644944637E+03  0.22007927826E+02  0.20680793338E+03  0.17276886361E+03 0.  0.
        -24    2    3    3    0    0 -0.24862850182E+02  0.16519903312E+02 -0.26706865401E+02  0.89088020072E+02  0.79576065096E+02 0.  0.
          6    2    1    2  501    0 -0.33235636844E+02 -0.10644944637E+03  0.34134482850E+03  0.39822179063E+03  0.17212847063E+03 0.  0.
         24    2    5    5    0    0 -0.85205507288E+02 -0.48331360351E+02  0.19129271618E+03  0.22905824323E+03  0.79239363094E+02 0.  0.
          5    1    5    5  501    0  0.51969870444E+02 -0.58118086022E+02  0.15005211232E+03  0.16916354740E+03  0.47000000000E+01 0. -1.
        -13    1    6    6    0    0  0.60994199685E+01  0.12737614857E+02  0.10844979151E+02  0.17806272181E+02  0.00000000000E+00 0.  1.
         14    1    6    6    0    0 -0.91304927256E+02 -0.61068975208E+02  0.18044773703E+03  0.21125197105E+03  0.00000000000E+00 0. -1.
         -5    1    3    3    0  503  0.58098487026E+02  0.89929543061E+02  0.48714793227E+02  0.11771991331E+03  0.47000000000E+01 0.  1.
         13    1    4    4    0    0 -0.97667211647E+01  0.26641192361E+02  0.22768068929E+02  0.36380309722E+02  0.00000000000E+00 0. -1.
        -14    1    4    4    0    0 -0.15096129017E+02 -0.10121289049E+02 -0.49474934330E+02  0.52707710350E+02  0.00000000000E+00 0.  1.
</event>
<event>
12    1  0.1050869E+000  0.1796170E+03  0.7818608E-02  0.1168567E+00
         21   -1    0    0  503  502  0.00000000000E+00  0.00000000000E+00  0.78210636953E+02  0.78210636953E+02  0.00000000000E+00 0. -1.
         21   -1    0    0  501  503 -0.00000000000E+00 -0.00000000000E+00 -0.43140261583E+03  0.43140261583E+03  0.00000000000E+00 0. -1.
          6    2    1    2  501    0 -0.24874646478E+02  0.38114711625E+02 -0.23565321820E+03  0.29630170500E+03  0.17375494773E+03 0.  0.
         24    2    3    3    0    0 -0.20787297154E+01  0.52556134397E+02 -0.24842625217E+03  0.26607838768E+03  0.79470983647E+02 0.  0.
         -6    2    1    2    0  502  0.24874646478E+02 -0.38114711625E+02 -0.11753876068E+03  0.21331154779E+03  0.17209002550E+03 0.  0.
        -24    2    5    5    0    0 -0.60531014262E+01 -0.93462814647E+02 -0.84023698796E+02  0.14144161338E+03  0.64605032911E+02 0.  0.
          5    1    3    3  501    0 -0.22795916763E+02 -0.14441422772E+02  0.12773033978E+02  0.30223317318E+02  0.47000000000E+01 0. -1.
        -11    1    4    4    0    0 -0.15431835393E+02  0.33403922073E+02 -0.33109576554E+02  0.49499571847E+02  0.00000000000E+00 0.  1.
         12    1    4    4    0    0  0.13353105677E+02  0.19152212324E+02 -0.21531667562E+03  0.21657881583E+03  0.00000000000E+00 0. -1.
         -5    1    5    5    0  502  0.30927747904E+02  0.55348103022E+02 -0.33515061889E+02  0.71869934409E+02  0.47000000000E+01 0.  1.
         11    1    6    6    0    0 -0.10412267147E+00 -0.64452159965E+01  0.10817012120E+02  0.12592037245E+02  0.00000000000E+00 0. -1.
        -12    1    6    6    0    0 -0.59489787548E+01 -0.87017598650E+02 -0.94840710915E+02  0.12884957613E+03  0.00000000000E+00 0.  1.
</event>
<event>
12    1  0.1050869E+000  0.2036566E+03  0.7818608E-02  0.1149792E+00
         21   -1    0    0  501  502  0.00000000000E+00  0.00000000000E+00  0.37049260554E+03  0.37049260554E+03  0.00000000000E+00 0.  1.
         21   -1    0    0  502  503 -0.00000000000E+00 -0.00000000000E+00 -0.11074702628E+03  0.11074702628E+03  0.00000000000E+00 0.  1.
         -6    2    1    2    0  503 -0.60967794635E+02  0.45044821204E+02  0.19313902437E+03  0.28067543976E+03  0.18902357485E+03 0.  0.
        -24    2    3    3    0    0  0.19421849108E+02  0.51630728105E+02  0.17111901138E+03  0.19693273880E+03  0.80360732012E+02 0.  0.
          6    2    1    2  501    0  0.60967794635E+02 -0.45044821204E+02  0.66606554883E+02  0.20056419206E+03  0.17333047650E+03 0.  0.
         24    2    5    5    0    0  0.69649877889E+02  0.33057792646E+02  0.40550800626E+02  0.11764019560E+03  0.79062791779E+02 0.  0.
          5    1    5    5  501    0 -0.86820832544E+01 -0.78102613850E+02  0.26055754257E+02  0.82923996465E+02  0.47000000000E+01 0. -1.
        -11    1    6    6    0    0  0.12217014506E+02 -0.14507519853E+02  0.38639774053E+02  0.43043648946E+02  0.00000000000E+00 0.  1.
         12    1    6    6    0    0  0.57432863383E+02  0.47565312499E+02  0.19110265727E+01  0.74596546650E+02  0.00000000000E+00 0. -1.
         -5    1    3    3    0  503 -0.80389643743E+02 -0.65859069008E+01  0.22020012992E+02  0.83742700954E+02  0.47000000000E+01 0.  1.
         11    1    4    4    0    0 -0.27147150023E+02  0.37660328486E+01  0.75345837694E+02  0.80175719614E+02  0.00000000000E+00 0. -1.
        -12    1    4    4    0    0  0.46568999132E+02  0.47864695256E+02  0.95773173685E+02  0.11675701919E+03  0.00000000000E+00 0.  1.
</event>
<event>
12    1  0.1050869E+000  0.2493222E+03  0.7818608E-02  0.1114392E+00
         21   -1    0    0  503  502  0.00000000000E+00  0.00000000000E+00  0.15129969868E+03  0.15129969868E+03  0.00000000000E+00 0.  1.
         21   -1    0    0  501  503 -0.00000000000E+00 -0.00000000000E+00 -0.46458804347E+03  0.46458804347E+03  0.00000000000E+00 0. -1.
          6    2    1    2  501    0  0.16969429174E+03  0.61941350983E+02 -0.46663255017E+02  0.25365133020E+03  0.17183903612E+03 0.  0.
         24    2    3    3    0    0  0.10238145897E+03  0.10455044439E+03 -0.15507658081E+02  0.16798153671E+03  0.81021914653E+02 0.  0.
         -6    2    1    2    0  502 -0.16969429174E+03 -0.61941350983E+02 -0.26662508978E+03  0.36223641195E+03  0.16581132661E+03 0.  0.
        -24    2    5    5    0    0 -0.12926956134E+02 -0.32303558652E+02 -0.73960650204E+02  0.11204434069E+03  0.76636351720E+02 0.  0.
          5    1    3    3  501    0  0.67312832771E+02 -0.42609093404E+02 -0.31155596936E+02  0.85669793491E+02  0.47000000000E+01 0. -1.
        -11    1    4    4    0    0  0.11041698693E+03  0.68058248299E+02 -0.86834809434E+01  0.12999707306E+03  0.00000000000E+00 0.  1.
         12    1    4    4    0    0 -0.80355279590E+01  0.36492196088E+02 -0.68241771372E+01  0.37984463646E+02  0.00000000000E+00 0. -1.
         -5    1    5    5    0  502 -0.15676733560E+03 -0.29637792330E+02 -0.19266443957E+03  0.25019207126E+03  0.47000000000E+01 0.  1.
         11    1    6    6    0    0 -0.14517067496E+02 -0.27029204108E+02  0.65276742780E+01  0.31367716762E+02  0.00000000000E+00 0. -1.
        -12    1    6    6    0    0  0.15901113622E+01 -0.52743545443E+01 -0.80488324482E+02  0.80676623925E+02  0.00000000000E+00 0.  1.
</event>
<event>
12    1  0.1050869E+000  0.2270996E+03  0.7818608E-02  0.1128800E+00
         21   -1    0    0  503  502  0.00000000000E+00  0.00000000000E+00  0.77437843308E+02  0.77437843308E+02  0.00000000000E+00 0.  1.
         21   -1    0    0  501  503 -0.00000000000E+00 -0.00000000000E+00 -0.82227933752E+03  0.82227933752E+03  0.00000000000E+00 0.  1.
          6    2    1    2  501    0 -0.10876071824E+02  0.14737802775E+03 -0.17563900530E+03  0.28709453762E+03  0.17244025442E+03 0.  0.
         24    2    3    3    0    0  0.37968599069E+02  0.15219514759E+03 -0.15274194894E+03  0.23273120707E+03  0.78922330886E+02 0.  0.
         -6    2    1    2    0  502  0.10876071824E+02 -0.14737802775E+03 -0.56920248892E+03  0.61262264321E+03  0.17168709208E+03 0.  0.
        -24    2    5    5    0    0 -0.70268602573E+00 -0.17500707532E+03 -0.52559626988E+03  0.55950932811E+03  0.78557489462E+02 0.  0.
          5    1    3    3  501    0 -0.48844670893E+02 -0.48171198407E+01 -0.22897056358E+02  0.54363330546E+02  0.47000000000E+01 0. -1.
        -13    1    4    4    0    0  0.36634035033E+02  0.19449956565E+02 -0.24605294679E+02  0.48226277686E+02  0.00000000000E+00 0.  1.
         14    1    4    4    0    0  0.13345640361E+01  0.13274519103E+03 -0.12813665426E+03  0.18450492938E+03  0.00000000000E+00 0. -1.
         -5    1    5    5    0  502  0.11578757849E+02  0.27629047564E+02 -0.43606219033E+02  0.53113315100E+02  0.47000000000E+01 0.  1.
         11    1    6    6    0    0  0.61416964505E+01 -0.70477301922E+02 -0.10900428583E+03  0.12994885475E+03  0.00000000000E+00 0. -1.
        -12    1    6    6    0    0 -0.68443824763E+01 -0.10452977339E+03 -0.41659198406E+03  0.42956047336E+03  0.00000000000E+00 0.  1.
</event>
<event>
12    1  0.1050869E+000  0.2434881E+03  0.7818608E-02  0.1117533E+00
         21   -1    0    0  503  502  0.00000000000E+00  0.00000000000E+00  0.25039751279E+03  0.25039751279E+03  0.00000000000E+00 0.  1.
         21   -1    0    0  501  503 -0.00000000000E+00 -0.00000000000E+00 -0.23731284814E+03  0.23731284814E+03  0.00000000000E+00 0.  1.
          6    2    1    2  501    0 -0.81348639927E+02 -0.15083620647E+03 -0.75795269076E+01  0.24360606787E+03  0.17296619518E+03 0.  0.
         24    2    3    3    0    0 -0.60931571278E+01 -0.14302984341E+03 -0.25578321674E+02  0.16569346549E+03  0.79406619991E+02 0.  0.
         -6    2    1    2    0  502  0.81348639927E+02  0.15083620647E+03  0.20664191563E+02  0.24410429307E+03  0.17259992665E+03 0.  0.
        -24    2    5    5    0    0  0.32735727154E+02  0.27210244853E+02  0.56258244608E+02  0.10649753347E+03  0.79779128175E+02 0.  0.
          5    1    3    3  501    0 -0.75255482799E+02 -0.78063630583E+01  0.17998794766E+02  0.77912602373E+02  0.47000000000E+01 0. -1.
        -13    1    4    4    0    0  0.35001481751E+02 -0.44996985912E+02 -0.14482644425E+02  0.58818189835E+02  0.00000000000E+00 0.  1.
         14    1    4    4    0    0 -0.41094638879E+02 -0.98032857497E+02 -0.11095677248E+02  0.10687527566E+03  0.00000000000E+00 0. -1.
         -5    1    5    5    0  502  0.48612912772E+02  0.12362596161E+03 -0.35594053045E+02  0.13760675959E+03  0.47000000000E+01 0.  1.
         13    1    6    6    0    0  0.21765280156E+02 -0.14509083975E+02 -0.95196002690E+01  0.27836374177E+02  0.00000000000E+00 0. -1.
        -14    1    6    6    0    0  0.10970446998E+02  0.41719328828E+02  0.65777844877E+02  0.78661159297E+02  0.00000000000E+00 0.  1.
</event>
<event>
12    1  0.1050869E+000  0.2218294E+03  0.7818608E-02  0.1132821E+00
         21   -1    0    0  503  502  0.00000000000E+00  0.00000000000E+00  0.29338327779E+02  0.29338327779E+02  0.00000000000E+00 0. -1.
         21   -1    0    0  501  503 -0.00000000000E+00 -0.00000000000E+00 -0.17252234814E+04  0.17252234814E+04  0.00000000000E+00 0. -1.
          6    2    1    2  501    0  0.12414247021E+03  0.60098828171E+02 -0.68731563951E+03  0.72222645283E+03  0.17373842061E+03 0.  0.
         24    2    3    3    0    0  0.87895109540E+02  0.50310557602E+02 -0.66644232090E+03  0.67901225578E+03  0.81581700964E+02 0.  0.
         -6    2    1    2    0  502 -0.12414247021E+03 -0.60098828171E+02 -0.10085695141E+04  0.10323353564E+04  0.17169915876E+03 0.  0.
        -24    2    5    5    0    0 -0.97361978278E+02 -0.70539487648E+02 -0.98358311884E+03  0.99396072845E+03  0.77890974421E+02 0.  0.
          5    1    3    3  501    0  0.36247360672E+02  0.97882705685E+01 -0.20873318608E+02  0.43214197044E+02  0.47000000000E+01 0. -1.
        -13    1    4    4    0    0  0.48306554443E+02  0.27466403917E+02 -0.14053549462E+03  0.15112296912E+03  0.00000000000E+00 0.  1.
         14    1    4    4    0    0  0.39588555097E+02  0.22844153685E+02 -0.52590682627E+03  0.52788928666E+03  0.00000000000E+00 0. -1.
         -5    1    5    5    0  502 -0.26780491934E+02  0.10440659477E+02 -0.24986395293E+02  0.38374627924E+02  0.47000000000E+01 0.  1.
         13    1    6    6    0    0 -0.61636511516E+02 -0.31475743723E+00 -0.33650568971E+03  0.34210413302E+03  0.00000000000E+00 0. -1.
        -14    1    6    6    0    0 -0.35725466762E+02 -0.70224730211E+02 -0.64707742913E+03  0.65185659543E+03  0.00000000000E+00 0.  1.
</event>
<event>
12    1  0.1050869E+000  0.1934911E+03  0.7818608E-02  0.1155982E+00
         21   -1    0    0  501  502  0.00000000000E+00  0.00000000000E+00  0.11244626658E+04  0.11244626658E+04  0.00000000000E+00 0.  1.
         21   -1    0    0  502  503 -0.00000000000E+00 -0.00000000000E+00 -0.33535144448E+02  0.33535144448E+02  0.00000000000E+00 0.  1.
         -6    2    1    2    0  503 -0.65188790314E+02  0.49616725707E+02  0.63476895249E+03  0.66360411683E+03  0.17529233577E+03 0.  0.
        -24    2    3    3    0    0 -0.10231682408E+03  0.62266408011E+02  0.39187118895E+03  0.41751486700E+03  0.80061210184E+02 0.  0.
          6    2    1    2  501    0  0.65188790314E+02 -0.49616725707E+02  0.45615856889E+03  0.49439369345E+03  0.17214263357E+03 0.  0.
         24    2    5    5    0    0  0.11033010126E+03 -0.29660899789E+02  0.34737639792E+03  0.37484611437E+03  0.82381717667E+02 0.  0.
          5    1    5    5  501    0 -0.45141310944E+02 -0.19955825918E+02  0.10878217098E+03  0.11954757908E+03  0.47000000000E+01 0. -1.
        -11    1    6    6    0    0 -0.98513649811E+01 -0.16047787992E+02  0.64611981303E+02  0.67299992714E+02  0.00000000000E+00 0.  1.
         12    1    6    6    0    0  0.12018146624E+03 -0.13613111797E+02  0.28276441661E+03  0.30754612165E+03  0.00000000000E+00 0. -1.
         -5    1    3    3    0  503  0.37128033763E+02 -0.12649682304E+02  0.24289776353E+03  0.24608924983E+03  0.47000000000E+01 0.  1.
         11    1    4    4    0    0 -0.34171033995E+02  0.48775100604E+02  0.27652235614E+03  0.28286265828E+03  0.00000000000E+00 0. -1.
        -12    1    4    4    0    0 -0.68145790082E+02  0.13491307407E+02  0.11534883282E+03  0.13465220872E+03  0.00000000000E+00 0.  1.
</event>
<event>
12    1  0.1050869E+000  0.2227767E+03  0.7818608E-02  0.1132143E+00
         21   -1    0    0  503  502  0.00000000000E+00  0.00000000000E+00  0.19546876954E+02  0.19546876954E+02  0.00000000000E+00 0. -1.
         21   -1    0    0  501  503 -0.00000000000E+00 -0.00000000000E+00 -0.29229731197E+04  0.29229731197E+04  0.00000000000E+00 0. -1.
          6    2    1    2  501    0  0.39198067793E+02 -0.12996737299E+03 -0.91000299798E+03  0.93687508540E+03  0.17663935784E+03 0.  0.
         24    2    3    3    0    0  0.34916651003E+02  0.49660095857E+01 -0.30172238043E+03  0.31377577714E+03  0.78581229931E+02 0.  0.
         -6    2    1    2    0  502 -0.39198067793E+02  0.12996737299E+03 -0.19934232448E+04  0.20056449113E+04  0.17449146320E+03 0.  0.
        -24    2    5    5    0    0 -0.52097624486E+02  0.73843664518E+01 -0.74732348652E+03  0.75345495380E+03  0.80207746266E+02 0.  0.
          5    1    3    3  501    0  0.42814167891E+01 -0.13493338258E+03 -0.60828061755E+03  0.62309930826E+03  0.47000000000E+01 0. -1.
        -13    1    4    4    0    0  0.33581200583E+02 -0.11958200458E+02 -0.49590627253E+02  0.61073119309E+02  0.00000000000E+00 0.  1.
         14    1    4    4    0    0  0.13354504204E+01  0.16924210044E+02 -0.25213175318E+03  0.25270265783E+03  0.00000000000E+00 0. -1.
         -5    1    5    5    0  502  0.12899556694E+02  0.12258300654E+03 -0.12460997583E+04  0.12521899575E+04  0.47000000000E+01 0.  1.
         11    1    6    6    0    0  0.16321415140E+02  0.12169779645E+02 -0.77512010165E+02  0.80141149533E+02  0.00000000000E+00 0. -1.
        -12    1    6    6    0    0 -0.68419039627E+02 -0.47854131930E+01 -0.66981147635E+03  0.67331380427E+03  0.00000000000E+00 0.  1.
</event>
<event>
12    1  0.1050869E+000  0.2769953E+03  0.7818608E-02  0.1097368E+00
         21   -1    0    0  503  502  0.00000000000E+00  0.00000000000E+00  0.33480357675E+03  0.33480357675E+03  0.00000000000E+00 0. -1.
         21   -1    0    0  501  503 -0.00000000000E+00 -0.00000000000E+00 -0.23539844042E+03  0.23539844042E+03  0.00000000000E+00 0. -1.
          6    2    1    2  501    0  0.85104400387E+02 -0.19921157991E+03  0.96676573975E+02  0.29338158594E+03  0.17262207993E+03 0.  0.
         24    2    3    3    0    0  0.71329022174E+02 -0.22093709527E+03  0.66490717092E+02  0.25344369644E+03  0.76887335350E+02 0.  0.
         -6    2    1    2    0  502 -0.85104400387E+02  0.19921157991E+03  0.27285623461E+01  0.27682043123E+03  0.17231974221E+03 0.  0.
        -24    2    5    5    0    0 -0.54933628706E+02  0.73837258862E+02 -0.55758605042E+02  0.13514532900E+03  0.81765478986E+02 0.  0.
          5    1    3    3  501    0  0.13775378213E+02  0.21725515352E+02  0.30185856883E+02  0.39937889504E+02  0.47000000000E+01 0. -1.
        -11    1    4    4    0    0 -0.12001948868E+02 -0.12285740419E+02  0.15317649731E+02  0.23013400174E+02  0.00000000000E+00 0.  1.
         12    1    4    4    0    0  0.83330971042E+02 -0.20865135485E+03  0.51173067361E+02  0.23043029627E+03  0.00000000000E+00 0. -1.
         -5    1    5    5    0  502 -0.30170771680E+02  0.12537432105E+03  0.58487167388E+02  0.14167510223E+03  0.47000000000E+01 0.  1.
         13    1    6    6    0    0  0.31972847497E+01  0.39713590412E+02 -0.54774002748E+02  0.67731700630E+02  0.00000000000E+00 0. -1.
        -14    1    6    6    0    0 -0.58130913456E+02  0.34123668451E+02 -0.98460229425E+00  0.67413628366E+02  0.00000000000E+00 0.  1.
</event>
<event>
12    1  0.1050869E+000  0.2664683E+03  0.7818608E-02  0.1103425E+00
         21   -1    0    0  501  502  0.00000000000E+00  0.00000000000E+00  0.76937187387E+02  0.76937187387E+02  0.00000000000E+00 0.  1.
         21   -1    0    0  502  503 -0.00000000000E+00 -0.00000000000E+00 -0.92089375717E+03  0.92089375717E+03  0.00000000000E+00 0.  1.
         -6    2    1    2    0  503 -0.16184837584E+03  0.12141899551E+03 -0.43444541002E+03  0.50965496966E+03  0.17340099360E+03 0.  0.
        -24    2    3    3    0    0 -0.97406109489E+02  0.85972713698E+02 -0.14453257215E+03  0.21052157442E+03  0.80934610755E+02 0.  0.
          6    2    1    2  501    0  0.16184837584E+03 -0.12141899551E+03 -0.40951115977E+03  0.48817597490E+03  0.17227571872E+03 0.  0.
         24    2    5    5    0    0  0.48256944646E+01 -0.50440323667E+02 -0.18988006031E+03  0.20897353191E+03  0.71049181237E+02 0.  0.
          5    1    5    5  501    0  0.15702268138E+03 -0.70978671843E+02 -0.21963109945E+03  0.27920244299E+03  0.47000000000E+01 0. -1.
        -13    1    6    6    0    0 -0.10595325474E+02  0.15243439500E+02 -0.27990001002E+02  0.33586656960E+02  0.00000000000E+00 0.  1.
         14    1    6    6    0    0  0.15421019939E+02 -0.65683763167E+02 -0.16189005931E+03  0.17538687495E+03  0.00000000000E+00 0. -1.
         -5    1    3    3    0  503 -0.64442266355E+02  0.35446281812E+02 -0.28991283787E+03  0.29913339524E+03  0.47000000000E+01 0.  1.
         13    1    4    4    0    0 -0.34494862622E+02  0.82209990609E+02 -0.95700330861E+02  0.13079346861E+03  0.00000000000E+00 0. -1.
        -14    1    4    4    0    0 -0.62911246868E+02  0.37627230890E+01 -0.48832241290E+02  0.79728105815E+02  0.00000000000E+00 0.  1.
</event>
<event>
12    1  0.1050869E+000  0.2628847E+03  0.7818608E-02  0.1105493E+00
         21   -1    0    0  503  502  0.00000000000E+00  0.00000000000E+00  0.37059649247E+03  0.37059649247E+03  0.00000000000E+00 0. -1.
         21   -1    0    0  501  503 -0.00000000000E+00 -0.00000000000E+00 -0.18926114411E+03  0.18926114411E+03  0.00000000000E+00 0. -1.
          6    2    1    2  501    0  0.13192373080E+02 -0.19738785368E+03  0.54650191814E+02  0.26804008589E+03  0.17240313423E+03 0.  0.
         24    2    3    3    0    0 -0.15015018361E+02 -0.93764101947E+02 -0.34397181961E+02  0.12845117648E+03  0.79368640034E+02 0.  0.
         -6    2    1    2    0  502 -0.13192373080E+02  0.19738785368E+03  0.12668515654E+03  0.29181755069E+03  0.17312524517E+03 0.  0.
        -24    2    5    5    0    0 -0.15672360150E+02  0.22007407355E+03  0.96851132964E+02  0.25396290936E+03  0.80242112704E+02 0.  0.
          5    1    3    3  501    0  0.28207391441E+02 -0.10362375173E+03  0.89047373776E+02  0.13958890941E+03  0.47000000000E+01 0. -1.
        -11    1    4    4    0    0 -0.33285220902E+01 -0.85499562484E+02  0.58207453250E+01  0.85762085565E+02  0.00000000000E+00 0.  1.
         12    1    4    4    0    0 -0.11686496271E+02 -0.82645394634E+01 -0.40217927286E+02  0.42689090911E+02  0.00000000000E+00 0. -1.
         -5    1    5    5    0  502  0.24799870692E+01 -0.22686219867E+02  0.29834023575E+02  0.37854641332E+02  0.47000000000E+01 0.  1.
         11    1    6    6    0    0 -0.47848253486E+02  0.11516489125E+03  0.44810820160E+02  0.13251572413E+03  0.00000000000E+00 0. -1.
        -12    1    6    6    0    0  0.32175893336E+02  0.10490918230E+03  0.52040312803E+02  0.12144718522E+03  0.00000000000E+00 0.  1.
</event>
<event>
12    1  0.1050869E+000  0.1813829E+03  0.7818608E-02  0.1167159E+00
         21   -1    0    0  503  502  0.00000000000E+00  0.00000000000E+00  0.10982201029E+03  0.10982201029E+03  0.00000000000E+00 0.  1.
         21   -1    0    0  501  503 -0.00000000000E+00 -0.00000000000E+00 -0.31260070373E+03  0.31260070373E+03  0.00000000000E+00 0.  1.
          6    2    1    2  501    0 -0.43232857616E+02  0.40096315781E+02 -0.15241710766E+03  0.23691927710E+03  0.17153126431E+03 0.  0.
         24    2    3    3    0    0 -0.27862911252E+02 -0.42196522765E+02 -0.56934444060E+02  0.10984695291E+03  0.79170283475E+02 0.  0.
         -6    2    1    2    0  502  0.43232857616E+02 -0.40096315781E+02 -0.50361585779E+02  0.18550343692E+03  0.16851837072E+03 0.  0.
        -24    2    5    5    0    0  0.54021619118E+02 -0.72815795701E+02 -0.75768745486E+02  0.14243865427E+03  0.79544905560E+02 0.  0.
          5    1    3    3  501    0 -0.15369946364E+02  0.82292838546E+02 -0.95482663600E+02  0.12707232419E+03  0.47000000000E+01 0. -1.
        -11    1    4    4    0    0 -0.29045621632E+02 -0.14284856889E+02  0.12736257740E+02  0.34783868869E+02  0.00000000000E+00 0.  1.
         12    1    4    4    0    0  0.11827103800E+01 -0.27911665876E+02 -0.69670701800E+02  0.75063084037E+02  0.00000000000E+00 0. -1.
         -5    1    5    5    0  502 -0.10788761503E+02  0.32719479920E+02  0.25407159707E+02  0.43064782658E+02  0.47000000000E+01 0.  1.
         13    1    6    6    0    0  0.23456687871E+01 -0.74779167070E+01  0.16416125216E+02  0.18190947403E+02  0.00000000000E+00 0. -1.
        -14    1    6    6    0    0  0.51675950331E+02 -0.65337878994E+02 -0.92184870702E+02  0.12424770686E+03  0.00000000000E+00 0.  1.
</event>
<event>
12    1  0.1050869E+000  0.3655020E+03  0.7818608E-02  0.1056438E+00
         21   -1    0    0  503  502  0.00000000000E+00  0.00000000000E+00  0.17518199181E+03  0.17518199181E+03  0.00000000000E+00 0.  1.
         21   -1    0    0  501  503 -0.00000000000E+00 -0.00000000000E+00 -0.83528952635E+03  0.83528952635E+03  0.00000000000E+00 0.  1.
          6    2    1    2  501    0  0.25279274211E+03 -0.20045168626E+03 -0.47941251209E+03  0.60284993999E+03  0.17177498188E+03 0.  0.
         24    2    3    3    0    0  0.13222837268E+03 -0.35407276954E+02 -0.17438581560E+03  0.23564590979E+03  0.79878434600E+02 0.  0.
         -6    2    1    2    0  502 -0.25279274211E+03  0.20045168626E+03 -0.18069502244E+03  0.40762157818E+03  0.17152145894E+03 0.  0.
        -24    2    5    5    0    0 -0.15612220212E+03  0.13887326468E+03 -0.36088366722E+02  0.22304024060E+03  0.69171186736E+02 0.  0.
          5    1    3    3  501    0  0.12056436942E+03 -0.16504440931E+03 -0.30502669649E+03  0.36720403020E+03  0.47000000000E+01 0. -1.
        -13    1    4    4    0    0  0.64764353192E+02 -0.23255155368E+02 -0.14609090778E+03  0.16148615120E+03  0.00000000000E+00 0.  1.
         14    1    4    4    0    0  0.67464019490E+02 -0.12152121586E+02 -0.28294907825E+02  0.74159758586E+02  0.00000000000E+00 0. -1.
         -5    1    5    5    0  502 -0.96670539985E+02  0.61578421582E+02 -0.14460665572E+03  0.18458133758E+03  0.47000000000E+01 0.  1.
         11    1    6    6    0    0 -0.94277435305E+02  0.86242585449E+02 -0.55875150659E+02  0.13945626846E+03  0.00000000000E+00 0. -1.
        -12    1    6    6    0    0 -0.61844766815E+02  0.52630679233E+02  0.19786783937E+02  0.83583972133E+02  0.00000000000E+00 0.  1.
</event>
<event>
12    1  0.1050869E+000  0.2098843E+03  0.7818608E-02  0.1141694E+00
         21   -1    0    0  503  502  0.00000000000E+00  0.00000000000E+00  0.89565225440E+02  0.89565225440E+02  0.00000000000E+00 0.  1.
         21   -1    0    0  501  503 -0.00000000000E+00 -0.00000000000E+00 -0.55688963187E+03  0.55688963187E+03  0.00000000000E+00 0.  1.
          6    2    1    2  501    0  0.77511491987E+02 -0.91302618073E+02 -0.34458706211E+03  0.40347449812E+03  0.17235784811E+03 0.  0.
         24    2    3    3    0    0  0.11463679912E+03 -0.70984519684E+02 -0.31388001732E+03  0.35097567764E+03  0.80516229892E+02 0.  0.
         -6    2    1    2    0  502 -0.77511491987E+02  0.91302618073E+02 -0.12273734433E+03  0.24298035919E+03  0.17213599218E+03 0.  0.
        -24    2    5    5    0    0 -0.92349165243E+02  0.18087959891E+02 -0.11398722443E+03  0.16761990989E+03  0.79043053109E+02 0.  0.
          5    1    3    3  501    0 -0.37125307138E+02 -0.20318098389E+02 -0.30707044792E+02  0.52498820483E+02  0.47000000000E+01 0. -1.
        -11    1    4    4    0    0  0.51689501484E+02  0.44796344795E+01 -0.16173682665E+03  0.16985485799E+03  0.00000000000E+00 0.  1.
         12    1    4    4    0    0  0.62947297641E+02 -0.75464154163E+02 -0.15214319067E+03  0.18112081965E+03  0.00000000000E+00 0. -1.
         -5    1    5    5    0  502  0.14837673257E+02  0.73214658181E+02 -0.87501198949E+01  0.75360449298E+02  0.47000000000E+01 0.  1.
         13    1    6    6    0    0 -0.10400137073E+02 -0.19777092451E+02 -0.56084533860E+02  0.60371940298E+02  0.00000000000E+00 0. -1.
        -14    1    6    6    0    0 -0.81949028171E+02  0.37865052342E+02 -0.57902690571E+02  0.10724796960E+03  0.00000000000E+00 0.  1.
</event>
<event>
12    1  0.1050869E+000  0.2598573E+03  0.7818608E-02  0.1107543E+00
         21   -1    0    0  501  502  0.00000000000E+00  0.00000000000E+00  0.12368657741E+03  0.12368657741E+03  0.00000000000E+00 0.  1.
         21   -1    0    0  502  503 -0.00000000000E+00 -0.00000000000E+00 -0.10443469646E+04  0.10443469646E+04  0.00000000000E+00 0.  1.
         -6    2    1    2    0  503 -0.10552749167E+03 -0.16243707907E+03 -0.56075256294E+02  0.26583876834E+03  0.17321651258E+03 0.  0.
        -24    2    3    3    0    0 -0.78131629301E+02 -0.10436534900E+03  0.33224760793E+02  0.15575043036E+03  0.78470594859E+02 0.  0.
          6    2    1    2  501    0  0.10552749167E+03  0.16243707907E+03 -0.86458513089E+03  0.90219477367E+03  0.17007676187E+03 0.  0.
         24    2    5    5    0    0  0.17531750028E+02  0.10545134771E+02 -0.24509810440E+03  0.25829984492E+03  0.78912400643E+02 0.  0.
          5    1    5    5  501    0  0.87995741646E+02  0.15189194429E+03 -0.61948702649E+03  0.64389492876E+03  0.47000000000E+01 0. -1.
        -11    1    6    6    0    0 -0.27430518088E+02 -0.12701674586E+02 -0.10822948048E+03  0.11237164369E+03  0.00000000000E+00 0.  1.
         12    1    6    6    0    0  0.44962268116E+02  0.23246809357E+02 -0.13686862392E+03  0.14592820123E+03  0.00000000000E+00 0. -1.
         -5    1    3    3    0  503 -0.27395862373E+02 -0.58071730067E+02 -0.89300017087E+02  0.11008833798E+03  0.47000000000E+01 0.  1.
         13    1    4    4    0    0 -0.47944437657E+02 -0.29200772933E+02 -0.19126100213E+02  0.59305665425E+02  0.00000000000E+00 0. -1.
        -14    1    4    4    0    0 -0.30187191644E+02 -0.75164576065E+02  0.52350861006E+02  0.96444764931E+02  0.00000000000E+00 0.  1.
</event>
<event>
12    1  0.1050869E+000  0.1961850E+03  0.7818608E-02  0.1153711E+00
         21   -1    0    0  501  502  0.00000000000E+00  0.00000000000E+00  0.36532665164E+03  0.36532665164E+03  0.00000000000E+00 0. -1.
         21   -1    0    0  502  503 -0.00000000000E+00 -0.00000000000E+00 -0.11183371742E+03  0.11183371742E+03  0.00000000000E+00 0. -1.
         -6    2    1    2    0  503  0.85706135863E+02 -0.22684715216E+02  0.19243779847E+03  0.27481056087E+03  0.17500971418E+03 0.  0.
        -24    2    3    3    0    0  0.92540604319E+02  0.30914742496E+02  0.78778555223E+02  0.14887357106E+03  0.80235868832E+02 0.  0.
          6    2    1    2  501    0 -0.85706135863E+02  0.22684715216E+02  0.61055135755E+02  0.20234980819E+03  0.17134053006E+03 0.  0.
         24    2    5    5    0    0 -0.11103383073E+03  0.17445996545E+02  0.88675189078E+02  0.16421985086E+03  0.80448715938E+02 0.  0.
          5    1    5    5  501    0  0.25327694864E+02  0.52387186708E+01 -0.27620053323E+02  0.38129957330E+02  0.47000000000E+01 0. -1.
        -11    1    6    6    0    0 -0.36123577261E+02 -0.31325392938E+02  0.40588080041E+02  0.62718301302E+02  0.00000000000E+00 0.  1.
         12    1    6    6    0    0 -0.74910253465E+02  0.48771389483E+02  0.48087109037E+02  0.10150154955E+03  0.00000000000E+00 0. -1.
         -5    1    3    3    0  503 -0.68344684561E+01 -0.53599457713E+02  0.11365924324E+03  0.12593698980E+03  0.47000000000E+01 0.  1.
         13    1    4    4    0    0 -0.98459600629E+00  0.32523670440E+02  0.24458858752E+02  0.40706195347E+02  0.00000000000E+00 0. -1.
        -14    1    4    4    0    0  0.93525200325E+02 -0.16089279433E+01  0.54319696471E+02  0.10816737572E+03  0.00000000000E+00 0.  1.
</event>
<event>
12    1  0.1050869E+000  0.1736595E+03  0.7818608E-02  0.1174344E+00
         21   -1    0    0  501  502  0.00000000000E+00  0.00000000000E+00  0.18440473102E+03  0.18440473102E+03  0.00000000000E+00 0. -1.
         21   -1    0    0  502  503 -0.00000000000E+00 -0.00000000000E+00 -0.16260030661E+03  0.16260030661E+03  0.00000000000E+00 0. -1.
         -6    2    1    2    0  503  0.18231068490E+02  0.12755058102E+02  0.12826135015E+02  0.17413248465E+03  0.17222818905E+03 0.  0.
        -24    2    3    3    0    0 -0.97275060555E+01  0.14422809907E+02 -0.56688109905E+02  0.99040650646E+02  0.79327592023E+02 0.  0.
          6    2    1    2  501    0 -0.18231068490E+02 -0.12755058102E+02  0.89782893932E+01  0.17287255299E+03  0.17119943496E+03 0.  0.
         24    2    5    5    0    0 -0.36012151960E+01 -0.24236340643E+01 -0.60247782678E+02  0.10121287127E+03  0.81212112638E+02 0.  0.
          5    1    5    5  501    0 -0.14629853294E+02 -0.10331424038E+02  0.69226072072E+02  0.71659681722E+02  0.47000000000E+01 0. -1.
        -13    1    6    6    0    0 -0.33467303292E+02 -0.25773343612E+02 -0.23140547962E+02  0.48164412075E+02  0.00000000000E+00 0.  1.
         14    1    6    6    0    0  0.29866088096E+02  0.23349709548E+02 -0.37107234716E+02  0.53048459190E+02  0.00000000000E+00 0. -1.
         -5    1    3    3    0  503  0.27958574546E+02 -0.16677518048E+01  0.69514244920E+02  0.75091834000E+02  0.47000000000E+01 0.  1.
         11    1    4    4    0    0  0.25571714627E+02 -0.18690842792E+02 -0.30674368519E+02  0.44092823422E+02  0.00000000000E+00 0. -1.
        -12    1    4    4    0    0 -0.35299220683E+02  0.33113652698E+02 -0.26013741385E+02  0.54947827225E+02  0.00000000000E+00 0.  1.
</event>
<event>
12    1  0.1050869E+000  0.2097527E+03  0.7818608E-02  0.1141826E+00
         21   -1    0    0  503  502  0.00000000000E+00  0.00000000000E+00  0.23037268482E+03  0.23037268482E+03  0.00000000000E+00 0. -1.
         21   -1    0    0  501  503 -0.00000000000E+00 -0.00000000000E+00 -0.19205833966E+03  0.19205833966E+03  0.00000000000E+00 0. -1.
          6    2    1    2  501    0 -0.82475886557E+02  0.87912745229E+02  0.12702946061E+01  0.20943232403E+03  0.17125817371E+03 0.  0.
         24    2    3    3    0    0  0.18478668755E+02  0.23417116130E+02 -0.19953229953E+02  0.87678324481E+02  0.79997091644E+02 0.  0.
         -6    2    1    2    0  502  0.82475886557E+02 -0.87912745229E+02  0.37044050550E+02  0.21299870045E+03  0.17165448457E+03 0.  0.
        -24    2    5    5    0    0  0.72918854125E+02 -0.14683893842E+02 -0.32569654286E+02  0.11140165598E+03  0.76267755630E+02 0.  0.
          5    1    3    3  501    0 -0.10095455531E+03  0.64495629099E+02  0.21223524559E+02  0.12175399955E+03  0.47000000000E+01 0. -1.
        -13    1    4    4    0    0 -0.19173105896E+02 -0.20113751540E+02 -0.53293097737E+01  0.28294390493E+02  0.00000000000E+00 0.  1.
         14    1    4    4    0    0  0.37651774651E+02  0.43530867670E+02 -0.14623920179E+02  0.59383933988E+02  0.00000000000E+00 0. -1.
         -5    1    5    5    0  502  0.95570324327E+01 -0.73228851387E+02  0.69613704836E+02  0.10159704447E+03  0.47000000000E+01 0.  1.
         11    1    6    6    0    0  0.37252982370E+02 -0.13220493829E+02  0.22717590034E+02  0.45592269624E+02  0.00000000000E+00 0. -1.
        -12    1    6    6    0    0  0.35665871754E+02 -0.14634000132E+01 -0.55287244320E+02  0.65809386352E+02  0.00000000000E+00 0.  1.
</event>
<event>
12    1  0.1050869E+000  0.1871947E+03  0.7818608E-02  0.1161162E+00
         21   -1    0    0  501  502  0.00000000000E+00  0.00000000000E+00  0.92016559804E+02  0.92016559804E+02  0.00000000000E+00 0.  1.
         21   -1    0    0  502  503 -0.00000000000E+00 -0.00000000000E+00 -0.48175544878E+03  0.48175544878E+03  0.00000000000E+00 0.  1.
         -6    2    1    2    0  503  0.39913341160E+02  0.58863543650E+02 -0.62980033373E+02  0.19750533211E+03  0.17315854017E+03 0.  0.
        -24    2    3    3    0    0  0.10288425471E+01  0.85120672043E+02 -0.85043403744E+02  0.14544456630E+03  0.81701615779E+02 0.  0.
          6    2    1    2  501    0 -0.39913341160E+02 -0.58863543650E+02 -0.32675885561E+03  0.37626667648E+03  0.17247397061E+03 0.  0.
         24    2    5    5    0    0 -0.19378862301E+02 -0.10588250067E+03 -0.21556413603E+03  0.25371545126E+03  0.79479489257E+02 0.  0.
          5    1    5    5  501    0 -0.20534478859E+02  0.47018957024E+02 -0.11119471957E+03  0.12255122522E+03  0.47000000000E+01 0. -1.
        -11    1    6    6    0    0 -0.17581628709E+02 -0.23263836641E+02 -0.13568043610E+03  0.13877860247E+03  0.00000000000E+00 0.  1.
         12    1    6    6    0    0 -0.17972335921E+01 -0.82618664033E+02 -0.79883699931E+02  0.11493684879E+03  0.00000000000E+00 0. -1.
         -5    1    3    3    0  503  0.38884498613E+02 -0.26257128392E+02  0.22063370371E+02  0.52060765802E+02  0.47000000000E+01 0.  1.
         11    1    4    4    0    0 -0.93060529157E+01  0.19011315932E+02  0.14388968456E+02  0.25594436262E+02  0.00000000000E+00 0. -1.
        -12    1    4    4    0    0  0.10334895463E+02  0.66109356111E+02 -0.99432372201E+02  0.11985013004E+03  0.00000000000E+00 0.  1.
</event>
<event>
12    1  0.1050869E+000  0.1926664E+03  0.7818608E-02  0.1156355E+00
         21   -1    0    0  501  502  0.00000000000E+00  0.00000000000E+00  0.89838441784E+03  0.89838441784E+03  0.00000000000E+00 0.  1.
         21   -1    0    0  502  503 -0.00000000000E+00 -0.00000000000E+00 -0.49275188236E+02  0.49275188236E+02  0.00000000000E+00 0.  1.
         -6    2    1    2    0  503  0.51947250872E+02 -0.69344383843E+02  0.61926550720E+03  0.64854460347E+03  0.17208478677E+03 0.  0.
        -24    2    3    3    0    0  0.25638558608E+00  0.13200968269E+02  0.16297213083E+03  0.18194904409E+03  0.79819846674E+02 0.  0.
          6    2    1    2  501    0 -0.51947250872E+02  0.69344383843E+02  0.22984372240E+03  0.29911500260E+03  0.17068827614E+03 0.  0.
         24    2    5    5    0    0 -0.21480271594E+02  0.16897955643E+02  0.35312457451E+02  0.95293100688E+02  0.84183504410E+02 0.  0.
          5    1    5    5  501    0 -0.30466979278E+02  0.52446428201E+02  0.19453126495E+03  0.20382190192E+03  0.47000000000E+01 0. -1.
        -11    1    6    6    0    0  0.26376861817E+01  0.55637115978E+00  0.58189229201E+02  0.58251638022E+02  0.00000000000E+00 0.  1.
         12    1    6    6    0    0 -0.24117957776E+02  0.16341584483E+02 -0.22876771750E+02  0.37041462665E+02  0.00000000000E+00 0. -1.
         -5    1    3    3    0  503  0.51690865286E+02 -0.82545352113E+02  0.45629337638E+03  0.46659555938E+03  0.47000000000E+01 0.  1.
         13    1    4    4    0    0 -0.19544945139E+02 -0.27510391476E+02  0.89481066063E+02  0.95633088957E+02  0.00000000000E+00 0. -1.
        -14    1    4    4    0    0  0.19801330725E+02  0.40711359745E+02  0.73491064763E+02  0.86315955135E+02  0.00000000000E+00 0.  1.
</event>
<event>
12    1  0.1050869E+000  0.4283541E+03  0.7818608E-02  0.1034482E+00
         21   -1    0    0  501  502  0.00000000000E+00  0.00000000000E+00  0.10959614423E+04  0.10959614423E+04  0.00000000000E+00 0. -1.
         21   -1    0    0  502  503 -0.00000000000E+00 -0.00000000000E+00 -0.16790206302E+03  0.16790206302E+03  0.00000000000E+00 0. -1.
         -6    2    1    2    0  503  0.32909899095E+03  0.21029707963E+03  0.51295021009E+03  0.66828522871E+03  0.17594380165E+03 0.  0.
        -24    2    3    3    0    0  0.27006179766E+03  0.21411557189E+03  0.49088715125E+03  0.60496983059E+03  0.78990176428E+02 0.  0.
          6    2    1    2  501    0 -0.32909899095E+03 -0.21029707963E+03  0.41510916917E+03  0.59557827658E+03  0.17282029297E+03 0.  0.
         24    2    5    5    0    0 -0.10592736933E+03 -0.13096098014E+03  0.14523470959E+03  0.23647647582E+03  0.80353076187E+02 0.  0.
          5    1    5    5  501    0 -0.22317162162E+03 -0.79336099489E+02  0.26987445958E+03  0.35910180077E+03  0.47000000000E+01 0. -1.
        -11    1    6    6    0    0 -0.44920026437E+01 -0.38408519751E+02  0.69826156972E+02  0.79819074630E+02  0.00000000000E+00 0.  1.
         12    1    6    6    0    0 -0.10143536669E+03 -0.92552460386E+02  0.75408552617E+02  0.15665740119E+03  0.00000000000E+00 0. -1.
         -5    1    3    3    0  503  0.59037193287E+02 -0.38184922628E+01  0.22063058834E+02  0.63315398124E+02  0.47000000000E+01 0.  1.
         13    1    4    4    0    0  0.19164113796E+03  0.10343343368E+03  0.29360182305E+03  0.36555003961E+03  0.00000000000E+00 0. -1.
        -14    1    4    4    0    0  0.78420659706E+02  0.11068213821E+03  0.19728532820E+03  0.23941979098E+03  0.00000000000E+00 0.  1.
</event>
<event>
12    1  0.1050869E+000  0.2520140E+03  0.7818608E-02  0.1112121E+00
         21   -1    0    0  503  502  0.00000000000E+00  0.00000000000E+00  0.11111923126E+04  0.11111923126E+04  0.00000000000E+00 0.  1.
         21   -1    0    0  501  503 -0.00000000000E+00 -0.00000000000E+00 -0.67976492238E+02  0.67976492238E+02  0.00000000000E+00 0.  1.
          6    2    1    2  501    0  0.19573098489E+02  0.18303011499E+03  0.28463141383E+03  0.37981822522E+03  0.17135843514E+03 0.  0.
         24    2    3    3    0    0  0.13461878696E+02  0.28497989698E+02  0.15927144551E+03  0.18068325488E+03  0.79282328705E+02 0.  0.
         -6    2    1    2    0  502 -0.19573098489E+02 -0.18303011499E+03  0.75858440657E+03  0.79935057966E+03  0.17212762164E+03 0.  0.
        -24    2    5    5    0    0 -0.62540120749E+02 -0.17248556649E+03  0.52536111354E+03  0.56192154412E+03  0.78031947133E+02 0.  0.
          5    1    3    3  501    0  0.61112197930E+01  0.15453212529E+03  0.12535996832E+03  0.19913497034E+03  0.47000000000E+01 0. -1.
        -13    1    4    4    0    0  0.42706653175E+02  0.12124002024E+02  0.12542449114E+03  0.13304943678E+03  0.00000000000E+00 0.  1.
         14    1    4    4    0    0 -0.29244774479E+02  0.16373987674E+02  0.33846954377E+02  0.47633818106E+02  0.00000000000E+00 0. -1.
         -5    1    5    5    0  502  0.42967022260E+02 -0.10544548494E+02  0.23322329303E+03  0.23742903554E+03  0.47000000000E+01 0.  1.
         13    1    6    6    0    0 -0.16609814860E+02 -0.79026234564E+02  0.12968846388E+03  0.15277476678E+03  0.00000000000E+00 0. -1.
        -14    1    6    6    0    0 -0.45930305889E+02 -0.93459331930E+02  0.39567264966E+03  0.40914677735E+03  0.00000000000E+00 0.  1.
</event>
<event>
12    1  0.1050869E+000  0.5720619E+03  0.7818608E-02  0.9965370E-01
         21   -1    0    0  501  502  0.00000000000E+00  0.00000000000E+00  0.81251181738E+03  0.81251181738E+03  0.00000000000E+00 0.  1.
         21   -1    0    0  502  503 -0.00000000000E+00 -0.00000000000E+00 -0.41234125918E+03  0.41234125918E+03  0.00000000000E+00 0.  1.
         -6    2    1    2    0  503 -0.54523304793E+03 -0.13618480247E+02  0.29482384700E+03  0.64317206943E+03  0.17112764410E+03 0.  0.
        -24    2    3    3    0    0 -0.31222299949E+03  0.63731585309E+02  0.16860097093E+03  0.36707241394E+03  0.69072087738E+02 0.  0.
          6    2    1    2  501    0  0.54523304793E+03  0.13618480247E+02  0.10534671121E+03  0.58168100713E+03  0.17259873969E+03 0.  0.
         24    2    5    5    0    0  0.41450790621E+03 -0.27428492526E+02  0.26575533605E+02  0.42356426207E+03  0.78302609134E+02 0.  0.
          5    1    5    5  501    0  0.13072514171E+03  0.41046972773E+02  0.78771177603E+02  0.15811674507E+03  0.47000000000E+01 0. -1.
        -13    1    6    6    0    0  0.34348887075E+02  0.16298457206E+02  0.14553749370E+02  0.40709917358E+02  0.00000000000E+00 0.  1.
         14    1    6    6    0    0  0.38015901914E+03 -0.43726949733E+02  0.12021784235E+02  0.38285434471E+03  0.00000000000E+00 0. -1.
         -5    1    3    3    0  503 -0.23301004844E+03 -0.77350065556E+02  0.12622287607E+03  0.27609965548E+03  0.47000000000E+01 0.  1.
         13    1    4    4    0    0 -0.25369816819E+03  0.24079910318E+02  0.14046818497E+03  0.29098782382E+03  0.00000000000E+00 0. -1.
        -14    1    4    4    0    0 -0.58524831303E+02  0.39651674991E+02  0.28132785955E+02  0.76084590123E+02  0.00000000000E+00 0.  1.
</event>
<event>
12    1  0.1050869E+000  0.1834669E+03  0.7818608E-02  0.1164514E+00
         21   -1    0    0  501  502  0.00000000000E+00  0.00000000000E+00  0.13723277452E+04  0.13723277452E+04  0.00000000000E+00 0. -1.
         21   -1    0    0  502  503 -0.00000000000E+00 -0.00000000000E+00 -0.25332152103E+02  0.25332152103E+02  0.00000000000E+00 0. -1.
         -6    2    1    2    0  503  0.44541337771E+02  0.44294028331E+02  0.54809240709E+03  0.57798390511E+03  0.17237811967E+03 0.  0.
        -24    2    3    3    0    0 -0.26249359370E+02  0.27626272914E+02  0.43091775477E+03  0.43999431848E+03  0.80328382878E+02 0.  0.
          6    2    1    2  501    0 -0.44541337771E+02 -0.44294028331E+02  0.79890318601E+03  0.81967599219E+03  0.17226880114E+03 0.  0.
         24    2    5    5    0    0 -0.87506146153E+02 -0.57420275109E+02  0.64356926232E+03  0.65790766723E+03  0.87787753041E+02 0.  0.
          5    1    5    5  501    0  0.42964808382E+02  0.13126246779E+02  0.15533392369E+03  0.16176832496E+03  0.47000000000E+01 0. -1.
        -13    1    6    6    0    0 -0.74686212011E+02 -0.10751071787E+01  0.28078630041E+03  0.29055142852E+03  0.00000000000E+00 0.  1.
         14    1    6    6    0    0 -0.12819934142E+02 -0.56345167931E+02  0.36278296191E+03  0.36735623870E+03  0.00000000000E+00 0. -1.
         -5    1    3    3    0  503  0.70790697141E+02  0.16667755417E+02  0.11717465231E+03  0.13798958663E+03  0.47000000000E+01 0.  1.
         13    1    4    4    0    0  0.20029534906E+02  0.20006958365E+02  0.62619254541E+02  0.68721406351E+02  0.00000000000E+00 0. -1.
        -14    1    4    4    0    0 -0.46278894275E+02  0.76193145487E+01  0.36829850023E+03  0.37127291213E+03  0.00000000000E+00 0.  1.
</event>
<event>
12    1  0.1050869E+000  0.2065840E+03  0.7818608E-02  0.1144735E+00
         21   -1    0    0  501  502  0.00000000000E+00  0.00000000000E+00  0.16932987352E+03  0.16932987352E+03  0.00000000000E+00 0. -1.
         21   -1    0    0  502  503 -0.00000000000E+00 -0.00000000000E+00 -0.27534014441E+03  0.27534014441E+03  0.00000000000E+00 0. -1.
         -6    2    1    2    0  503  0.11227127044E+03  0.13572479836E+02 -0.12145532129E+03  0.23964211783E+03  0.17288117073E+03 0.  0.
        -24    2    3    3    0    0  0.12146467174E+03  0.30633121241E+02 -0.14446049062E+03  0.20919688949E+03  0.84867252961E+02 0.  0.
          6    2    1    2  501    0 -0.11227127044E+03 -0.13572479836E+02  0.15445050403E+02  0.20502790010E+03  0.17031981641E+03 0.  0.
         24    2    5    5    0    0 -0.12346999984E+03  0.60164295732E+01  0.56448902889E+02  0.15799022551E+03  0.80581601096E+02 0.  0.
          5    1    5    5  501    0  0.11198729397E+02 -0.19588909409E+02 -0.41003852487E+02  0.47037674588E+02  0.47000000000E+01 0. -1.
        -13    1    6    6    0    0 -0.10302076451E+03  0.15362766761E+01  0.58112993878E+01  0.10319597505E+03  0.00000000000E+00 0.  1.
         14    1    6    6    0    0 -0.20449235333E+02  0.44801528971E+01  0.50637603501E+02  0.54794250465E+02  0.00000000000E+00 0. -1.
         -5    1    3    3    0  503 -0.91934012987E+01 -0.17060641406E+02  0.23005169329E+02  0.30445228337E+02  0.47000000000E+01 0.  1.
         11    1    4    4    0    0  0.11952471204E+02 -0.22479523493E+02 -0.46282847051E+02  0.52823219095E+02  0.00000000000E+00 0. -1.
        -12    1    4    4    0    0  0.10951220054E+03  0.53112644734E+02 -0.98177643568E+02  0.15637367040E+03  0.00000000000E+00 0.  1.
</event>
<event>
12    1  0.1050869E+000  0.1917035E+03  0.7818608E-02  0.1157137E+00
         21   -1    0    0  503  502  0.00000000000E+00  0.00000000000E+00  0.33213690633E+03  0.33213690633E+03  0.00000000000E+00 0. -1.
         21   -1    0    0  501  503 -0.00000000000E+00 -0.00000000000E+00 -0.19340834411E+03  0.19340834411E+03  0.00000000000E+00 0. -1.
          6    2    1    2  501    0  0.60835217335E+02 -0.58986690632E+02  0.24170442755E+03  0.30793492476E+03  0.17094599805E+03 0.  0.
         24    2    3    3    0    0  0.28651429073E+02 -0.99883527136E+02  0.20717133417E+03  0.24530129161E+03  0.80343877075E+02 0.  0.
         -6    2    1    2    0  502 -0.60835217335E+02  0.58986690632E+02 -0.10297586533E+03  0.21761032569E+03  0.17195892436E+03 0.  0.
        -24    2    5    5    0    0  0.37665672052E+01  0.62425998972E+02 -0.11328504033E+03  0.15193241086E+03  0.79616359691E+02 0.  0.
          5    1    3    3  501    0  0.32183788262E+02  0.40896836504E+02  0.34533093381E+02  0.62633633148E+02  0.47000000000E+01 0. -1.
        -11    1    4    4    0    0  0.43471380326E+02 -0.46284983640E+02  0.57616188528E+02  0.85741972210E+02  0.00000000000E+00 0.  1.
         12    1    4    4    0    0 -0.14819951252E+02 -0.53598543496E+02  0.14955514564E+03  0.15955931940E+03  0.00000000000E+00 0. -1.
         -5    1    5    5    0  502 -0.64601784540E+02 -0.34393083405E+01  0.10309174996E+02  0.65677914832E+02  0.47000000000E+01 0.  1.
         11    1    6    6    0    0  0.74719168459E+01  0.52761126080E+02 -0.18236186231E+02  0.56321616230E+02  0.00000000000E+00 0. -1.
        -12    1    6    6    0    0 -0.37053496407E+01  0.96648728927E+01 -0.95048854096E+02  0.95610794625E+02  0.00000000000E+00 0.  1.
</event>
<event>
12    1  0.1050869E+000  0.3423223E+03  0.7818608E-02  0.1065871E+00
         21   -1    0    0  501  502  0.00000000000E+00  0.00000000000E+00  0.15960759709E+03  0.15960759709E+03  0.00000000000E+00 0. -1.
         21   -1    0    0  502  503 -0.00000000000E+00 -0.00000000000E+00 -0.73645631033E+03  0.73645631033E+03  0.00000000000E+00 0. -1.
         -6    2    1    2    0  503  0.14735283168E+03 -0.25630635617E+03 -0.31891560200E+03  0.46744513599E+03  0.17144091911E+03 0.  0.
        -24    2    3    3    0    0  0.74132752134E+02 -0.22092174981E+03 -0.29109041197E+03  0.38136620932E+03  0.80027952593E+02 0.  0.
          6    2    1    2  501    0 -0.14735283168E+03  0.25630635617E+03 -0.25793311125E+03  0.42861877143E+03  0.17256522283E+03 0.  0.
         24    2    5    5    0    0 -0.14517595998E+03  0.12109939962E+03 -0.13690292487E+03  0.24708074268E+03  0.81026900593E+02 0.  0.
          5    1    5    5  501    0 -0.21768716949E+01  0.13520695655E+03 -0.12103018637E+03  0.18153802875E+03  0.47000000000E+01 0. -1.
        -13    1    6    6    0    0 -0.45969489984E+02  0.71464264782E+02 -0.97568535343E+02  0.12938297507E+03  0.00000000000E+00 0.  1.
         14    1    6    6    0    0 -0.99206469997E+02  0.49635134841E+02 -0.39334389531E+02  0.11769776761E+03  0.00000000000E+00 0. -1.
         -5    1    3    3    0  503  0.73220079543E+02 -0.35384606365E+02 -0.27825190025E+02  0.86078926665E+02  0.47000000000E+01 0.  1.
         11    1    4    4    0    0  0.51232605554E+01 -0.43027460038E+02 -0.15200228911E+02  0.45920116234E+02  0.00000000000E+00 0. -1.
        -12    1    4    4    0    0  0.69009491578E+02 -0.17789428977E+03 -0.27589018306E+03  0.33544609309E+03  0.00000000000E+00 0.  1.
</event>
<event>
12    1  0.1050869E+000  0.2086036E+03  0.7818608E-02  0.1142827E+00
         21   -1    0    0  501  502  0.00000000000E+00  0.00000000000E+00  0.11235403804E+03  0.11235403804E+03  0.00000000000E+00 0. -1.
         21   -1    0    0  502  503 -0.00000000000E+00 -0.00000000000E+00 -0.38680208808E+03  0.38680208808E+03  0.00000000000E+00 0. -1.
         -6    2    1    2    0  503 -0.11170446708E+03 -0.36157252619E+02 -0.12549266693E+03  0.24344168762E+03  0.17242450793E+03 0.  0.
        -24    2    3    3    0    0 -0.43319147842E+02  0.46257622550E+00 -0.53236337606E+01  0.10033246260E+03  0.90341017422E+02 0.  0.
          6    2    1    2  501    0  0.11170446708E+03  0.36157252619E+02 -0.14895538311E+03  0.25571443849E+03  0.17151365256E+03 0.  0.
         24    2    5    5    0    0  0.62932249088E+02 -0.21154335381E+02 -0.18951278844E+02  0.10542636680E+03  0.79671789027E+02 0.  0.
          5    1    5    5  501    0  0.48772217995E+02  0.57311588000E+02 -0.13000410426E+03  0.15028807169E+03  0.47000000000E+01 0. -1.
        -13    1    6    6    0    0  0.18385656025E+02  0.19450631528E+02 -0.34028889170E+02  0.43293471938E+02  0.00000000000E+00 0.  1.
         14    1    6    6    0    0  0.44546593063E+02 -0.40604966909E+02  0.15077610325E+02  0.62132894865E+02  0.00000000000E+00 0. -1.
         -5    1    3    3    0  503 -0.68385319241E+02 -0.36619828845E+02 -0.12016903317E+03  0.14310922502E+03  0.47000000000E+01 0.  1.
         13    1    4    4    0    0  0.10915322580E+02  0.27915252215E+02 -0.22138603119E+02  0.37262894699E+02  0.00000000000E+00 0. -1.
        -14    1    4    4    0    0 -0.54234470422E+02 -0.27452675990E+02  0.16814969358E+02  0.63069567903E+02  0.00000000000E+00 0.  1.
</event>
<event>
12    1  0.1050869E+000  0.2964509E+03  0.7818608E-02  0.1087173E+00
         21   -1    0    0  501  502  0.00000000000E+00  0.00000000000E+00  0.13312231445E+04  0.13312231445E+04  0.00000000000E+00 0. -1.
         21   -1    0    0  502  503 -0.00000000000E+00 -0.00000000000E+00 -0.66566726712E+02  0.66566726712E+02  0.00000000000E+00 0. -1.
         -6    2    1    2    0  503  0.90006430731E+02  0.22368410001E+03  0.55673546560E+03  0.63074361435E+03  0.17247432915E+03 0.  0.
        -24    2    3    3    0    0  0.22313069859E+02  0.10041401524E+03  0.14141302973E+03  0.19223167535E+03  0.79840619290E+02 0.  0.
          6    2    1    2  501    0 -0.90006430731E+02 -0.22368410001E+03  0.70792095217E+03  0.76704625684E+03  0.17050557601E+03 0.  0.
         24    2    5    5    0    0 -0.11041432730E+03 -0.12167358293E+03  0.34417497289E+03  0.38868683080E+03  0.75001706762E+02 0.  0.
          5    1    5    5  501    0  0.20407896565E+02 -0.10201051708E+03  0.36374597927E+03  0.37835942604E+03  0.47000000000E+01 0. -1.
        -13    1    6    6    0    0 -0.98084669680E+02 -0.12682415790E+03  0.33772553233E+03  0.37384957489E+03  0.00000000000E+00 0.  1.
         14    1    6    6    0    0 -0.12329657615E+02  0.51505749751E+01  0.64494405597E+01  0.14837255913E+02  0.00000000000E+00 0. -1.
         -5    1    3    3    0  503  0.67693360872E+02  0.12327008477E+03  0.41532243587E+03  0.43851193899E+03  0.47000000000E+01 0.  1.
         11    1    4    4    0    0  0.48854242049E+02  0.85159275983E+02  0.11910550643E+03  0.15435336379E+03  0.00000000000E+00 0. -1.
        -12    1    4    4    0    0 -0.26541172190E+02  0.15254739256E+02  0.22307523306E+02  0.37878311565E+02  0.00000000000E+00 0.  1.
</event>
<event>
12    1  0.1050869E+000  0.1777426E+03  0.7818608E-02  0.1170086E+00
         21   -1    0    0  501  502  0.00000000000E+00  0.00000000000E+00  0.21955665537E+04  0.21955665537E+04  0.00000000000E+00 0. -1.
         21   -1    0    0  502  503 -0.00000000000E+00 -0.00000000000E+00 -0.14976800569E+02  0.14976800569E+02  0.00000000000E+00 0. -1.
         -6    2    1    2    0  503  0.24425589469E+02  0.44243450242E+02  0.86551563773E+03  0.88351194408E+03  0.17006452852E+03 0.  0.
        -24    2    3    3    0    0  0.82134566088E+02  0.12316287850E+02  0.50111988477E+03  0.51316612669E+03  0.72942146784E+02 0.  0.
          6    2    1    2  501    0 -0.24425589469E+02 -0.44243450242E+02  0.13150741154E+04  0.13270314102E+04  0.17040640342E+03 0.  0.
         24    2    5    5    0    0 -0.99945345624E+01 -0.85928421087E+02  0.64726220217E+03  0.65774766350E+03  0.78740372123E+02 0.  0.
          5    1    5    5  501    0 -0.14431054906E+02  0.41684970845E+02  0.66781191320E+03  0.66928374666E+03  0.47000000000E+01 0. -1.
        -11    1    6    6    0    0  0.31874092152E+02 -0.19355768399E+02  0.16926873078E+03  0.17332774371E+03  0.00000000000E+00 0.  1.
         12    1    6    6    0    0 -0.41868626714E+02 -0.66572652688E+02  0.47799347139E+03  0.48441991978E+03  0.00000000000E+00 0. -1.
         -5    1    3    3    0  503 -0.57708976620E+02  0.31927162392E+02  0.36439575297E+03  0.37034581740E+03  0.47000000000E+01 0.  1.
         13    1    4    4    0    0  0.47067626198E+02  0.26367599359E+02  0.42261524504E+03  0.42604490030E+03  0.00000000000E+00 0. -1.
        -14    1    4    4    0    0  0.35066939891E+02 -0.14051311510E+02  0.78504639725E+02  0.87121226385E+02  0.00000000000E+00 0.  1.
</event>
<event>
12    1  0.1050869E+000  0.2282043E+03  0.7818608E-02  0.1127912E+00
         21   -1    0    0  501  502  0.00000000000E+00  0.00000000000E+00  0.21900095310E+04  0.21900095310E+04  0.00000000000E+00 0. -1.
         21   -1    0    0  502  503 -0.00000000000E+00 -0.00000000000E+00 -0.30140301115E+02  0.30140301115E+02  0.00000000000E+00 0. -1.
         -6    2    1    2    0  503  0.84603681380E+02  0.12387682694E+03  0.15899694273E+04  0.16062627376E+04  0.17197078575E+03 0.  0.
        -24    2    3    3    0    0  0.72961116983E+02  0.10612724486E+03  0.15680560764E+04  0.15753939521E+04  0.80498005040E+02 0.  0.
          6    2    1    2  501    0 -0.84603681380E+02 -0.12387682694E+03  0.56989980260E+03  0.61388709457E+03  0.17195443794E+03 0.  0.
         24    2    5    5    0    0 -0.84616014069E+02 -0.14316219258E+03  0.37053348401E+03  0.41353504325E+03  0.77851692385E+02 0.  0.
          5    1    5    5  501    0  0.12332689018E-01  0.19285365637E+02  0.19936631859E+03  0.20035205132E+03  0.47000000000E+01 0. -1.
        -13    1    6    6    0    0  0.96649657083E+01 -0.49345085152E+02  0.90871454230E+02  0.10385552554E+03  0.00000000000E+00 0.  1.
         14    1    6    6    0    0 -0.94280979777E+02 -0.93817107426E+02  0.27966202978E+03  0.30967951771E+03  0.00000000000E+00 0. -1.
         -5    1    3    3    0  503  0.11642564397E+02  0.17749582086E+02  0.21913350947E+02  0.30868785523E+02  0.47000000000E+01 0.  1.
         11    1    4    4    0    0  0.65020628660E+01  0.10058465881E+02  0.62711245472E+03  0.62722681737E+03  0.00000000000E+00 0. -1.
        -12    1    4    4    0    0  0.66459054117E+02  0.96068778974E+02  0.94094362165E+03  0.94816713469E+03  0.00000000000E+00 0.  1.
</event>
<event>
12    1  0.1050869E+000  0.2601477E+03  0.7818608E-02  0.1107563E+00
         21   -1    0    0  503  502  0.00000000000E+00  0.00000000000E+00  0.17550401398E+03  0.17550401398E+03  0.00000000000E+00 0.  1.
         21   -1    0    0  501  503 -0.00000000000E+00 -0.00000000000E+00 -0.13069203346E+04  0.13069203346E+04  0.00000000000E+00 0.  1.
          6    2    1    2  501    0 -0.16302248429E+03 -0.10704709004E+03  0.59363857799E+02  0.26355838091E+03  0.16704353524E+03 0.  0.
         24    2    3    3    0    0 -0.18548061058E+03 -0.71891250901E+02  0.44396932329E+02  0.21898934098E+03  0.80086422105E+02 0.  0.
         -6    2    1    2    0  502  0.16302248429E+03  0.10704709004E+03 -0.11907801785E+04  0.12188659677E+04  0.17216679108E+03 0.  0.
        -24    2    5    5    0    0  0.17984653459E+03  0.90860578429E+02 -0.11577951208E+04  0.11781823610E+04  0.83807596902E+02 0.  0.
          5    1    3    3  501    0  0.22458126292E+02 -0.35155839142E+02  0.14966925470E+02  0.44569039930E+02  0.47000000000E+01 0. -1.
        -13    1    4    4    0    0 -0.65387076095E+02 -0.67016813750E+02  0.27703009753E+02  0.97643124667E+02  0.00000000000E+00 0.  1.
         14    1    4    4    0    0 -0.12009353448E+03 -0.48744371510E+01  0.16693922576E+02  0.12134621631E+03  0.00000000000E+00 0. -1.
         -5    1    5    5    0  502 -0.16824050300E+02  0.16186511613E+02 -0.32985057700E+02  0.40683606750E+02  0.47000000000E+01 0.  1.
         13    1    6    6    0    0  0.68961119180E+02  0.21977495797E+02 -0.22650924435E+03  0.23779210260E+03  0.00000000000E+00 0. -1.
        -14    1    6    6    0    0  0.11088541541E+03  0.68883082632E+02 -0.93128587642E+03  0.94039025837E+03  0.00000000000E+00 0.  1.
</event>
<event>
12    1  0.1050869E+000  0.1852499E+03  0.7818608E-02  0.1163027E+00
         21   -1    0    0  503  502  0.00000000000E+00  0.00000000000E+00  0.61176026963E+03  0.61176026963E+03  0.00000000000E+00 0. -1.
         21   -1    0    0  501  503 -0.00000000000E+00 -0.00000000000E+00 -0.23145361367E+03  0.23145361367E+03  0.00000000000E+00 0. -1.
          6    2    1    2  501    0 -0.50019695744E+02  0.46636217422E+02  0.55730182871E+03  0.58700142309E+03  0.17119706684E+03 0.  0.
         24    2    3    3    0    0  0.48483306700E+01 -0.17908911224E+02  0.13335023980E+03  0.15464322242E+03  0.76078935151E+02 0.  0.
         -6    2    1    2    0  502  0.50019695744E+02 -0.46636217422E+02 -0.17699517275E+03  0.25621246020E+03  0.17216453423E+03 0.  0.
        -24    2    5    5    0    0  0.61695726670E+02 -0.83799137728E+02 -0.85494530453E+02  0.15665408595E+03  0.80015809267E+02 0.  0.
          5    1    3    3  501    0 -0.54868026414E+02  0.64545128646E+02  0.42395158891E+03  0.43235820068E+03  0.47000000000E+01 0. -1.
        -13    1    4    4    0    0 -0.76213276650E+01  0.89156077183E+01  0.12261437497E+03  0.12317409486E+03  0.00000000000E+00 0.  1.
         14    1    4    4    0    0  0.12469658335E+02 -0.26824518943E+02  0.10735864833E+02  0.31469127557E+02  0.00000000000E+00 0. -1.
         -5    1    5    5    0  502 -0.11676030926E+02  0.37162920306E+02 -0.91500642299E+02  0.99558374258E+02  0.47000000000E+01 0.  1.
         13    1    6    6    0    0  0.74539027396E+02 -0.41146879700E+02 -0.67337347910E+02  0.10855160403E+03  0.00000000000E+00 0. -1.
        -14    1    6    6    0    0 -0.12843300726E+02 -0.42652258028E+02 -0.18157182543E+02  0.48102481914E+02  0.00000000000E+00 0.  1.
</event>
<event>
12    1  0.1050869E+000  0.1804555E+03  0.7818608E-02  0.1168585E+00
         21   -1    0    0  501  502  0.00000000000E+00  0.00000000000E+00  0.55520866669E+03  0.55520866669E+03  0.00000000000E+00 0. -1.
         21   -1    0    0  502  503 -0.00000000000E+00 -0.00000000000E+00 -0.10314162375E+03  0.10314162375E+03  0.00000000000E+00 0. -1.
         -6    2    1    2    0  503 -0.36515610337E+02 -0.25285763263E+02  0.77279022761E+01  0.18062086280E+03  0.17490401935E+03 0.  0.
        -24    2    3    3    0    0 -0.22924874815E+02  0.51283739543E+02  0.13829014055E+02  0.10247413916E+03  0.84582124230E+02 0.  0.
          6    2    1    2  501    0  0.36515610337E+02  0.25285763263E+02  0.44433914067E+03  0.47772942764E+03  0.16975091894E+03 0.  0.
         24    2    5    5    0    0  0.88239072108E+02  0.14391829522E+02  0.26903232144E+03  0.29456675361E+03  0.79987022382E+02 0.  0.
          5    1    5    5  501    0 -0.51723461771E+02  0.10893933740E+02  0.17530681923E+03  0.18316267403E+03  0.47000000000E+01 0. -1.
        -11    1    6    6    0    0  0.27354072915E+02  0.80245841452E+01  0.20114272392E+03  0.20315273722E+03  0.00000000000E+00 0.  1.
         12    1    6    6    0    0  0.60884999193E+02  0.63672453770E+01  0.67889597520E+02  0.91414016386E+02  0.00000000000E+00 0. -1.
         -5    1    3    3    0  503 -0.13590735522E+02 -0.76569502805E+02 -0.61011117793E+01  0.78146723647E+02  0.47000000000E+01 0.  1.
         11    1    4    4    0    0 -0.39847727625E+02  0.60747091906E+01  0.31408469157E+02  0.51100248761E+02  0.00000000000E+00 0. -1.
        -12    1    4    4    0    0  0.16922852811E+02  0.45209030352E+02 -0.17579455101E+02  0.51373890395E+02  0.00000000000E+00 0.  1.
</event>
<event>
12    1  0.1050869E+000  0.3570739E+03  0.7818608E-02  0.1060039E+00
         21   -1    0    0  503  502  0.00000000000E+00  0.00000000000E+00  0.21959287026E+04  0.21959287026E+04  0.00000000000E+00 0.  1.
         21   -1    0    0  501  503 -0.00000000000E+00 -0.00000000000E+00 -0.64704123369E+02  0.64704123369E+02  0.00000000000E+00 0.  1.
          6    2    1    2  501    0  0.23124567247E+03  0.21027867910E+03  0.68704366272E+03  0.77296340452E+03  0.16658855400E+03 0.  0.
         24    2    3    3    0    0  0.17813692286E+03  0.18015564375E+03  0.64804001987E+03  0.70035961192E+03  0.79742707508E+02 0.  0.
         -6    2    1    2    0  502 -0.23124567247E+03 -0.21027867910E+03  0.14441809165E+04  0.14876694215E+04  0.17265602797E+03 0.  0.
        -24    2    5    5    0    0 -0.76384211383E+02 -0.40466097973E+02  0.64090384970E+03  0.65214891249E+03  0.84073816763E+02 0.  0.
          5    1    3    3  501    0  0.53108749611E+02  0.30123035343E+02  0.39003642852E+02  0.72603792596E+02  0.47000000000E+01 0. -1.
        -11    1    4    4    0    0  0.15643863759E+03  0.10808358972E+03  0.45193869688E+03  0.49030979537E+03  0.00000000000E+00 0.  1.
         12    1    4    4    0    0  0.21698285264E+02  0.72072054033E+02  0.19610132299E+03  0.21004981655E+03  0.00000000000E+00 0. -1.
         -5    1    5    5    0  502 -0.15486146108E+03 -0.16981258112E+03  0.80327706681E+03  0.83552050897E+03  0.47000000000E+01 0.  1.
         11    1    6    6    0    0 -0.81067068583E+02 -0.32411849067E+02  0.33774029212E+03  0.34884223152E+03  0.00000000000E+00 0. -1.
        -12    1    6    6    0    0  0.46828571993E+01 -0.80542489064E+01  0.30316355758E+03  0.30330668097E+03  0.00000000000E+00 0.  1.
</event>
<event>
12    1  0.1050869E+000  0.2003348E+03  0.7818608E-02  0.1149517E+00
         21   -1    0    0  501  502  0.00000000000E+00  0.00000000000E+00  0.35320715083E+03  0.35320715083E+03  0.00000000000E+00 0. -1.
         21   -1    0    0  502  503 -0.00000000000E+00 -0.00000000000E+00 -0.12494855372E+03  0.12494855372E+03  0.00000000000E+00 0. -1.
         -6    2    1    2    0  503 -0.89947212426E+02 -0.50480977082E+02  0.18653196203E+03  0.27352148508E+03  0.17140886755E+03 0.  0.
        -24    2    3    3    0    0 -0.11855084118E+03 -0.13980773970E+02  0.17382461522E+03  0.22521000541E+03  0.79087203129E+02 0.  0.
          6    2    1    2  501    0  0.89947212426E+02  0.50480977082E+02  0.41726635080E+02  0.20463421947E+03  0.17174172944E+03 0.  0.
         24    2    5    5    0    0  0.10923468167E+02 -0.31396065287E+02  0.32317184600E+02  0.90357231487E+02  0.77556391027E+02 0.  0.
          5    1    5    5  501    0  0.79023744259E+02  0.81877042370E+02  0.94094504802E+01  0.11427698798E+03  0.47000000000E+01 0. -1.
        -11    1    6    6    0    0 -0.25201027084E+02 -0.11561370142E+02  0.39766146082E+02  0.48477865257E+02  0.00000000000E+00 0.  1.
         12    1    6    6    0    0  0.36124495251E+02 -0.19834695146E+02 -0.74489614821E+01  0.41879366230E+02  0.00000000000E+00 0. -1.
         -5    1    3    3    0  503  0.28603628750E+02 -0.36500203113E+02  0.12707346812E+02  0.48311479670E+02  0.47000000000E+01 0.  1.
         11    1    4    4    0    0 -0.52059317993E+02 -0.28614905340E+02  0.13340250929E+03  0.14603155441E+03  0.00000000000E+00 0. -1.
        -12    1    4    4    0    0 -0.66491523183E+02  0.14634131370E+02  0.40422105924E+02  0.79178451005E+02  0.00000000000E+00 0.  1.
</event>
<event>
12    1  0.1050869E+000  0.2173252E+03  0.7818608E-02  0.1136311E+00
         21   -1    0    0  501  502  0.00000000000E+00  0.00000000000E+00  0.92412539164E+03  0.92412539164E+03  0.00000000000E+00 0.  1.
         21   -1    0    0  502  503 -0.00000000000E+00 -0.00000000000E+00 -0.64068944535E+02  0.64068944535E+02  0.00000000000E+00 0.  1.
         -6    2    1    2    0  503 -0.57421747087E+02  0.11609404606E+03  0.20170539020E+03  0.29490050490E+03  0.17177356835E+03 0.  0.
        -24    2    3    3    0    0 -0.46728184800E+02  0.13949228091E+03  0.20702749466E+03  0.26821259632E+03  0.86232207374E+02 0.  0.
          6    2    1    2  501    0  0.57421747087E+02 -0.11609404606E+03  0.65835105690E+03  0.69329383128E+03  0.17451400458E+03 0.  0.
         24    2    5    5    0    0  0.15304431639E+02 -0.13626553929E+03  0.59012763573E+03  0.61048512041E+03  0.75092828952E+02 0.  0.
          5    1    5    5  501    0  0.42117315448E+02  0.20171493229E+02  0.68223421173E+02  0.82808710872E+02  0.47000000000E+01 0. -1.
        -13    1    6    6    0    0  0.24384284781E+02 -0.11935448826E+03  0.56919206998E+03  0.58208221047E+03  0.00000000000E+00 0.  1.
         14    1    6    6    0    0 -0.90798531423E+01 -0.16911051024E+02  0.20935565751E+02  0.28402909941E+02  0.00000000000E+00 0. -1.
         -5    1    3    3    0  503 -0.10693562287E+02 -0.23398234853E+02 -0.53221044576E+01  0.26687908582E+02  0.47000000000E+01 0.  1.
         13    1    4    4    0    0 -0.54375952645E+02  0.55863778405E+02  0.58052833188E+02  0.97198957839E+02  0.00000000000E+00 0. -1.
        -14    1    4    4    0    0  0.76477678447E+01  0.83628502507E+02  0.14897466147E+03  0.17101363848E+03  0.00000000000E+00 0.  1.
</event>
<event>
12    1  0.1050869E+000  0.1742616E+03  0.7818608E-02  0.1174484E+00
         21   -1    0    0  501  502  0.00000000000E+00  0.00000000000E+00  0.19364328969E+03  0.19364328969E+03  0.00000000000E+00 0.  1.
         21   -1    0    0  502  503 -0.00000000000E+00 -0.00000000000E+00 -0.15332103988E+03  0.15332103988E+03  0.00000000000E+00 0.  1.
         -6    2    1    2    0  503 -0.31702041145E+02  0.18378577636E+01  0.17297658625E+02  0.17118820041E+03  0.16732541299E+03 0.  0.
        -24    2    3    3    0    0  0.29769456289E+02 -0.41451938695E+02 -0.88465875921E+01  0.91448855762E+02  0.75366752344E+02 0.  0.
          6    2    1    2  501    0  0.31702041145E+02 -0.18378577636E+01  0.23024591183E+02  0.17577612917E+03  0.17134386086E+03 0.  0.
         24    2    5    5    0    0  0.82213711267E+02 -0.26561713517E+02  0.22524171973E+02  0.11933998578E+03  0.79183804763E+02 0.  0.
          5    1    5    5  501    0 -0.50511670121E+02  0.24723855753E+02  0.50041921005E+00  0.56436143394E+02  0.47000000000E+01 0. -1.
        -13    1    6    6    0    0  0.46735822084E+02 -0.47248953935E+02  0.36669340566E+02  0.75903499599E+02  0.00000000000E+00 0.  1.
         14    1    6    6    0    0  0.35477889183E+02  0.20687240418E+02 -0.14145168593E+02  0.43436486178E+02  0.00000000000E+00 0. -1.
         -5    1    3    3    0  503 -0.61471497434E+02  0.43289796459E+02  0.26144246217E+02  0.79739344645E+02  0.47000000000E+01 0.  1.
         11    1    4    4    0    0  0.25024013955E+02 -0.16915240517E+02  0.31720983388E+02  0.43801226276E+02  0.00000000000E+00 0. -1.
        -12    1    4    4    0    0  0.47454423341E+01 -0.24536698178E+02 -0.40567570980E+02  0.47647629486E+02  0.00000000000E+00 0.  1.
</event>
<event>
12    1  0.1050869E+000  0.2883072E+03  0.7818608E-02  0.1091339E+00
         21   -1    0    0  501  502  0.00000000000E+00  0.00000000000E+00  0.67025665932E+03  0.67025665932E+03  0.00000000000E+00 0.  1.
         21   -1    0    0  502  503 -0.00000000000E+00 -0.00000000000E+00 -0.13286259662E+03  0.13286259662E+03  0.00000000000E+00 0.  1.
         -6    2    1    2    0  503  0.33217692224E+02  0.22896737742E+03  0.16345668312E+03  0.33141983078E+03  0.17202192296E+03 0.  0.
        -24    2    3    3    0    0 -0.31019774987E+02  0.11756566284E+03  0.13761134954E+03  0.20016867661E+03  0.79666203958E+02 0.  0.
          6    2    1    2  501    0 -0.33217692224E+02 -0.22896737742E+03  0.37393737958E+03  0.47169942517E+03  0.17070942815E+03 0.  0.
         24    2    5    5    0    0 -0.26667935848E+02 -0.31929155221E+02  0.12616503827E+03  0.15502896012E+03  0.79910649099E+02 0.  0.
          5    1    5    5  501    0 -0.65497563752E+01 -0.19703822220E+03  0.24777234132E+03  0.31667046505E+03  0.47000000000E+01 0. -1.
        -11    1    6    6    0    0 -0.32182990809E+02  0.92577919697E+00  0.93064072104E+01  0.33514342895E+02  0.00000000000E+00 0.  1.
         12    1    6    6    0    0  0.55150549606E+01 -0.32854934418E+02  0.11685863106E+03  0.12151461722E+03  0.00000000000E+00 0. -1.
         -5    1    3    3    0  503  0.64237467210E+02  0.11140171457E+03  0.25845333580E+02  0.13125115417E+03  0.47000000000E+01 0.  1.
         13    1    4    4    0    0 -0.26392669547E+02  0.44819115715E+02  0.96481288747E+01  0.52900023913E+02  0.00000000000E+00 0. -1.
        -14    1    4    4    0    0 -0.46271054400E+01  0.72746547130E+02  0.12796322066E+03  0.14726865269E+03  0.00000000000E+00 0.  1.
</event>
<event>
12    1  0.1050869E+000  0.1920956E+03  0.7818608E-02  0.1156935E+00
         21   -1    0    0  503  502  0.00000000000E+00  0.00000000000E+00  0.29490645345E+02  0.29490645345E+02  0.00000000000E+00 0.  1.
         21   -1    0    0  501  503 -0.00000000000E+00 -0.00000000000E+00 -0.12528160075E+04  0.12528160075E+04  0.00000000000E+00 0.  1.
          6    2    1    2  501    0  0.65380430078E+02 -0.56610222390E+02 -0.55207708233E+03  0.58454239654E+03  0.17152664691E+03 0.  0.
         24    2    3    3    0    0 -0.19689467301E+02 -0.91727458347E+01 -0.15719894257E+03  0.17780164755E+03  0.80187928893E+02 0.  0.
         -6    2    1    2    0  502 -0.65380430078E+02  0.56610222390E+02 -0.67124827981E+03  0.69776425629E+03  0.16976862576E+03 0.  0.
        -24    2    5    5    0    0 -0.12436202742E+02  0.94701688708E+02 -0.45115348230E+03  0.46816055226E+03  0.80695533435E+02 0.  0.
          5    1    3    3  501    0  0.85069897378E+02 -0.47437476556E+02 -0.39487813977E+03  0.40674074899E+03  0.47000000000E+01 0. -1.
        -13    1    4    4    0    0  0.30405746687E+02 -0.12448492141E+02 -0.60273247917E+02  0.68646476987E+02  0.00000000000E+00 0.  1.
         14    1    4    4    0    0 -0.50095213988E+02  0.32757463064E+01 -0.96925694650E+02  0.10915517057E+03  0.00000000000E+00 0. -1.
         -5    1    5    5    0  502 -0.52944227336E+02 -0.38091466317E+02 -0.22009479751E+03  0.22960370404E+03  0.47000000000E+01 0.  1.
         11    1    6    6    0    0 -0.32738338696E+02  0.12511632026E+02 -0.77817335210E+02  0.85345635012E+02  0.00000000000E+00 0. -1.
        -12    1    6    6    0    0  0.20302135954E+02  0.82190056682E+02 -0.37333614709E+03  0.38281491725E+03  0.00000000000E+00 0.  1.
</event>
<event>
12    1  0.1050869E+000  0.2014749E+03  0.7818608E-02  0.1148704E+00
         21   -1    0    0  503  502  0.00000000000E+00  0.00000000000E+00  0.25877427290E+03  0.25877427290E+03  0.00000000000E+00 0. -1.
         21   -1    0    0  501  503 -0.00000000000E+00 -0.00000000000E+00 -0.20801735916E+03  0.20801735916E+03  0.00000000000E+00 0. -1.
          6    2    1    2  501    0 -0.82967655291E+02 -0.63262666250E+02  0.14192240404E+03  0.24565073123E+03  0.17122066528E+03 0.  0.
         24    2    3    3    0    0 -0.10824083570E+02 -0.23065413160E+02  0.13751834747E+03  0.16281354265E+03  0.83353342534E+02 0.  0.
         -6    2    1    2    0  502  0.82967655291E+02  0.63262666250E+02 -0.91165490301E+02  0.22114090084E+03  0.17235531508E+03 0.  0.
        -24    2    5    5    0    0  0.22583094399E+02  0.21848490831E+02 -0.11403654402E+03  0.14428646559E+03  0.82625045082E+02 0.  0.
          5    1    3    3  501    0 -0.72143571721E+02 -0.40197253090E+02  0.44040565729E+01  0.82837188575E+02  0.47000000000E+01 0. -1.
        -13    1    4    4    0    0 -0.12538089580E+02  0.57225530160E+01 -0.69914864937E+01  0.15454196412E+02  0.00000000000E+00 0.  1.
         14    1    4    4    0    0  0.17140060097E+01 -0.28787966176E+02  0.14450983396E+03  0.14735934624E+03  0.00000000000E+00 0. -1.
         -5    1    5    5    0  502  0.60384560893E+02  0.41414175419E+02  0.22871053720E+02  0.76854435253E+02  0.47000000000E+01 0.  1.
         13    1    6    6    0    0  0.48025525015E+02  0.29705913934E+02 -0.98272830745E+02  0.11334214414E+03  0.00000000000E+00 0. -1.
        -14    1    6    6    0    0 -0.25442430616E+02 -0.78574231035E+01 -0.15763713276E+02  0.30944321446E+02  0.00000000000E+00 0.  1.
</event>
<event>
12    1  0.1050869E+000  0.2817504E+03  0.7818608E-02  0.1095037E+00
         21   -1    0    0  501  502  0.00000000000E+00  0.00000000000E+00  0.10917036127E+03  0.10917036127E+03  0.00000000000E+00 0.  1.
         21   -1    0    0  502  503 -0.00000000000E+00 -0.00000000000E+00 -0.11609216795E+04  0.11609216795E+04  0.00000000000E+00 0.  1.
         -6    2    1    2    0  503 -0.21746937091E+03  0.38978980678E+02 -0.13387786952E+03  0.30994885615E+03  0.17126798084E+03 0.  0.
        -24    2    3    3    0    0 -0.15789113118E+03  0.21810567583E+02 -0.18837231756E+02  0.17917898425E+03  0.79655237964E+02 0.  0.
          6    2    1    2  501    0  0.21746937091E+03 -0.38978980678E+02 -0.91787344874E+03  0.96014318465E+03  0.17484558590E+03 0.  0.
         24    2    5    5    0    0  0.73663531392E+02 -0.76320974751E+02 -0.42723167228E+03  0.44747761451E+03  0.80362345922E+02 0.  0.
          5    1    5    5  501    0  0.14380583952E+03  0.37341994073E+02 -0.49064177646E+03  0.51266557014E+03  0.47000000000E+01 0. -1.
        -13    1    6    6    0    0  0.49992762944E+02 -0.67152428070E+02 -0.40552932305E+03  0.41408061630E+03  0.00000000000E+00 0.  1.
         14    1    6    6    0    0  0.23670768447E+02 -0.91685466816E+01 -0.21702349230E+02  0.33396998207E+02  0.00000000000E+00 0. -1.
         -5    1    3    3    0  503 -0.59578239733E+02  0.17168413095E+02 -0.11504063777E+03  0.13076987189E+03  0.47000000000E+01 0.  1.
         13    1    4    4    0    0 -0.79615827716E+02 -0.15199989268E+02 -0.39495772100E+02  0.90164492514E+02  0.00000000000E+00 0. -1.
        -14    1    4    4    0    0 -0.78275303462E+02  0.37010556850E+02  0.20658540344E+02  0.89014491739E+02  0.00000000000E+00 0.  1.
</event>
<event>
12    1  0.1050869E+000  0.2099187E+03  0.7818608E-02  0.1142368E+00
         21   -1    0    0  503  502  0.00000000000E+00  0.00000000000E+00  0.55492651883E+03  0.55492651883E+03  0.00000000000E+00 0. -1.
         21   -1    0    0  501  503 -0.00000000000E+00 -0.00000000000E+00 -0.14434083092E+03  0.14434083092E+03  0.00000000000E+00 0. -1.
          6    2    1    2  501    0  0.11197368272E+03 -0.44763304343E+02 -0.30718335185E+02  0.21215440782E+03  0.17182554410E+03 0.  0.
         24    2    3    3    0    0  0.11570443919E+03 -0.25462997194E+02  0.31907038759E+02  0.14634826934E+03  0.79773901399E+02 0.  0.
         -6    2    1    2    0  502 -0.11197368272E+03  0.44763304343E+02  0.44130402310E+03  0.48711294192E+03  0.16729590057E+03 0.  0.
        -24    2    5    5    0    0 -0.88222391789E+02 -0.35287631699E+02  0.25896991152E+03  0.28651360387E+03  0.77435281140E+02 0.  0.
          5    1    3    3  501    0 -0.37307564633E+01 -0.19300307149E+02 -0.62625373944E+02  0.65806138478E+02  0.47000000000E+01 0. -1.
        -11    1    4    4    0    0  0.89597968395E+02 -0.31287902274E+02 -0.11256131303E+02  0.95568976458E+02  0.00000000000E+00 0.  1.
         12    1    4    4    0    0  0.26106470790E+02  0.58249050792E+01  0.43163170062E+02  0.50779292887E+02  0.00000000000E+00 0. -1.
         -5    1    5    5    0  502 -0.23751290933E+02  0.80050936042E+02  0.18233411158E+03  0.20059933806E+03  0.47000000000E+01 0.  1.
         11    1    6    6    0    0 -0.70495745014E+02 -0.19634426728E+02  0.25116778471E+03  0.26161119405E+03  0.00000000000E+00 0. -1.
        -12    1    6    6    0    0 -0.17726646775E+02 -0.15653204971E+02  0.78021268075E+01  0.24902409813E+02  0.00000000000E+00 0.  1.
</event>
<event>
12    1  0.1050869E+000  0.1921410E+03  0.7818608E-02  0.1156583E+00
         21   -1    0    0  503  502  0.00000000000E+00  0.00000000000E+00  0.12302187757E+04  0.12302187757E+04  0.00000000000E+00 0. -1.
         21   -1    0    0  501  503 -0.00000000000E+00 -0.00000000000E+00 -0.30039393949E+02  0.30039393949E+02  0.00000000000E+00 0. -1.
          6    2    1    2  501    0  0.67990634846E+02  0.51759017528E+02  0.57227225588E+03  0.60361097998E+03  0.17189810348E+03 0.  0.
         24    2    3    3    0    0  0.94342197646E+02  0.86899876868E+01  0.50050101659E+03  0.51573295666E+03  0.80642723392E+02 0.  0.
         -6    2    1    2    0  502 -0.67990634846E+02 -0.51759017528E+02  0.62790712590E+03  0.65664718970E+03  0.17209430746E+03 0.  0.
        -24    2    5    5    0    0 -0.97105399436E+02 -0.76766575198E+02  0.41647932557E+03  0.44171265964E+03  0.79576877257E+02 0.  0.
          5    1    3    3  501    0 -0.26351562799E+02  0.43069029841E+02  0.71771239296E+02  0.87878023325E+02  0.47000000000E+01 0. -1.
        -11    1    4    4    0    0 -0.29241239477E+01  0.14946323774E+02  0.18434253621E+02  0.23911603915E+02  0.00000000000E+00 0.  1.
         12    1    4    4    0    0  0.97266321593E+02 -0.62563360874E+01  0.48206676297E+03  0.49182135274E+03  0.00000000000E+00 0. -1.
         -5    1    5    5    0  502  0.29114764590E+02  0.25007557671E+02  0.21142780033E+03  0.21493453006E+03  0.47000000000E+01 0.  1.
         13    1    6    6    0    0 -0.10592925222E+03 -0.65130170924E+02  0.30644690244E+03  0.33071536048E+03  0.00000000000E+00 0. -1.
        -14    1    6    6    0    0  0.88238527822E+01 -0.11636404274E+02  0.11003242312E+03  0.11099729916E+03  0.00000000000E+00 0.  1.
</event>
<event>
12    1  0.1050869E+000  0.2170518E+03  0.7818608E-02  0.1136471E+00
         21   -1    0    0  503  502  0.00000000000E+00  0.00000000000E+00  0.13077550562E+04  0.13077550562E+04  0.00000000000E+00 0.  1.
         21   -1    0    0  501  503 -0.00000000000E+00 -0.00000000000E+00 -0.40515586408E+02  0.40515586408E+02  0.00000000000E+00 0.  1.
          6    2    1    2  501    0 -0.23706967062E+02  0.12875451345E+03  0.86847683022E+03  0.89518907255E+03  0.17312344143E+03 0.  0.
         24    2    3    3    0    0 -0.42830352392E+02  0.35155636112E+02  0.64320653216E+03  0.65045400990E+03  0.79406663078E+02 0.  0.
         -6    2    1    2    0  502  0.23706967062E+02 -0.12875451345E+03  0.39876263954E+03  0.45308157002E+03  0.17067958688E+03 0.  0.
        -24    2    5    5    0    0 -0.18256974348E+02 -0.15024085356E+03  0.30111221413E+03  0.34454433783E+03  0.71670105607E+02 0.  0.
          5    1    3    3  501    0  0.19123385330E+02  0.93598877343E+02  0.22527029806E+03  0.24473506266E+03  0.47000000000E+01 0. -1.
        -11    1    4    4    0    0  0.14921607855E+02  0.26004978390E+02  0.36160742488E+03  0.36284823688E+03  0.00000000000E+00 0.  1.
         12    1    4    4    0    0 -0.57751960247E+02  0.91506577215E+01  0.28159910728E+03  0.28760577302E+03  0.00000000000E+00 0. -1.
         -5    1    5    5    0  502  0.41963941410E+02  0.21486340108E+02  0.97650425414E+02  0.10853723220E+03  0.47000000000E+01 0.  1.
         11    1    6    6    0    0 -0.12083029936E+02 -0.13408161547E+03  0.29795881223E+03  0.32696075147E+03  0.00000000000E+00 0. -1.
        -12    1    6    6    0    0 -0.61739444119E+01 -0.16159238097E+02  0.31534019005E+01  0.17583586353E+02  0.00000000000E+00 0.  1.
</event>
<event>
12    1  0.1050869E+000  0.2022085E+03  0.7818608E-02  0.1148044E+00
         21   -1    0    0  501  502  0.00000000000E+00  0.00000000000E+00  0.54563572104E+03  0.54563572104E+03  0.00000000000E+00 0. -1.
         21   -1    0    0  502  503 -0.00000000000E+00 -0.00000000000E+00 -0.10904765165E+03  0.10904765165E+03  0.00000000000E+00 0. -1.
         -6    2    1    2    0  503  0.86092125514E+02 -0.57963151513E+02  0.34753607533E+02  0.20517328808E+03  0.17354159126E+03 0.  0.
        -24    2    3    3    0    0  0.58831375805E+02 -0.78100010235E+02  0.79340012391E+02  0.14897116132E+03  0.79604189352E+02 0.  0.
          6    2    1    2  501    0 -0.86092125514E+02  0.57963151513E+02  0.40183446185E+03  0.44951008461E+03  0.17267541928E+03 0.  0.
         24    2    5    5    0    0 -0.91074214829E+02  0.10123279160E+03  0.30149297700E+03  0.34002224716E+03  0.78578131062E+02 0.  0.
          5    1    5    5  501    0  0.49820893152E+01 -0.43269640084E+02  0.10034148485E+03  0.10948783745E+03  0.47000000000E+01 0. -1.
        -11    1    6    6    0    0 -0.28475878405E+02  0.88177185806E+02  0.19288760927E+03  0.21399000340E+03  0.00000000000E+00 0.  1.
         12    1    6    6    0    0 -0.62598336425E+02  0.13055605791E+02  0.10860536773E+03  0.12603224375E+03  0.00000000000E+00 0. -1.
         -5    1    3    3    0  503  0.27260749709E+02  0.20136858722E+02 -0.44586404857E+02  0.56202126757E+02  0.47000000000E+01 0.  1.
         13    1    4    4    0    0 -0.20690160704E+01  0.13459229415E+02  0.19488667460E+02  0.23774773254E+02  0.00000000000E+00 0. -1.
        -14    1    4    4    0    0  0.60900391875E+02 -0.91559239650E+02  0.59851344931E+02  0.12519638807E+03  0.00000000000E+00 0.  1.
</event>
<event>
12    1  0.1050869E+000  0.3413756E+03  0.7818608E-02  0.1066253E+00
         21   -1    0    0  501  502  0.00000000000E+00  0.00000000000E+00  0.11232271814E+04  0.11232271814E+04  0.00000000000E+00 0. -1.
         21   -1    0    0  502  503 -0.00000000000E+00 -0.00000000000E+00 -0.11996814304E+03  0.11996814304E+03  0.00000000000E+00 0.  1.
         -6    2    1    2    0  503 -0.26881582865E+03 -0.12097587625E+03  0.27202166275E+03  0.43619753938E+03  0.17139252020E+03 0.  0.
        -24    2    3    3    0    0 -0.14593043011E+03 -0.13875891576E+03  0.16900881850E+03  0.27479495652E+03  0.79991001155E+02 0.  0.
          6    2    1    2  501    0  0.26881582865E+03  0.12097587625E+03  0.73123737562E+03  0.80699778508E+03  0.17216333305E+03 0.  0.
         24    2    5    5    0    0  0.12633242924E+03  0.60512675168E+01  0.23741310030E+03  0.28031601238E+03  0.78838988353E+02 0.  0.
          5    1    5    5  501    0  0.14248339941E+03  0.11492460873E+03  0.49382427532E+03  0.52668177270E+03  0.47000000000E+01 0. -1.
        -13    1    6    6    0    0  0.10975541257E+03 -0.98819252478E+01  0.12978238377E+03  0.17025677717E+03  0.00000000000E+00 0.  1.
         14    1    6    6    0    0  0.16577016666E+02  0.15933192765E+02  0.10763071653E+03  0.11005923521E+03  0.00000000000E+00 0. -1.
         -5    1    3    3    0  503 -0.12288539854E+03  0.17783039513E+02  0.10301284426E+03  0.16140258285E+03  0.47000000000E+01 0.  1.
         13    1    4    4    0    0 -0.70204994197E+02 -0.19785044725E+02  0.37726782861E+02  0.82118812400E+02  0.00000000000E+00 0. -1.
        -14    1    4    4    0    0 -0.75725435913E+02 -0.11897387104E+03  0.13128203564E+03  0.19267614412E+03  0.00000000000E+00 0.  1.
</event>
<event>
12    1  0.1050869E+000  0.2775193E+03  0.7818608E-02  0.1098534E+00
         21   -1    0    0  503  502  0.00000000000E+00  0.00000000000E+00  0.43030603165E+03  0.43030603165E+03  0.00000000000E+00 0. -1.
         21   -1    0    0  501  503 -0.00000000000E+00 -0.00000000000E+00 -0.35920127630E+03  0.35920127630E+03  0.00000000000E+00 0.  1.
          6    2    1    2  501    0  0.48105625546E+02 -0.20263601867E+03 -0.24886805633E+03  0.37276302930E+03  0.18341608239E+03 0.  0.
         24    2    3    3    0    0  0.64083734841E+02 -0.19624626267E+03 -0.15173824513E+03  0.27400869177E+03  0.97143952186E+02 0.  0.
         -6    2    1    2    0  502 -0.48105625546E+02  0.20263601867E+03  0.31997281168E+03  0.41674427864E+03  0.16708586505E+03 0.  0.
        -24    2    5    5    0    0  0.24150840629E+02  0.10484831138E+03  0.22923247711E+03  0.26495715495E+03  0.77963670362E+02 0.  0.
          5    1    3    3  501    0 -0.15978109295E+02 -0.63897560068E+01 -0.97129811201E+02  0.98754337537E+02  0.47000000000E+01 0. -1.
        -11    1    4    4    0    0  0.28772396704E+02 -0.75689888399E+02 -0.11944151945E+03  0.14430206716E+03  0.00000000000E+00 0.  1.
         12    1    4    4    0    0  0.35311338137E+02 -0.12055637427E+03 -0.32296725685E+02  0.12970662461E+03  0.00000000000E+00 0. -1.
         -5    1    5    5    0  502 -0.72256466175E+02  0.97787707291E+02  0.90740334568E+02  0.15178712369E+03  0.47000000000E+01 0.  1.
         13    1    6    6    0    0 -0.12654883164E+02  0.32044224641E+02  0.13947072834E+03  0.14366301704E+03  0.00000000000E+00 0. -1.
        -14    1    6    6    0    0  0.36805723793E+02  0.72804086741E+02  0.89761748763E+02  0.12129413791E+03  0.00000000000E+00 0.  1.
</event>
<event>
12    1  0.1050869E+000  0.1936185E+03  0.7818608E-02  0.1155989E+00
         21   -1    0    0  501  502  0.00000000000E+00  0.00000000000E+00  0.52009933158E+02  0.52009933158E+02  0.00000000000E+00 0.  1.
         21   -1    0    0  502  503 -0.00000000000E+00 -0.00000000000E+00 -0.12014370578E+04  0.12014370578E+04  0.00000000000E+00 0.  1.
         -6    2    1    2    0  503 -0.72363610762E+02  0.13300353040E+02 -0.97923222752E+03  0.99819029656E+03  0.17909416847E+03 0.  0.
        -24    2    3    3    0    0 -0.28869312820E+02  0.72157587230E+02 -0.44476856387E+03  0.45871886475E+03  0.81017077578E+02 0.  0.
          6    2    1    2  501    0  0.72363610762E+02 -0.13300353040E+02 -0.17019489710E+03  0.25525669438E+03  0.17543171170E+03 0.  0.
         24    2    5    5    0    0 -0.60768535068E+01 -0.30633024638E+02 -0.62554388580E+02  0.12086213714E+03  0.98586481410E+02 0.  0.
          5    1    5    5  501    0  0.78440464269E+02  0.17332671599E+02 -0.10764050852E+03  0.13439455723E+03  0.47000000000E+01 0. -1.
        -11    1    6    6    0    0 -0.42227604364E+02 -0.11610405211E+02  0.26979624511E+01  0.43877683176E+02  0.00000000000E+00 0.  1.
         12    1    6    6    0    0  0.36150750857E+02 -0.19022619427E+02 -0.65252351031E+02  0.76984453967E+02  0.00000000000E+00 0. -1.
         -5    1    3    3    0  503 -0.43494297943E+02 -0.58857234190E+02 -0.53446366365E+03  0.53947143180E+03  0.47000000000E+01 0.  1.
         13    1    4    4    0    0 -0.25083546307E+02  0.15088195416E+02 -0.32147712109E+03  0.32280702799E+03  0.00000000000E+00 0. -1.
        -14    1    4    4    0    0 -0.37857665127E+01  0.57069391814E+02 -0.12329144277E+03  0.13591183676E+03  0.00000000000E+00 0.  1.
</event>
<event>
12    1  0.1050869E+000  0.1877251E+03  0.7818608E-02  0.1161001E+00
         21   -1    0    0  503  502  0.00000000000E+00  0.00000000000E+00  0.50021063444E+03  0.50021063444E+03  0.00000000000E+00 0.  1.
         21   -1    0    0  501  503 -0.00000000000E+00 -0.00000000000E+00 -0.71449381161E+02  0.71449381161E+02  0.00000000000E+00 0.  1.
          6    2    1    2  501    0  0.96802266984E+01  0.71450879031E+02  0.25814975333E+03  0.31798897773E+03  0.17110452918E+03 0.  0.
         24    2    3    3    0    0  0.33456447588E+02 -0.59304441603E+01  0.67730550638E+02  0.11102342355E+03  0.81143508890E+02 0.  0.
         -6    2    1    2    0  502 -0.96802266984E+01 -0.71450879031E+02  0.17061149995E+03  0.25367103788E+03  0.17332563757E+03 0.  0.
        -24    2    5    5    0    0 -0.61306857106E+02 -0.25373533158E+01  0.99160035882E+02  0.14168092800E+03  0.80472378812E+02 0.  0.
          5    1    3    3  501    0 -0.23776220890E+02  0.77381323191E+02  0.19041920270E+03  0.20696555417E+03  0.47000000000E+01 0. -1.
        -13    1    4    4    0    0  0.19285431888E+01  0.23808750531E+02  0.63058999568E+02  0.67431545342E+02  0.00000000000E+00 0.  1.
         14    1    4    4    0    0  0.31527904399E+02 -0.29739194692E+02  0.46715510701E+01  0.43591878213E+02  0.00000000000E+00 0. -1.
         -5    1    5    5    0  502  0.51626630408E+02 -0.68913525715E+02  0.71451464065E+02  0.11199010988E+03  0.47000000000E+01 0.  1.
         11    1    6    6    0    0 -0.42501954456E+02 -0.38934601893E+02  0.73243120552E+02  0.93203401576E+02  0.00000000000E+00 0. -1.
        -12    1    6    6    0    0 -0.18804902651E+02  0.36397248577E+02  0.25916915331E+02  0.48477526421E+02  0.00000000000E+00 0.  1.
</event>
<event>
12    1  0.1050869E+000  0.2596027E+03  0.7818608E-02  0.1107478E+00
         21   -1    0    0  503  502  0.00000000000E+00  0.00000000000E+00  0.89999312459E+02  0.89999312459E+02  0.00000000000E+00 0. -1.
         21   -1    0    0  501  503 -0.00000000000E+00 -0.00000000000E+00 -0.12419832914E+04  0.12419832914E+04  0.00000000000E+00 0. -1.
          6    2    1    2  501    0  0.19213535545E+03 -0.32370947436E+02 -0.15512203804E+03  0.30187228443E+03  0.17058767942E+03 0.  0.
         24    2    3    3    0    0  0.18680441547E+03 -0.74864728544E+02 -0.12907175917E+03  0.25152501655E+03  0.78132565014E+02 0.  0.
         -6    2    1    2    0  502 -0.19213535545E+03  0.32370947436E+02 -0.99686194088E+03  0.10301103194E+04  0.17155077363E+03 0.  0.
        -24    2    5    5    0    0 -0.12157497309E+03  0.45277221558E+02 -0.88027924974E+03  0.89314699095E+03  0.77391789277E+02 0.  0.
          5    1    3    3  501    0  0.53309399770E+01  0.42493781108E+02 -0.26050278876E+02  0.50347267884E+02  0.47000000000E+01 0. -1.
        -11    1    4    4    0    0  0.17321882229E+03 -0.39608195010E+02 -0.11217743960E+03  0.21013649721E+03  0.00000000000E+00 0.  1.
         12    1    4    4    0    0  0.13585593183E+02 -0.35256533534E+02 -0.16894319569E+02  0.41388519334E+02  0.00000000000E+00 0. -1.
         -5    1    5    5    0  502 -0.70560382352E+02 -0.12906274123E+02 -0.11658269114E+03  0.13696332846E+03  0.47000000000E+01 0.  1.
         13    1    6    6    0    0 -0.62965439541E+02 -0.12717175165E+02 -0.49450193430E+03  0.49865673178E+03  0.00000000000E+00 0. -1.
        -14    1    6    6    0    0 -0.58609533553E+02  0.57994396723E+02 -0.38577731543E+03  0.39449025917E+03  0.00000000000E+00 0.  1.
</event>
<event>
12    1  0.1050869E+000  0.3854756E+03  0.7818608E-02  0.1049001E+00
         21   -1    0    0  501  502  0.00000000000E+00  0.00000000000E+00  0.25538638665E+03  0.25538638665E+03  0.00000000000E+00 0. -1.
         21   -1    0    0  502  503 -0.00000000000E+00 -0.00000000000E+00 -0.64508682153E+03  0.64508682153E+03  0.00000000000E+00 0.  1.
         -6    2    1    2    0  503  0.34425094491E+03  0.17200491929E+02 -0.33737008188E+03  0.51225967406E+03  0.17258861932E+03 0.  0.
        -24    2    3    3    0    0  0.30919001842E+03 -0.32763101021E+02 -0.24454174082E+03  0.40106246145E+03  0.66170587906E+02 0.  0.
          6    2    1    2  501    0 -0.34425094491E+03 -0.17200491929E+02 -0.52330352994E+02  0.38821353413E+03  0.17078264619E+03 0.  0.
         24    2    5    5    0    0 -0.20882927973E+03  0.10837925664E+02  0.30861577707E+02  0.22675713879E+03  0.82092839568E+02 0.  0.
          5    1    5    5  501    0 -0.13542166518E+03 -0.28038417592E+02 -0.83191930701E+02  0.16145639534E+03  0.47000000000E+01 0. -1.
        -13    1    6    6    0    0 -0.26581310006E+02 -0.71889714031E+01 -0.22984100049E+02  0.35868038788E+02  0.00000000000E+00 0.  1.
         14    1    6    6    0    0 -0.18224796972E+03  0.18026897067E+02  0.53845677756E+02  0.19088910000E+03  0.00000000000E+00 0. -1.
         -5    1    3    3    0  503  0.35060926495E+02  0.49963592949E+02 -0.92828341064E+02  0.11119721261E+03  0.47000000000E+01 0.  1.
         13    1    4    4    0    0  0.18399767492E+03  0.12368191635E+02 -0.13215841314E+03  0.22687874008E+03  0.00000000000E+00 0. -1.
        -14    1    4    4    0    0  0.12519234350E+03 -0.45131292655E+02 -0.11238332768E+03  0.17418372136E+03  0.00000000000E+00 0.  1.
</event>
<event>
12    1  0.1050869E+000  0.3150273E+03  0.7818608E-02  0.1077981E+00
         21   -1    0    0  503  502  0.00000000000E+00  0.00000000000E+00  0.53560855939E+03  0.53560855939E+03  0.00000000000E+00 0. -1.
         21   -1    0    0  501  503 -0.00000000000E+00 -0.00000000000E+00 -0.20281957979E+03  0.20281957979E+03  0.00000000000E+00 0. -1.
          6    2    1    2  501    0 -0.17681628733E+02 -0.26341809512E+03  0.27521013595E+03  0.41818213328E+03  0.17156323857E+03 0.  0.
         24    2    3    3    0    0  0.15478884852E+02 -0.11317667960E+03  0.20937777015E+03  0.25076620516E+03  0.77434374394E+02 0.  0.
         -6    2    1    2    0  502  0.17681628733E+02  0.26341809512E+03  0.57578843650E+02  0.32024600591E+03  0.17187334939E+03 0.  0.
        -24    2    5    5    0    0  0.27616371615E+02  0.41675845905E+02  0.12798404159E+02  0.93760461191E+02  0.78279530023E+02 0.  0.
          5    1    3    3  501    0 -0.33160513585E+02 -0.15024141552E+03  0.65832365804E+02  0.16741592811E+03  0.47000000000E+01 0. -1.
        -13    1    4    4    0    0 -0.19662078948E+02 -0.73503144279E+02  0.77360511434E+02  0.10850787205E+03  0.00000000000E+00 0.  1.
         14    1    4    4    0    0  0.35140963800E+02 -0.39673535324E+02  0.13201725871E+03  0.14225833311E+03  0.00000000000E+00 0. -1.
         -5    1    5    5    0  502 -0.99347428821E+01  0.22174224922E+03  0.44780439491E+02  0.22648554471E+03  0.47000000000E+01 0.  1.
         13    1    6    6    0    0 -0.23061293096E+02  0.11800877662E+02  0.22285882793E+02  0.34172277137E+02  0.00000000000E+00 0. -1.
        -14    1    6    6    0    0  0.50677664711E+02  0.29874968243E+02 -0.94874786340E+01  0.59588184054E+02  0.00000000000E+00 0.  1.
</event>
<event>
12    1  0.1050869E+000  0.1882188E+03  0.7818608E-02  0.1160988E+00
         21   -1    0    0  501  502  0.00000000000E+00  0.00000000000E+00  0.41423866483E+02  0.41423866483E+02  0.00000000000E+00 0.  1.
         21   -1    0    0  502  503 -0.00000000000E+00 -0.00000000000E+00 -0.84133152918E+03  0.84133152918E+03  0.00000000000E+00 0.  1.
         -6    2    1    2    0  503 -0.42907799125E+02 -0.52902571935E+02 -0.36551285975E+03  0.40933680286E+03  0.17122268013E+03 0.  0.
        -24    2    3    3    0    0  0.12284009699E+02  0.26517903095E+02 -0.20798462784E+03  0.22442876771E+03  0.79098484681E+02 0.  0.
          6    2    1    2  501    0  0.42907799125E+02  0.52902571935E+02 -0.43439480295E+03  0.47341859281E+03  0.17546098666E+03 0.  0.
         24    2    5    5    0    0  0.71331262690E+02  0.48230869216E+01 -0.15429052647E+03  0.18776141039E+03  0.79607596812E+02 0.  0.
          5    1    5    5  501    0 -0.28423463565E+02  0.48079485013E+02 -0.28010427648E+03  0.28565718241E+03  0.47000000000E+01 0. -1.
        -11    1    6    6    0    0  0.64573227876E+02 -0.24807476614E+02 -0.13520719739E+03  0.15187527409E+03  0.00000000000E+00 0.  1.
         12    1    6    6    0    0  0.67580348139E+01  0.29630563536E+02 -0.19083329084E+02  0.35886136305E+02  0.00000000000E+00 0. -1.
         -5    1    3    3    0  503 -0.55191808824E+02 -0.79420475029E+02 -0.15752823191E+03  0.18490803515E+03  0.47000000000E+01 0.  1.
         13    1    4    4    0    0  0.13433865078E+02  0.40354877923E+02 -0.49188870441E+02  0.65027147242E+02  0.00000000000E+00 0. -1.
        -14    1    4    4    0    0 -0.11498553790E+01 -0.13836974828E+02 -0.15879575740E+03  0.15940162047E+03  0.00000000000E+00 0.  1.
</event>
<event>
12    1  0.1050869E+000  0.4005595E+03  0.7818608E-02  0.1043586E+00
         21   -1    0    0  503  502  0.00000000000E+00  0.00000000000E+00  0.21427438496E+03  0.21427438496E+03  0.00000000000E+00 0.  1.
         21   -1    0    0  501  503 -0.00000000000E+00 -0.00000000000E+00 -0.77850655202E+03  0.77850655202E+03  0.00000000000E+00 0.  1.
          6    2    1    2  501    0  0.12076621759E+03  0.34070134783E+03 -0.18514441652E+03  0.44127808701E+03  0.17258623173E+03 0.  0.
         24    2    3    3    0    0  0.15266453474E+03  0.30502639955E+03 -0.17693216073E+03  0.39249555205E+03  0.80001276808E+02 0.  0.
         -6    2    1    2    0  502 -0.12076621759E+03 -0.34070134783E+03 -0.37908775054E+03  0.55150284998E+03  0.17258616166E+03 0.  0.
        -24    2    5    5    0    0 -0.41732888336E+02 -0.97383254703E+02 -0.20024537473E+03  0.23932237820E+03  0.77148287988E+02 0.  0.
          5    1    3    3  501    0 -0.31898317150E+02  0.35674948280E+02 -0.82122557914E+01  0.48782534959E+02  0.47000000000E+01 0. -1.
        -13    1    4    4    0    0  0.16589267715E+01  0.71839910840E+01 -0.24184754878E+02  0.25283673278E+02  0.00000000000E+00 0.  1.
         14    1    4    4    0    0  0.15100560797E+03  0.29784240846E+03 -0.15274740585E+03  0.36721187877E+03  0.00000000000E+00 0. -1.
         -5    1    5    5    0  502 -0.79033329257E+02 -0.24331809312E+03 -0.17884237581E+03  0.31218047178E+03  0.47000000000E+01 0.  1.
         11    1    6    6    0    0 -0.97799495943E+01 -0.83349758719E+02 -0.87245777569E+02  0.12105641411E+03  0.00000000000E+00 0. -1.
        -12    1    6    6    0    0 -0.31952938742E+02 -0.14033495984E+02 -0.11299959716E+03  0.11826596409E+03  0.00000000000E+00 0.  1.
</event>
<event>
12    1  0.1050869E+000  0.1858696E+03  0.7818608E-02  0.1162423E+00
         21   -1    0    0  501  502  0.00000000000E+00  0.00000000000E+00  0.40798120217E+03  0.40798120217E+03  0.00000000000E+00 0. -1.
         21   -1    0    0  502  503 -0.00000000000E+00 -0.00000000000E+00 -0.22356637961E+03  0.22356637961E+03  0.00000000000E+00 0.  1.
         -6    2    1    2    0  503  0.58621244236E+02 -0.37959756521E+02 -0.15692652179E+03  0.24325590034E+03  0.17225012748E+03 0.  0.
        -24    2    3    3    0    0  0.38072855993E+02  0.44933706719E+02 -0.97027904345E+02  0.13883608958E+03  0.79952893535E+02 0.  0.
          6    2    1    2  501    0 -0.58621244236E+02  0.37959756521E+02  0.34134134435E+03  0.38829168144E+03  0.17140339297E+03 0.  0.
         24    2    5    5    0    0 -0.96898790374E+02  0.37091894889E+02  0.18174985559E+03  0.22410441943E+03  0.80153581074E+02 0.  0.
          5    1    5    5  501    0  0.38277546138E+02  0.86786163134E+00  0.15959148875E+03  0.16418726201E+03  0.47000000000E+01 0. -1.
        -13    1    6    6    0    0  0.38186828017E+01  0.29682120515E+02  0.46804863122E+02  0.55554530224E+02  0.00000000000E+00 0.  1.
         14    1    6    6    0    0 -0.10071747318E+03  0.74097743739E+01  0.13494499247E+03  0.16854988921E+03  0.00000000000E+00 0. -1.
         -5    1    3    3    0  503  0.20548388244E+02 -0.82893463240E+02 -0.59898617441E+02  0.10441981076E+03  0.47000000000E+01 0.  1.
         11    1    4    4    0    0  0.45344286024E+02  0.24347564857E+02 -0.14502828848E+02  0.53471863948E+02  0.00000000000E+00 0. -1.
        -12    1    4    4    0    0 -0.72714300311E+01  0.20586141862E+02 -0.82525075498E+02  0.85364225630E+02  0.00000000000E+00 0.  1.
</event>
<event>
12    1  0.1050869E+000  0.3705845E+03  0.7818608E-02  0.1054487E+00
         21   -1    0    0  501  502  0.00000000000E+00  0.00000000000E+00  0.59300210520E+03  0.59300210520E+03  0.00000000000E+00 0.  1.
         21   -1    0    0  502  503 -0.00000000000E+00 -0.00000000000E+00 -0.40057193258E+03  0.40057193258E+03  0.00000000000E+00 0.  1.
         -6    2    1    2    0  503  0.27030260061E+03  0.18845123508E+03 -0.22654294941E+03  0.43434381912E+03  0.16957441253E+03 0.  0.
        -24    2    3    3    0    0  0.66541725684E+02  0.93412256907E+02 -0.49801259759E+02  0.14831826715E+03  0.79777765696E+02 0.  0.
          6    2    1    2  501    0 -0.27030260061E+03 -0.18845123508E+03  0.41897312203E+03  0.55923021866E+03  0.16918214023E+03 0.  0.
         24    2    5    5    0    0 -0.19762741107E+03 -0.12818058936E+03  0.19778409909E+03  0.31868727492E+03  0.83403670470E+02 0.  0.
          5    1    5    5  501    0 -0.72675189536E+02 -0.60270645717E+02  0.22118902295E+03  0.24054294374E+03  0.47000000000E+01 0. -1.
        -11    1    6    6    0    0  0.79901987683E+01 -0.96574677836E+01  0.10816118204E+02  0.16555916566E+02  0.00000000000E+00 0.  1.
         12    1    6    6    0    0 -0.20561760984E+03 -0.11852312158E+03  0.18696798088E+03  0.30213135835E+03  0.00000000000E+00 0. -1.
         -5    1    3    3    0  503  0.20376087492E+03  0.95038978174E+02 -0.17674168965E+03  0.28602555197E+03  0.47000000000E+01 0.  1.
         11    1    4    4    0    0  0.21536648379E+02  0.52417636245E+02 -0.64330651734E+02  0.85731374452E+02  0.00000000000E+00 0. -1.
        -12    1    4    4    0    0  0.45005077305E+02  0.40994620662E+02  0.14529391975E+02  0.62586892699E+02  0.00000000000E+00 0.  1.
</event>
<event>
12    1  0.1050869E+000  0.2267711E+03  0.7818608E-02  0.1129366E+00
         21   -1    0    0  503  502  0.00000000000E+00  0.00000000000E+00  0.49729868116E+03  0.49729868116E+03  0.00000000000E+00 0.  1.
         21   -1    0    0  501  503 -0.00000000000E+00 -0.00000000000E+00 -0.17488420845E+03  0.17488420845E+03  0.00000000000E+00 0.  1.
          6    2    1    2  501    0  0.79593716563E+02 -0.12179025400E+03 -0.54786250897E+02  0.23329519807E+03  0.17394565378E+03 0.  0.
         24    2    3    3    0    0 -0.25970734081E+02 -0.47521801763E+02 -0.15554054316E+02  0.98310341564E+02  0.80561740183E+02 0.  0.
         -6    2    1    2    0  502 -0.79593716563E+02  0.12179025400E+03  0.37720072361E+03  0.43888769153E+03  0.17080396424E+03 0.  0.
        -24    2    5    5    0    0 -0.15004815683E+02  0.34824794062E+02  0.70546688017E+02  0.11362855656E+03  0.80602127141E+02 0.  0.
          5    1    3    3  501    0  0.10556445064E+03 -0.74268452241E+02 -0.39232196581E+02  0.13498485651E+03  0.47000000000E+01 0. -1.
        -13    1    4    4    0    0 -0.16131879831E+02  0.20680174557E+02  0.43477662433E+01  0.26585902992E+02  0.00000000000E+00 0.  1.
         14    1    4    4    0    0 -0.98388542506E+01 -0.68201976320E+02 -0.19901820560E+02  0.71724438573E+02  0.00000000000E+00 0. -1.
         -5    1    5    5    0  502 -0.64588900880E+02  0.86965459943E+02  0.30665403559E+03  0.32525913498E+03  0.47000000000E+01 0.  1.
         11    1    6    6    0    0 -0.13279426484E+01  0.58085613432E+02  0.62801124607E+02  0.85555146960E+02  0.00000000000E+00 0. -1.
        -12    1    6    6    0    0 -0.13676873035E+02 -0.23260819370E+02  0.77455634096E+01  0.28073409595E+02  0.00000000000E+00 0.  1.
</event>
<event>
12    1  0.1050869E+000  0.2639394E+03  0.7818608E-02  0.1104846E+00
         21   -1    0    0  503  502  0.00000000000E+00  0.00000000000E+00  0.86091046020E+03  0.86091046020E+03  0.00000000000E+00 0.  1.
         21   -1    0    0  501  503 -0.00000000000E+00 -0.00000000000E+00 -0.11112005715E+03  0.11112005715E+03  0.00000000000E+00 0.  1.
          6    2    1    2  501    0  0.19519864807E+03 -0.48124402295E+02  0.62884543577E+03  0.68199015767E+03  0.17101322395E+03 0.  0.
         24    2    3    3    0    0  0.89207632414E+02  0.38288336482E+02  0.35682303414E+03  0.37749133368E+03  0.75848737101E+02 0.  0.
         -6    2    1    2    0  502 -0.19519864807E+03  0.48124402295E+02  0.12094496728E+03  0.29004035967E+03  0.17052054077E+03 0.  0.
        -24    2    5    5    0    0 -0.20920889966E+03  0.62271648735E+02  0.82509569738E+02  0.24649955679E+03  0.79423425183E+02 0.  0.
          5    1    3    3  501    0  0.10599101566E+03 -0.86412738777E+02  0.27202240163E+03  0.30449882399E+03  0.47000000000E+01 0. -1.
        -11    1    4    4    0    0  0.14270428279E+02 -0.78278563438E+01  0.17225372286E+03  0.17302099728E+03  0.00000000000E+00 0.  1.
         12    1    4    4    0    0  0.74937204135E+02  0.46116192826E+02  0.18456931127E+03  0.20447033640E+03  0.00000000000E+00 0. -1.
         -5    1    5    5    0  502  0.14010251586E+02 -0.14147246440E+02  0.38435397544E+02  0.43540802883E+02  0.47000000000E+01 0.  1.
         13    1    6    6    0    0 -0.49446547032E+02 -0.54763492870E+01  0.48867967069E+02  0.69735425864E+02  0.00000000000E+00 0. -1.
        -14    1    6    6    0    0 -0.15976235262E+03  0.67747998022E+02  0.33641602669E+02  0.17676413093E+03  0.00000000000E+00 0.  1.
</event>
<event>
12    1  0.1050869E+000  0.2134595E+03  0.7818608E-02  0.1139296E+00
         21   -1    0    0  501  502  0.00000000000E+00  0.00000000000E+00  0.23618733599E+03  0.23618733599E+03  0.00000000000E+00 0.  1.
         21   -1    0    0  502  503 -0.00000000000E+00 -0.00000000000E+00 -0.19225961689E+03  0.19225961689E+03  0.00000000000E+00 0.  1.
         -6    2    1    2    0  503  0.12432592636E+03  0.10270883640E+02  0.37099863523E+01  0.21123175003E+03  0.17041907524E+03 0.  0.
        -24    2    3    3    0    0  0.88591437531E+02  0.40048024204E+02  0.58191148698E+02  0.13944095088E+03  0.81272885695E+02 0.  0.
          6    2    1    2  501    0 -0.12432592636E+03 -0.10270883640E+02  0.40217732749E+02  0.21721520285E+03  0.17321244559E+03 0.  0.
         24    2    5    5    0    0 -0.74045276730E+02  0.19242722827E+02 -0.40671230769E+02  0.11739380678E+03  0.79209667786E+02 0.  0.
          5    1    5    5  501    0 -0.50280649631E+02 -0.29513606468E+02  0.80888963518E+02  0.99821396068E+02  0.47000000000E+01 0. -1.
        -13    1    6    6    0    0 -0.23799421226E+02  0.26515710837E+02  0.17906684156E+02  0.39876618580E+02  0.00000000000E+00 0.  1.
         14    1    6    6    0    0 -0.50245855503E+02 -0.72729880096E+01 -0.58577914925E+02  0.77517188203E+02  0.00000000000E+00 0. -1.
         -5    1    3    3    0  503  0.35734488830E+02 -0.29777140563E+02 -0.54481162345E+02  0.71790799150E+02  0.47000000000E+01 0.  1.
         13    1    4    4    0    0  0.56193758519E+02  0.37734634329E+02 -0.55361296829E+01  0.67913841419E+02  0.00000000000E+00 0. -1.
        -14    1    4    4    0    0  0.32397679012E+02  0.23133898751E+01  0.63727278381E+02  0.71527109461E+02  0.00000000000E+00 0.  1.
</event>
<event>
12    1  0.1050869E+000  0.2347342E+03  0.7818608E-02  0.1123730E+00
         21   -1    0    0  501  502  0.00000000000E+00  0.00000000000E+00  0.32665431412E+03  0.32665431412E+03  0.00000000000E+00 0. -1.
         21   -1    0    0  502  503 -0.00000000000E+00 -0.00000000000E+00 -0.17517476198E+03  0.17517476198E+03  0.00000000000E+00 0. -1.
         -6    2    1    2    0  503  0.15935906199E+03 -0.11174731186E+02  0.12993717855E+03  0.26829802246E+03  0.17198829388E+03 0.  0.
        -24    2    3    3    0    0  0.69071872398E+02  0.44115489056E+02  0.74905017344E+02  0.14888523493E+03  0.99191489683E+02 0.  0.
          6    2    1    2  501    0 -0.15935906199E+03  0.11174731186E+02  0.21542373592E+02  0.23353105364E+03  0.16897483215E+03 0.  0.
         24    2    5    5    0    0 -0.10568353326E+03 -0.27893749584E+02  0.63320206227E+02  0.15495061159E+03  0.89739473181E+02 0.  0.
          5    1    5    5  501    0 -0.53675528729E+02  0.39068480770E+02 -0.41777832635E+02  0.78580442056E+02  0.47000000000E+01 0. -1.
        -13    1    6    6    0    0  0.12130692523E+02  0.16390427588E+01 -0.74965699419E+01  0.14354049016E+02  0.00000000000E+00 0.  1.
         14    1    6    6    0    0 -0.11781422578E+03 -0.29532792343E+02  0.70816776169E+02  0.14059656257E+03  0.00000000000E+00 0. -1.
         -5    1    3    3    0  503  0.90287189588E+02 -0.55290220242E+02  0.55032161209E+02  0.11941278753E+03  0.47000000000E+01 0.  1.
         11    1    4    4    0    0 -0.22653628328E+02 -0.34625680854E+01  0.32623527671E+01  0.23147768785E+02  0.00000000000E+00 0. -1.
        -12    1    4    4    0    0  0.91725500726E+02  0.47578057142E+02  0.71642664577E+02  0.12573746614E+03  0.00000000000E+00 0.  1.
</event>
<event>
12    1  0.1050869E+000  0.2992814E+03  0.7818608E-02  0.1085818E+00
         21   -1    0    0  501  502  0.00000000000E+00  0.00000000000E+00  0.53724230075E+02  0.53724230075E+02  0.00000000000E+00 0.  1.
         21   -1    0    0  502  503 -0.00000000000E+00 -0.00000000000E+00 -0.20176962303E+04  0.20176962303E+04  0.00000000000E+00 0.  1.
         -6    2    1    2    0  503  0.11980717817E+02 -0.24298173428E+03 -0.54210311131E+03  0.61839585408E+03  0.17133005651E+03 0.  0.
        -24    2    3    3    0    0  0.73487167146E+02 -0.11943092236E+03 -0.25148294414E+03  0.29663504540E+03  0.71306170975E+02 0.  0.
          6    2    1    2  501    0 -0.11980717817E+02  0.24298173428E+03 -0.14218688889E+04  0.14530246063E+04  0.17431496905E+03 0.  0.
         24    2    5    5    0    0 -0.30075834202E+02  0.41252399202E+02 -0.48673552929E+03  0.49619721948E+03  0.81816189749E+02 0.  0.
          5    1    5    5  501    0  0.18095116385E+02  0.20172933507E+03 -0.93513335958E+03  0.95682738677E+03  0.47000000000E+01 0. -1.
        -11    1    6    6    0    0 -0.39449555606E+02  0.33853047521E+02 -0.47933989524E+03  0.48215042408E+03  0.00000000000E+00 0.  1.
         12    1    6    6    0    0  0.93737214045E+01  0.73993516812E+01 -0.73956340495E+01  0.14046795409E+02  0.00000000000E+00 0. -1.
         -5    1    3    3    0  503 -0.61506449330E+02 -0.12355081191E+03 -0.29062016717E+03  0.32176080868E+03  0.47000000000E+01 0.  1.
         13    1    4    4    0    0  0.48704132068E+02 -0.12102634661E+03 -0.19150405042E+03  0.23171808385E+03  0.00000000000E+00 0. -1.
        -14    1    4    4    0    0  0.24783035079E+02  0.15954242509E+01 -0.59978893717E+02  0.64916961557E+02  0.00000000000E+00 0.  1.
</event>
<event>
12    1  0.1050869E+000  0.3110074E+03  0.7818608E-02  0.1079867E+00
         21   -1    0    0  503  502  0.00000000000E+00  0.00000000000E+00  0.13937871004E+03  0.13937871004E+03  0.00000000000E+00 0.  1.
         21   -1    0    0  501  503 -0.00000000000E+00 -0.00000000000E+00 -0.73284823015E+03  0.73284823015E+03  0.00000000000E+00 0.  1.
          6    2    1    2  501    0 -0.21758467695E+03  0.14137279934E+03 -0.19623055087E+03  0.36773910540E+03  0.17145337708E+03 0.  0.
         24    2    3    3    0    0 -0.68560859345E+02  0.34909900259E+02 -0.13512084014E+03  0.17460978645E+03  0.79445852709E+02 0.  0.
         -6    2    1    2    0  502  0.21758467695E+03 -0.14137279934E+03 -0.39723896923E+03  0.50448783478E+03  0.17140541628E+03 0.  0.
        -24    2    5    5    0    0  0.15058758066E+03 -0.43140196165E+02 -0.15594276116E+03  0.23544470577E+03  0.81107143596E+02 0.  0.
          5    1    3    3  501    0 -0.14902381760E+03  0.10646289909E+03 -0.61109710729E+02  0.19312931896E+03  0.47000000000E+01 0. -1.
        -13    1    4    4    0    0 -0.23219985132E+02 -0.25174743929E+02 -0.31476507021E+02  0.46515652588E+02  0.00000000000E+00 0.  1.
         14    1    4    4    0    0 -0.45340874213E+02  0.60084644187E+02 -0.10364433312E+03  0.12809413386E+03  0.00000000000E+00 0. -1.
         -5    1    5    5    0  502  0.66997096285E+02 -0.98232603179E+02 -0.24129620807E+03  0.26904312901E+03  0.47000000000E+01 0.  1.
         11    1    6    6    0    0  0.12163148808E+03 -0.66928762532E+02 -0.12587896033E+03  0.18740114941E+03  0.00000000000E+00 0. -1.
        -12    1    6    6    0    0  0.28956092588E+02  0.23788566367E+02 -0.30063800834E+02  0.48043556366E+02  0.00000000000E+00 0.  1.
</event>
<event>
12    1  0.1050869E+000  0.2844569E+03  0.7818608E-02  0.1093886E+00
         21   -1    0    0  503  502  0.00000000000E+00  0.00000000000E+00  0.81822194381E+02  0.81822194381E+02  0.00000000000E+00 0. -1.
         21   -1    0    0  501  503 -0.00000000000E+00 -0.00000000000E+00 -0.10209381020E+04  0.10209381020E+04  0.00000000000E+00 0. -1.
          6    2    1    2  501    0 -0.22813783541E+03 -0.19749130012E+02 -0.34696282943E+03  0.44582725703E+03  0.16106470137E+03 0.  0.
         24    2    3    3    0    0 -0.21203179913E+03 -0.15301104512E+02 -0.21593632577E+03  0.31365606502E+03  0.80993967062E+02 0.  0.
         -6    2    1    2    0  502  0.22813783541E+03  0.19749130012E+02 -0.59215307823E+03  0.65693303939E+03  0.16875677792E+03 0.  0.
        -24    2    5    5    0    0  0.32360357888E+02  0.20504860915E+00 -0.15132421567E+03  0.17416708378E+03  0.79924464446E+02 0.  0.
          5    1    3    3  501    0 -0.16106036286E+02 -0.44480255000E+01 -0.13102650366E+03  0.13217119201E+03  0.47000000000E+01 0. -1.
        -13    1    4    4    0    0 -0.14114855765E+03 -0.19742765487E+01 -0.19066028084E+03  0.23723017469E+03  0.00000000000E+00 0.  1.
         14    1    4    4    0    0 -0.70883241482E+02 -0.13326827964E+02 -0.25276044930E+02  0.76425890338E+02  0.00000000000E+00 0. -1.
         -5    1    5    5    0  502  0.19577747753E+03  0.19544081403E+02 -0.44082886257E+03  0.48276595561E+03  0.47000000000E+01 0.  1.
         13    1    6    6    0    0 -0.13143501525E+01  0.28866064388E+02 -0.10968629844E+03  0.11342866152E+03  0.00000000000E+00 0. -1.
        -14    1    6    6    0    0  0.33674708040E+02 -0.28661015779E+02 -0.41637917231E+02  0.60738422258E+02  0.00000000000E+00 0.  1.
</event>
<event>
12    1  0.1050869E+000  0.5719905E+03  0.7818608E-02  0.9965301E-01
         21   -1    0    0  503  502  0.00000000000E+00  0.00000000000E+00  0.84662958385E+03  0.84662958385E+03  0.00000000000E+00 0. -1.
         21   -1    0    0  501  503 -0.00000000000E+00 -0.00000000000E+00 -0.39869770661E+03  0.39869770661E+03  0.00000000000E+00 0. -1.
          6    2    1    2  501    0 -0.54511641198E+03  0.19536484218E+02  0.33322503279E+03  0.66194855552E+03  0.17205635955E+03 0.  0.
         24    2    3    3    0    0 -0.25804161361E+03 -0.49408917690E+02  0.19158225446E+03  0.33445783053E+03  0.78304308177E+02 0.  0.
         -6    2    1    2    0  502  0.54511641198E+03 -0.19536484218E+02  0.11470684445E+03  0.58337873494E+03  0.17216129470E+03 0.  0.
        -24    2    5    5    0    0  0.29747483371E+03 -0.61366772569E+02  0.10788562455E+03  0.33209255674E+03  0.79931225410E+02 0.  0.
          5    1    3    3  501    0 -0.28707479837E+03  0.68945401907E+02  0.14164277832E+03  0.32749072499E+03  0.47000000000E+01 0. -1.
        -11    1    4    4    0    0 -0.20160119228E+03 -0.15604263588E+02  0.11181769574E+03  0.23106217962E+03  0.00000000000E+00 0.  1.
         12    1    4    4    0    0 -0.56440421322E+02 -0.33804654101E+02  0.79764558727E+02  0.10339565091E+03  0.00000000000E+00 0. -1.
         -5    1    5    5    0  502  0.24764157827E+03  0.41830288352E+02  0.68212199021E+01  0.25128617820E+03  0.47000000000E+01 0.  1.
         13    1    6    6    0    0  0.12153543064E+03  0.85751351372E+01  0.20432508072E+02  0.12353898668E+03  0.00000000000E+00 0. -1.
        -14    1    6    6    0    0  0.17593940307E+03 -0.69941907706E+02  0.87453116476E+02  0.20855357006E+03  0.00000000000E+00 0.  1.
</event>
<event>
12    1  0.1050869E+000  0.3304059E+03  0.7818608E-02  0.1071263E+00
         21   -1    0    0  503  502  0.00000000000E+00  0.00000000000E+00  0.32461469607E+03  0.32461469607E+03  0.00000000000E+00 0. -1.
         21   -1    0    0  501  503 -0.00000000000E+00 -0.00000000000E+00 -0.52602518232E+03  0.52602518232E+03  0.00000000000E+00 0. -1.
          6    2    1    2  501    0 -0.27807971288E+03 -0.17478118536E+02 -0.35828112983E+03  0.48737404096E+03  0.17757893023E+03 0.  0.
         24    2    3    3    0    0 -0.12709030981E+03 -0.82572466637E+02 -0.21718138992E+03  0.27065694288E+03  0.55832477191E+02 0.  0.
         -6    2    1    2    0  502  0.27807971288E+03  0.17478118536E+02  0.15687064358E+03  0.36326583744E+03  0.17239448509E+03 0.  0.
        -24    2    5    5    0    0  0.26339818451E+03  0.54774928771E+02  0.15921200607E+03  0.32284095268E+03  0.80615888193E+02 0.  0.
          5    1    3    3  501    0 -0.15098940307E+03  0.65094348101E+02 -0.14109973991E+03  0.21671709807E+03  0.47000000000E+01 0. -1.
        -11    1    4    4    0    0 -0.78731039494E+02 -0.43314554219E+02 -0.81299750776E+02  0.12117910985E+03  0.00000000000E+00 0.  1.
         12    1    4    4    0    0 -0.48359270316E+02 -0.39257912418E+02 -0.13588163914E+03  0.14947783304E+03  0.00000000000E+00 0. -1.
         -5    1    5    5    0  502  0.14681528375E+02 -0.37296810235E+02 -0.23413624890E+01  0.40424884755E+02  0.47000000000E+01 0.  1.
         11    1    6    6    0    0  0.59609779320E+02 -0.94046426876E+01  0.66898338910E+02  0.90095287577E+02  0.00000000000E+00 0. -1.
        -12    1    6    6    0    0  0.20378840519E+03  0.64179571458E+02  0.92313667160E+02  0.23274566511E+03  0.00000000000E+00 0.  1.
</event>
<event>
12    1  0.1050869E+000  0.3388625E+03  0.7818608E-02  0.1067307E+00
         21   -1    0    0  503  502  0.00000000000E+00  0.00000000000E+00  0.24509317039E+03  0.24509317039E+03  0.00000000000E+00 0.  1.
         21   -1    0    0  501  503 -0.00000000000E+00 -0.00000000000E+00 -0.13885164946E+04  0.13885164946E+04  0.00000000000E+00 0. -1.
          6    2    1    2  501    0 -0.22895819187E+03  0.18121450344E+03  0.93352353662E+02  0.35125172681E+03  0.17147175795E+03 0.  0.
         24    2    3    3    0    0 -0.11252398521E+03  0.28106768146E+02  0.69249569606E+02  0.15733953719E+03  0.80675829138E+02 0.  0.
         -6    2    1    2    0  502  0.22895819187E+03 -0.18121450344E+03 -0.12367756778E+04  0.12823579382E+04  0.17195131390E+03 0.  0.
        -24    2    5    5    0    0  0.63548308054E+02 -0.11904297444E+03 -0.70390901505E+03  0.72093590527E+03  0.77788564881E+02 0.  0.
          5    1    3    3  501    0 -0.11643420666E+03  0.15310773530E+03  0.24102784056E+02  0.19391218963E+03  0.47000000000E+01 0. -1.
        -11    1    4    4    0    0 -0.11405639050E+03  0.10401241519E+01  0.58359362624E+02  0.12812399182E+03  0.00000000000E+00 0.  1.
         12    1    4    4    0    0  0.15324052904E+01  0.27066643994E+02  0.10890206983E+02  0.29215545369E+02  0.00000000000E+00 0. -1.
         -5    1    5    5    0  502  0.16540988382E+03 -0.62171529007E+02 -0.53286666280E+03  0.56142203288E+03  0.47000000000E+01 0.  1.
         13    1    6    6    0    0  0.76905020418E+02 -0.73685220946E+02 -0.53690809096E+03  0.54737025137E+03  0.00000000000E+00 0. -1.
        -14    1    6    6    0    0 -0.13356712364E+02 -0.45357753491E+02 -0.16700092409E+03  0.17356565390E+03  0.00000000000E+00 0.  1.
</event>
<event>
12    1  0.1050869E+000  0.2773316E+03  0.7818608E-02  0.1097222E+00
         21   -1    0    0  501  502  0.00000000000E+00  0.00000000000E+00  0.13180484952E+04  0.13180484952E+04  0.00000000000E+00 0. -1.
         21   -1    0    0  502  503 -0.00000000000E+00 -0.00000000000E+00 -0.60255766500E+02  0.60255766500E+02  0.00000000000E+00 0. -1.
         -6    2    1    2    0  503 -0.21390305172E+03  0.46104097260E+02  0.75401984229E+03  0.80323908416E+03  0.16960837374E+03 0.  0.
        -24    2    3    3    0    0 -0.18575945684E+03  0.90882193909E+02  0.64437901314E+03  0.68141814471E+03  0.79625538561E+02 0.  0.
          6    2    1    2  501    0  0.21390305172E+03 -0.46104097260E+02  0.50377288643E+03  0.57506517755E+03  0.17038994693E+03 0.  0.
         24    2    5    5    0    0  0.40071130166E+02 -0.97004530542E+01  0.24670839237E+03  0.26257996771E+03  0.79896272234E+02 0.  0.
          5    1    5    5  501    0  0.17383192155E+03 -0.36403644206E+02  0.25706449406E+03  0.31248520984E+03  0.47000000000E+01 0. -1.
        -11    1    6    6    0    0  0.16797486250E+02 -0.38670415849E+02  0.19111568781E+03  0.19571091624E+03  0.00000000000E+00 0.  1.
         12    1    6    6    0    0  0.23273643916E+02  0.28969962795E+02  0.55592704556E+02  0.66869051476E+02  0.00000000000E+00 0. -1.
         -5    1    3    3    0  503 -0.28143594876E+02 -0.44778096649E+02  0.10964082915E+03  0.12182093945E+03  0.47000000000E+01 0.  1.
         11    1    4    4    0    0 -0.19169787865E+02  0.53183456527E+01  0.17391371686E+03  0.17504784055E+03  0.00000000000E+00 0. -1.
        -12    1    4    4    0    0 -0.16658966898E+03  0.85563848256E+02  0.47046529628E+03  0.50637030417E+03  0.00000000000E+00 0.  1.
</event>
<event>
12    1  0.1050869E+000  0.3159055E+03  0.7818608E-02  0.1077723E+00
         21   -1    0    0  501  502  0.00000000000E+00  0.00000000000E+00  0.19434207757E+03  0.19434207757E+03  0.00000000000E+00 0.  1.
         21   -1    0    0  502  503 -0.00000000000E+00 -0.00000000000E+00 -0.61140663674E+03  0.61140663674E+03  0.00000000000E+00 0.  1.
         -6    2    1    2    0  503 -0.23563215343E+03 -0.11999265632E+03 -0.37211456913E+03  0.48812453376E+03  0.17284547608E+03 0.  0.
        -24    2    3    3    0    0 -0.24768922601E+03 -0.97213027970E+02 -0.36867155062E+03  0.46170051356E+03  0.80301472518E+02 0.  0.
          6    2    1    2  501    0  0.23563215343E+03  0.11999265632E+03 -0.44949990047E+02  0.31762418055E+03  0.17012897803E+03 0.  0.
         24    2    5    5    0    0  0.30562546001E+02  0.41307599733E+02 -0.15481038983E+02  0.95959137984E+02  0.79549397112E+02 0.  0.
          5    1    5    5  501    0  0.20506960742E+03  0.78685056589E+02 -0.29468951064E+02  0.22166504257E+03  0.47000000000E+01 0. -1.
        -11    1    6    6    0    0 -0.47076858658E+00 -0.18640473820E+02 -0.21175433613E+02  0.28215029258E+02  0.00000000000E+00 0.  1.
         12    1    6    6    0    0  0.31033314588E+02  0.59948073553E+02  0.56943946307E+01  0.67744108727E+02  0.00000000000E+00 0. -1.
         -5    1    3    3    0  503  0.12057072588E+02 -0.22779628352E+02 -0.34430185026E+01  0.26424020202E+02  0.47000000000E+01 0.  1.
         13    1    4    4    0    0 -0.11884450597E+03 -0.36085650825E+02 -0.10809979653E+03  0.16465648121E+03  0.00000000000E+00 0. -1.
        -14    1    4    4    0    0 -0.12884472004E+03 -0.61127377145E+02 -0.26057175410E+03  0.29704403235E+03  0.00000000000E+00 0.  1.
</event>
<event>
12    1  0.1050869E+000  0.2094851E+03  0.7818608E-02  0.1142029E+00
         21   -1    0    0  501  502  0.00000000000E+00  0.00000000000E+00  0.28210093273E+03  0.28210093273E+03  0.00000000000E+00 0.  1.
         21   -1    0    0  502  503 -0.00000000000E+00 -0.00000000000E+00 -0.17484017645E+03  0.17484017645E+03  0.00000000000E+00 0.  1.
         -6    2    1    2    0  503 -0.10498893841E+03  0.56849887823E+02 -0.22670116397E+02  0.21043341169E+03  0.17179551694E+03 0.  0.
        -24    2    3    3    0    0 -0.25185457154E+02  0.89380017516E+02 -0.18671676287E+02  0.12403386028E+03  0.80079162198E+02 0.  0.
          6    2    1    2  501    0  0.10498893841E+03 -0.56849887823E+02  0.12993087268E+03  0.24650769749E+03  0.17213200258E+03 0.  0.
         24    2    5    5    0    0  0.12610546880E+03 -0.68545034542E+02  0.63905715386E+02  0.17605135847E+03  0.79430027945E+02 0.  0.
          5    1    5    5  501    0 -0.21116530383E+02  0.11695146719E+02  0.66025157295E+02  0.70456339020E+02  0.47000000000E+01 0. -1.
        -13    1    6    6    0    0 -0.47092364497E+01 -0.22891520553E+02 -0.23653823356E+00  0.23372089584E+02  0.00000000000E+00 0.  1.
         14    1    6    6    0    0  0.13081470525E+03 -0.45653513989E+02  0.64142253620E+02  0.15267926889E+03  0.00000000000E+00 0. -1.
         -5    1    3    3    0  503 -0.79803481261E+02 -0.32530129693E+02 -0.39984401094E+01  0.86399551402E+02  0.47000000000E+01 0.  1.
         13    1    4    4    0    0 -0.60641687149E+01  0.36703718209E+02  0.31553741886E+02  0.48780894821E+02  0.00000000000E+00 0. -1.
        -14    1    4    4    0    0 -0.19121288439E+02  0.52676299307E+02 -0.50225418173E+02  0.75252965463E+02  0.00000000000E+00 0.  1.
</event>
<event>
12    1  0.1050869E+000  0.2039442E+03  0.7818608E-02  0.1147398E+00
         21   -1    0    0  501  502  0.00000000000E+00  0.00000000000E+00  0.54364052672E+03  0.54364052672E+03  0.00000000000E+00 0. -1.
         21   -1    0    0  502  503 -0.00000000000E+00 -0.00000000000E+00 -0.12600983451E+03  0.12600983451E+03  0.00000000000E+00 0. -1.
         -6    2    1    2    0  503 -0.10094337803E+03 -0.41840232934E+02  0.42361838131E+03  0.47015502810E+03  0.17220060049E+03 0.  0.
        -24    2    3    3    0    0 -0.11782842594E+03 -0.66670699264E+01  0.22114960388E+03  0.26390772007E+03  0.82535747621E+02 0.  0.
          6    2    1    2  501    0  0.10094337803E+03  0.41840232934E+02 -0.59876890935E+01  0.19949533312E+03  0.16680037427E+03 0.  0.
         24    2    5    5    0    0  0.75978055647E+02  0.11587317085E+02 -0.65205155052E+02  0.12831033110E+03  0.79403387607E+02 0.  0.
          5    1    5    5  501    0  0.24965322384E+02  0.30252915849E+02  0.59217465959E+02  0.71185002028E+02  0.47000000000E+01 0. -1.
        -13    1    6    6    0    0  0.15495062284E+02  0.40521029356E+02 -0.27966921116E+02  0.51615883718E+02  0.00000000000E+00 0.  1.
         14    1    6    6    0    0  0.60482993363E+02 -0.28933712271E+02 -0.37238233937E+02  0.76694447378E+02  0.00000000000E+00 0. -1.
         -5    1    3    3    0  503  0.16885047907E+02 -0.35173163008E+02  0.20246877743E+03  0.20624730804E+03  0.47000000000E+01 0.  1.
         13    1    4    4    0    0  0.11565409447E+02  0.34713386484E+01  0.84583855433E+01  0.14742902485E+02  0.00000000000E+00 0. -1.
        -14    1    4    4    0    0 -0.12939383539E+03 -0.10138408575E+02  0.21269121834E+03  0.24916481758E+03  0.00000000000E+00 0.  1.
</event>
<event>
12    1  0.1050869E+000  0.3352540E+03  0.7818608E-02  0.1069375E+00
         21   -1    0    0  503  502  0.00000000000E+00  0.00000000000E+00  0.11585165298E+03  0.11585165298E+03  0.00000000000E+00 0.  1.
         21   -1    0    0  501  503 -0.00000000000E+00 -0.00000000000E+00 -0.10708555842E+04  0.10708555842E+04  0.00000000000E+00 0.  1.
          6    2    1    2  501    0  0.21936293441E+03 -0.17642557489E+03 -0.67503681279E+03  0.75370413222E+03  0.18206905240E+03 0.  0.
         24    2    3    3    0    0  0.16389441821E+03 -0.16381086516E+03 -0.37027644499E+03  0.44364468797E+03  0.77592419619E+02 0.  0.
         -6    2    1    2    0  502 -0.21936293441E+03  0.17642557489E+03 -0.27996711847E+03  0.43300310499E+03  0.17281209749E+03 0.  0.
        -24    2    5    5    0    0 -0.19151394079E+03  0.68319327870E+02 -0.17479948260E+03  0.27955979714E+03  0.79080345090E+02 0.  0.
          5    1    3    3  501    0  0.55468516204E+02 -0.12614709727E+02 -0.30476036779E+03  0.31005944425E+03  0.47000000000E+01 0. -1.
        -11    1    4    4    0    0  0.26227018704E+02 -0.57009236394E+02 -0.55087730963E+02  0.83501902056E+02  0.00000000000E+00 0.  1.
         12    1    4    4    0    0  0.13766739950E+03 -0.10680162877E+03 -0.31518871403E+03  0.36014278591E+03  0.00000000000E+00 0. -1.
         -5    1    5    5    0  502 -0.27848993619E+02  0.10810624702E+03 -0.10516763587E+03  0.15344330786E+03  0.47000000000E+01 0.  1.
         13    1    6    6    0    0 -0.15422868006E+03  0.79669787507E+02 -0.11516551293E+03  0.20831912097E+03  0.00000000000E+00 0. -1.
        -14    1    6    6    0    0 -0.37285260737E+02 -0.11350459638E+02 -0.59633969667E+02  0.71240676165E+02  0.00000000000E+00 0.  1.
</event>
<event>
12    1  0.1050869E+000  0.2295722E+03  0.7818608E-02  0.1127077E+00
         21   -1    0    0  501  502  0.00000000000E+00  0.00000000000E+00  0.65461846999E+03  0.65461846999E+03  0.00000000000E+00 0. -1.
         21   -1    0    0  502  503 -0.00000000000E+00 -0.00000000000E+00 -0.10286180039E+03  0.10286180039E+03  0.00000000000E+00 0. -1.
         -6    2    1    2    0  503 -0.11937218478E+03  0.92862147359E+02  0.45384700465E+03  0.50860642543E+03  0.17271449113E+03 0.  0.
        -24    2    3    3    0    0 -0.28305349544E+02  0.29794173505E+02  0.86047969961E+02  0.12445937322E+03  0.79981228167E+02 0.  0.
          6    2    1    2  501    0  0.11937218478E+03 -0.92862147359E+02  0.97909664954E+02  0.24887384495E+03  0.17169388834E+03 0.  0.
         24    2    5    5    0    0  0.14814341951E+03 -0.10163717770E+03  0.93288317551E+02  0.21808046973E+03  0.81115919847E+02 0.  0.
          5    1    5    5  501    0 -0.28771234724E+02  0.87750303444E+01  0.46213474036E+01  0.30793375212E+02  0.47000000000E+01 0. -1.
        -11    1    6    6    0    0  0.27094249203E+02 -0.48273725692E+01  0.50124090032E+02  0.57182394732E+02  0.00000000000E+00 0.  1.
         12    1    6    6    0    0  0.12104917031E+03 -0.96809805134E+02  0.43164227519E+02  0.16089807500E+03  0.00000000000E+00 0. -1.
         -5    1    3    3    0  503 -0.91066835241E+02  0.63067973854E+02  0.36779903469E+03  0.38414705221E+03  0.47000000000E+01 0.  1.
         11    1    4    4    0    0  0.19939399112E+01  0.38922265922E+02  0.84174936898E+02  0.92759574075E+02  0.00000000000E+00 0. -1.
        -12    1    4    4    0    0 -0.30299289455E+02 -0.91280924172E+01  0.18730330631E+01  0.31699799140E+02  0.00000000000E+00 0.  1.
</event>
<event>
12    1  0.1050869E+000  0.2050169E+03  0.7818608E-02  0.1145803E+00
         21   -1    0    0  503  502  0.00000000000E+00  0.00000000000E+00  0.10855580495E+03  0.10855580495E+03  0.00000000000E+00 0.  1.
         21   -1    0    0  501  503 -0.00000000000E+00 -0.00000000000E+00 -0.38756050632E+03  0.38756050632E+03  0.00000000000E+00 0.  1.
          6    2    1    2  501    0  0.23808859299E+02  0.10791583671E+03 -0.12004321185E+03  0.23757584376E+03  0.17268242306E+03 0.  0.
         24    2    3    3    0    0 -0.23338147815E+02  0.72432264658E+02 -0.13783090497E+03  0.17576632838E+03  0.78136686130E+02 0.  0.
         -6    2    1    2    0  502 -0.23808859299E+02 -0.10791583671E+03 -0.15896148952E+03  0.25854046750E+03  0.17135264396E+03 0.  0.
        -24    2    5    5    0    0 -0.11638429467E+02  0.93296580121E+01 -0.40575592507E+02  0.91411966023E+02  0.80543610956E+02 0.  0.
          5    1    3    3  501    0  0.47147007113E+02  0.35483572052E+02  0.17787693125E+02  0.61809515384E+02  0.47000000000E+01 0. -1.
        -13    1    4    4    0    0 -0.33095924953E+02 -0.18808228271E+01 -0.31933969055E+02  0.46028861843E+02  0.00000000000E+00 0.  1.
         14    1    4    4    0    0  0.97577771385E+01  0.74313087485E+02 -0.10589693592E+03  0.12973746654E+03  0.00000000000E+00 0. -1.
         -5    1    5    5    0  502 -0.12170429832E+02 -0.11724549472E+03 -0.11838589701E+03  0.16712850148E+03  0.47000000000E+01 0.  1.
         11    1    6    6    0    0 -0.22018883147E+02 -0.30917082296E+02 -0.30376362525E+02  0.48615024354E+02  0.00000000000E+00 0. -1.
        -12    1    6    6    0    0  0.10380453680E+02  0.40246740308E+02 -0.10199229983E+02  0.42796941669E+02  0.00000000000E+00 0.  1.
</event>
<event>
12    1  0.1050869E+000  0.1768779E+03  0.7818608E-02  0.1171199E+00
         21   -1    0    0  503  502  0.00000000000E+00  0.00000000000E+00  0.20312062658E+03  0.20312062658E+03  0.00000000000E+00 0. -1.
         21   -1    0    0  501  503 -0.00000000000E+00 -0.00000000000E+00 -0.16760533734E+03  0.16760533734E+03  0.00000000000E+00 0. -1.
          6    2    1    2  501    0  0.29984262377E+02  0.19187591478E+02 -0.37327707424E+02  0.17943593019E+03  0.17186237414E+03 0.  0.
         24    2    3    3    0    0 -0.19579846541E+01 -0.78931645689E+01  0.40930420226E+02  0.90553428897E+02  0.80364721329E+02 0.  0.
         -6    2    1    2    0  502 -0.29984262377E+02 -0.19187591478E+02  0.72842996671E+02  0.19129003373E+03  0.17325863667E+03 0.  0.
        -24    2    5    5    0    0  0.28437394662E+02  0.37986523650E+02  0.45940435464E+02  0.10510530624E+03  0.81761484793E+02 0.  0.
          5    1    3    3  501    0  0.31942247031E+02  0.27080756047E+02 -0.78258127650E+02  0.88882501297E+02  0.47000000000E+01 0. -1.
        -11    1    4    4    0    0  0.27603684496E+02 -0.31760615795E+02  0.15545199853E+02  0.44859261607E+02  0.00000000000E+00 0.  1.
         12    1    4    4    0    0 -0.29561669150E+02  0.23867451226E+02  0.25385220373E+02  0.45694167290E+02  0.00000000000E+00 0. -1.
         -5    1    5    5    0  502 -0.58421657040E+02 -0.57174115128E+02  0.26902561207E+02  0.86184727484E+02  0.47000000000E+01 0.  1.
         13    1    6    6    0    0  0.20954764994E+01 -0.25389479206E+02  0.16961400200E+02  0.30605649362E+02  0.00000000000E+00 0. -1.
        -14    1    6    6    0    0  0.26341918163E+02  0.63376002856E+02  0.28979035264E+02  0.74499656881E+02  0.00000000000E+00 0.  1.
</event>
<event>
12    1  0.1050869E+000  0.2823701E+03  0.7818608E-02  0.1094446E+00
         21   -1    0    0  501  502  0.00000000000E+00  0.00000000000E+00  0.19092627530E+03  0.19092627530E+03  0.00000000000E+00 0. -1.
         21   -1    0    0  502  503 -0.00000000000E+00 -0.00000000000E+00 -0.50602389385E+03  0.50602389385E+03  0.00000000000E+00 0. -1.
         -6    2    1    2    0  503  0.21969229434E+03  0.38835648774E+02 -0.11412878076E+02  0.28227282619E+03  0.17255370994E+03 0.  0.
        -24    2    3    3    0    0  0.22478367627E+03  0.71376073506E+02 -0.11574690401E+02  0.24900245507E+03  0.79031665722E+02 0.  0.
          6    2    1    2  501    0 -0.21969229434E+03 -0.38835648774E+02 -0.30368474047E+03  0.41467734295E+03  0.17308947211E+03 0.  0.
         24    2    5    5    0    0 -0.24158803160E+03 -0.40841112754E+02 -0.26481516086E+03  0.36977322939E+03  0.81070329029E+02 0.  0.
          5    1    5    5  501    0  0.21895737258E+02  0.20054639799E+01 -0.38869579616E+02  0.44904113568E+02  0.47000000000E+01 0. -1.
        -11    1    6    6    0    0 -0.21691785919E+03 -0.58513034753E+02 -0.24960907870E+03  0.33583005381E+03  0.00000000000E+00 0.  1.
         12    1    6    6    0    0 -0.24670172409E+02  0.17671921999E+02 -0.15206082158E+02  0.33943175579E+02  0.00000000000E+00 0. -1.
         -5    1    3    3    0  503 -0.50913819260E+01 -0.32540424732E+02  0.16181232520E+00  0.33270371126E+02  0.47000000000E+01 0.  1.
         11    1    4    4    0    0  0.18882954822E+02  0.12656206396E+02 -0.25842222447E+02  0.34417524666E+02  0.00000000000E+00 0. -1.
        -12    1    4    4    0    0  0.20590072144E+03  0.58719867110E+02  0.14267532045E+02  0.21458493040E+03  0.00000000000E+00 0.  1.
</event>
<event>
12    1  0.1050869E+000  0.1807964E+03  0.7818608E-02  0.1167354E+00
         21   -1    0    0  501  502  0.00000000000E+00  0.00000000000E+00  0.43170737075E+03  0.43170737075E+03  0.00000000000E+00 0.  1.
         21   -1    0    0  502  503 -0.00000000000E+00 -0.00000000000E+00 -0.77078566862E+02  0.77078566862E+02  0.00000000000E+00 0.  1.
         -6    2    1    2    0  503  0.12822275140E+02 -0.58581438491E+02  0.21804344933E+03  0.28324952522E+03  0.17056128536E+03 0.  0.
        -24    2    3    3    0    0  0.24827240913E+02 -0.45781138345E+02  0.23543526932E+03  0.25809933060E+03  0.92049953268E+02 0.  0.
          6    2    1    2  501    0 -0.12822275140E+02  0.58581438491E+02  0.13658535455E+03  0.22553641240E+03  0.16915944716E+03 0.  0.
         24    2    5    5    0    0  0.48311995233E+02  0.21778158067E+02  0.35617180404E+02  0.10180871681E+03  0.79297504538E+02 0.  0.
          5    1    5    5  501    0 -0.61134270373E+02  0.36803280424E+02  0.10096817415E+03  0.12372769559E+03  0.47000000000E+01 0. -1.
        -13    1    6    6    0    0 -0.17461120636E+02 -0.59767812239E+01 -0.57115831075E+01  0.19319286458E+02  0.00000000000E+00 0.  1.
         14    1    6    6    0    0  0.65773115869E+02  0.27754939291E+02  0.41328763512E+02  0.82489430350E+02  0.00000000000E+00 0. -1.
         -5    1    3    3    0  503 -0.12004965774E+02 -0.12800300146E+02 -0.17391819984E+02  0.25150194620E+02  0.47000000000E+01 0.  1.
         11    1    4    4    0    0  0.18568517280E+02  0.26953737035E+02  0.70195415782E+02  0.77451211553E+02  0.00000000000E+00 0. -1.
        -12    1    4    4    0    0  0.62587236334E+01 -0.72734875380E+02  0.16523985353E+03  0.18064811904E+03  0.00000000000E+00 0.  1.
</event>
<event>
12    1  0.1050869E+000  0.2542942E+03  0.7818608E-02  0.1111028E+00
         21   -1    0    0  501  502  0.00000000000E+00  0.00000000000E+00  0.14971337991E+03  0.14971337991E+03  0.00000000000E+00 0. -1.
         21   -1    0    0  502  503 -0.00000000000E+00 -0.00000000000E+00 -0.60862463813E+03  0.60862463813E+03  0.00000000000E+00 0. -1.
         -6    2    1    2    0  503  0.25204176901E+02  0.18582111713E+03 -0.23439317682E+02  0.25537213680E+03  0.17175793588E+03 0.  0.
        -24    2    3    3    0    0 -0.12507084566E+02  0.22770082068E+02 -0.27285920101E+02  0.87906720596E+02  0.79423965454E+02 0.  0.
          6    2    1    2  501    0 -0.25204176901E+02 -0.18582111713E+03 -0.43547194053E+03  0.50296588124E+03  0.16785150758E+03 0.  0.
         24    2    5    5    0    0 -0.24510301655E+01 -0.11244895113E+03 -0.13345145313E+03  0.19129354489E+03  0.78314467488E+02 0.  0.
          5    1    5    5  501    0 -0.22753146736E+02 -0.73372165999E+02 -0.30202048741E+03  0.31167233634E+03  0.47000000000E+01 0. -1.
        -11    1    6    6    0    0 -0.20184425009E+02 -0.31185091215E+02 -0.90187516461E+02  0.97538244050E+02  0.00000000000E+00 0.  1.
         12    1    6    6    0    0  0.17733394843E+02 -0.81263859911E+02 -0.43263936665E+02  0.93755300843E+02  0.00000000000E+00 0. -1.
         -5    1    3    3    0  503  0.37711261467E+02  0.16305103506E+03  0.38466024191E+01  0.16746541621E+03  0.47000000000E+01 0.  1.
         11    1    4    4    0    0  0.16165790602E+01 -0.21048058110E+02  0.14599011498E+02  0.25666421931E+02  0.00000000000E+00 0. -1.
        -12    1    4    4    0    0 -0.14123663626E+02  0.43818140178E+02 -0.41884931598E+02  0.62240298665E+02  0.00000000000E+00 0.  1.
</event>
<event>
12    1  0.1050869E+000  0.2520826E+03  0.7818608E-02  0.1112069E+00
         21   -1    0    0  501  502  0.00000000000E+00  0.00000000000E+00  0.37930321653E+03  0.37930321653E+03  0.00000000000E+00 0. -1.
         21   -1    0    0  502  503 -0.00000000000E+00 -0.00000000000E+00 -0.16723873674E+03  0.16723873674E+03  0.00000000000E+00 0. -1.
         -6    2    1    2    0  503  0.16638339322E+03 -0.79487897252E+02  0.10874720805E+03  0.27453887968E+03  0.17188333790E+03 0.  0.
        -24    2    3    3    0    0  0.19129249534E+03 -0.71513142146E+02  0.11437241526E+03  0.24737653363E+03  0.80044685932E+02 0.  0.
          6    2    1    2  501    0 -0.16638339322E+03  0.79487897252E+02  0.10331727175E+03  0.27200307359E+03  0.17120004103E+03 0.  0.
         24    2    5    5    0    0 -0.23082748322E+02  0.68497082617E+02  0.50316638404E+02  0.11874828583E+03  0.79653798970E+02 0.  0.
          5    1    5    5  501    0 -0.14330064490E+03  0.10990814635E+02  0.53000633344E+02  0.15325478775E+03  0.47000000000E+01 0. -1.
        -13    1    6    6    0    0 -0.19811760517E+02  0.86145938995E+02  0.48179180762E+02  0.10067205232E+03  0.00000000000E+00 0.  1.
         14    1    6    6    0    0 -0.32709878057E+01 -0.17648856378E+02  0.21374576419E+01  0.18076233508E+02  0.00000000000E+00 0. -1.
         -5    1    3    3    0  503 -0.24909102113E+02 -0.79747551063E+01 -0.56252072091E+01  0.27162346056E+02  0.47000000000E+01 0.  1.
         13    1    4    4    0    0  0.32434251384E+02 -0.41673133405E+02  0.68638917537E+01  0.53251701575E+02  0.00000000000E+00 0. -1.
        -14    1    4    4    0    0  0.15885824395E+03 -0.29840008741E+02  0.10750852351E+03  0.19412483205E+03  0.00000000000E+00 0.  1.
</event>
<event>
12    1  0.1050869E+000  0.2963669E+03  0.7818608E-02  0.1087078E+00
         21   -1    0    0  501  502  0.00000000000E+00  0.00000000000E+00  0.15717936007E+03  0.15717936007E+03  0.00000000000E+00 0.  1.
         21   -1    0    0  502  503 -0.00000000000E+00 -0.00000000000E+00 -0.10546252140E+04  0.10546252140E+04  0.00000000000E+00 0.  1.
         -6    2    1    2    0  503 -0.19216097070E+03  0.14610356343E+03 -0.86419020265E+03  0.91357767780E+03  0.17183531974E+03 0.  0.
        -24    2    3    3    0    0 -0.11045710139E+03  0.90031353142E+02 -0.72136381774E+03  0.73967804798E+03  0.80320864765E+02 0.  0.
          6    2    1    2  501    0  0.19216097070E+03 -0.14610356343E+03 -0.33255651288E+02  0.29822689628E+03  0.17193386350E+03 0.  0.
         24    2    5    5    0    0  0.10415916299E+03 -0.13430163215E+02  0.14034607610E+02  0.13207934779E+03  0.78857360995E+02 0.  0.
          5    1    5    5  501    0  0.88001807706E+02 -0.13267340021E+03 -0.47290258898E+02  0.16614754849E+03  0.47000000000E+01 0. -1.
        -13    1    6    6    0    0  0.75180178257E+01  0.18453365901E+02  0.22389385278E+02  0.29972185076E+02  0.00000000000E+00 0.  1.
         14    1    6    6    0    0  0.96641145167E+02 -0.31883529116E+02 -0.83547776683E+01  0.10210716272E+03  0.00000000000E+00 0. -1.
         -5    1    3    3    0  503 -0.81703869307E+02  0.56072210284E+02 -0.14282638491E+03  0.17389962982E+03  0.47000000000E+01 0.  1.
         13    1    4    4    0    0 -0.71253886803E+02  0.49806256230E+02 -0.24407109573E+03  0.25909164269E+03  0.00000000000E+00 0. -1.
        -14    1    4    4    0    0 -0.39203214588E+02  0.40225096911E+02 -0.47729272202E+03  0.48058640529E+03  0.00000000000E+00 0.  1.
</event>
<event>
12    1  0.1050869E+000  0.3595108E+03  0.7818608E-02  0.1058868E+00
         21   -1    0    0  501  502  0.00000000000E+00  0.00000000000E+00  0.17393507510E+04  0.17393507510E+04  0.00000000000E+00 0.  1.
         21   -1    0    0  502  503 -0.00000000000E+00 -0.00000000000E+00 -0.80287483637E+02  0.80287483637E+02  0.00000000000E+00 0.  1.
         -6    2    1    2    0  503  0.25997568503E+03 -0.17778896037E+03  0.10807163258E+04  0.11386586669E+04  0.17146285736E+03 0.  0.
        -24    2    3    3    0    0  0.83327483522E+02 -0.81492449185E+02  0.63596157848E+03  0.65049221937E+03  0.71473836980E+02 0.  0.
          6    2    1    2  501    0 -0.25997568503E+03  0.17778896037E+03  0.57834694154E+03  0.68097956779E+03  0.17335430690E+03 0.  0.
         24    2    5    5    0    0 -0.17664859451E+03  0.13955896931E+03  0.51971430029E+03  0.57205384607E+03  0.80381695828E+02 0.  0.
          5    1    5    5  501    0 -0.83327090522E+02  0.38229991063E+02  0.58632641247E+02  0.10892572172E+03  0.47000000000E+01 0. -1.
        -11    1    6    6    0    0 -0.12977614833E+03  0.14166967306E+03  0.41766155162E+03  0.45973178772E+03  0.00000000000E+00 0.  1.
         12    1    6    6    0    0 -0.46872446176E+02 -0.21107037514E+01  0.10205274867E+03  0.11232205835E+03  0.00000000000E+00 0. -1.
         -5    1    3    3    0  503  0.17664820151E+03 -0.96296511186E+02  0.44475474737E+03  0.48816644751E+03  0.47000000000E+01 0.  1.
         13    1    4    4    0    0  0.40556053663E+02 -0.83737748733E+02  0.46771596246E+03  0.47688051500E+03  0.00000000000E+00 0. -1.
        -14    1    4    4    0    0  0.42771429859E+02  0.22452995474E+01  0.16824561602E+03  0.17361170436E+03  0.00000000000E+00 0.  1.
</event>
<event>
12    1  0.1050869E+000  0.1798199E+03  0.7818608E-02  0.1168098E+00
         21   -1    0    0  503  502  0.00000000000E+00  0.00000000000E+00  0.95966714522E+03  0.95966714522E+03  0.00000000000E+00 0.  1.
         21   -1    0    0  501  503 -0.00000000000E+00 -0.00000000000E+00 -0.33805670967E+02  0.33805670967E+02  0.00000000000E+00 0.  1.
          6    2    1    2  501    0  0.37919670417E+02 -0.33502626541E+02  0.50093099729E+03  0.53206072900E+03  0.17203612383E+03 0.  0.
         24    2    3    3    0    0 -0.11553413618E+02 -0.61732071084E+01  0.44582860350E+03  0.45298578346E+03  0.79128923038E+02 0.  0.
         -6    2    1    2    0  502 -0.37919670417E+02  0.33502626541E+02  0.42493047696E+03  0.46141208719E+03  0.17255398160E+03 0.  0.
        -24    2    5    5    0    0 -0.20791839298E+02 -0.14494004040E+02  0.38974646375E+03  0.39930698329E+03  0.83074569862E+02 0.  0.
          5    1    3    3  501    0  0.49473084035E+02 -0.27329419433E+02  0.55102393790E+02  0.79074945538E+02  0.47000000000E+01 0. -1.
        -11    1    4    4    0    0  0.20097753068E+02 -0.15432445126E+02  0.36226835417E+03  0.36315346684E+03  0.00000000000E+00 0.  1.
         12    1    4    4    0    0 -0.31651166686E+02  0.92592380175E+01  0.83560249331E+02  0.89832316621E+02  0.00000000000E+00 0. -1.
         -5    1    5    5    0  502 -0.17127831119E+02  0.47996630581E+02  0.35184013210E+02  0.62105103909E+02  0.47000000000E+01 0.  1.
         11    1    6    6    0    0 -0.48782923578E+02  0.97935652803E+01  0.22928999118E+03  0.23462648531E+03  0.00000000000E+00 0. -1.
        -12    1    6    6    0    0  0.27991084280E+02 -0.24287569320E+02  0.16045647258E+03  0.16468049798E+03  0.00000000000E+00 0.  1.
</event>
<event>
12    1  0.1050869E+000  0.2369698E+03  0.7818608E-02  0.1121877E+00
         21   -1    0    0  501  502  0.00000000000E+00  0.00000000000E+00  0.74822235500E+03  0.74822235500E+03  0.00000000000E+00 0. -1.
         21   -1    0    0  502  503 -0.00000000000E+00 -0.00000000000E+00 -0.99604575614E+02  0.99604575614E+02  0.00000000000E+00 0. -1.
         -6    2    1    2    0  503 -0.15254782520E+03  0.56013098633E+02  0.11329605337E+03  0.26240057013E+03  0.17207485959E+03 0.  0.
        -24    2    3    3    0    0 -0.81923150162E+01  0.23023857848E+02  0.67154870894E+02  0.10723001220E+03  0.79945523801E+02 0.  0.
          6    2    1    2  501    0  0.15254782520E+03 -0.56013098633E+02  0.53532172602E+03  0.58542636049E+03  0.17247135131E+03 0.  0.
         24    2    5    5    0    0  0.77197101527E+02  0.26857120181E+02  0.35238761841E+03  0.37087524199E+03  0.81796785544E+02 0.  0.
          5    1    5    5  501    0  0.75350723669E+02 -0.82870218814E+02  0.18293410760E+03  0.21455111850E+03  0.47000000000E+01 0. -1.
        -13    1    6    6    0    0  0.38482384823E+02 -0.27973895095E+02  0.16988527617E+03  0.17642119999E+03  0.00000000000E+00 0.  1.
         14    1    6    6    0    0  0.38714716704E+02  0.54831015277E+02  0.18250234225E+03  0.19445404200E+03  0.00000000000E+00 0. -1.
         -5    1    3    3    0  503 -0.14435551018E+03  0.32989240785E+02  0.46141182479E+02  0.15517055793E+03  0.47000000000E+01 0.  1.
         11    1    4    4    0    0 -0.39001336390E+02  0.29282318192E+02  0.55038523630E+02  0.73537728292E+02  0.00000000000E+00 0. -1.
        -12    1    4    4    0    0  0.30809021374E+02 -0.62584603441E+01  0.12116347265E+02  0.33692283908E+02  0.00000000000E+00 0.  1.
</event>
<event>
12    1  0.1050869E+000  0.1767984E+03  0.7818608E-02  0.1171233E+00
         21   -1    0    0  503  502  0.00000000000E+00  0.00000000000E+00  0.31486704306E+03  0.31486704306E+03  0.00000000000E+00 0.  1.
         21   -1    0    0  501  503 -0.00000000000E+00 -0.00000000000E+00 -0.10144185698E+03  0.10144185698E+03  0.00000000000E+00 0.  1.
          6    2    1    2  501    0  0.23147391931E+01 -0.43500188369E+02  0.72263302628E+02  0.19099652437E+03  0.17134778379E+03 0.  0.
         24    2    3    3    0    0 -0.31755938321E+02  0.33779709228E+02  0.65284142569E+02  0.10612136715E+03  0.69643498764E+02 0.  0.
         -6    2    1    2    0  502 -0.23147391931E+01  0.43500188369E+02  0.14116188345E+03  0.22531237566E+03  0.17012161791E+03 0.  0.
        -24    2    5    5    0    0 -0.22097428604E+02 -0.34516416664E+02  0.10108176463E+03  0.13527654176E+03  0.80015874922E+02 0.  0.
          5    1    3    3  501    0  0.34070677514E+02 -0.77279897596E+02  0.69791600586E+01  0.84875157225E+02  0.47000000000E+01 0. -1.
        -13    1    4    4    0    0 -0.15798019717E+02 -0.76625384192E+01  0.58647802301E+02  0.61219740581E+02  0.00000000000E+00 0.  1.
         14    1    4    4    0    0 -0.15957918604E+02  0.41442247647E+02  0.66363402677E+01  0.44901626567E+02  0.00000000000E+00 0. -1.
         -5    1    5    5    0  502  0.19782689411E+02  0.78016605033E+02  0.40080118821E+02  0.90035833899E+02  0.47000000000E+01 0.  1.
         11    1    6    6    0    0 -0.34732367771E+02  0.10297359328E+02  0.71385682691E+02  0.80051787446E+02  0.00000000000E+00 0. -1.
        -12    1    6    6    0    0  0.12634939167E+02 -0.44813775993E+02  0.29696081940E+02  0.55224754314E+02  0.00000000000E+00 0.  1.
</event>
<event>
12    1  0.1050869E+000  0.5314078E+03  0.7818608E-02  0.1005897E+00
         21   -1    0    0  501  502  0.00000000000E+00  0.00000000000E+00  0.50254603919E+03  0.50254603919E+03  0.00000000000E+00 0. -1.
         21   -1    0    0  502  503 -0.00000000000E+00 -0.00000000000E+00 -0.66602305429E+03  0.66602305429E+03  0.00000000000E+00 0.  1.
         -6    2    1    2    0  503  0.46561436341E+03 -0.18980413701E+03  0.14935634364E+03  0.55199782532E+03  0.17196492647E+03 0.  0.
        -24    2    3    3    0    0  0.46777236615E+03 -0.17889051684E+03  0.16427452393E+03  0.53280391524E+03  0.77981339634E+02 0.  0.
          6    2    1    2  501    0 -0.46561436341E+03  0.18980413701E+03 -0.31283335874E+03  0.61657126816E+03  0.17167723359E+03 0.  0.
         24    2    5    5    0    0 -0.36533961966E+03  0.20948287721E+03 -0.24450915157E+03  0.49355677984E+03  0.80358298832E+02 0.  0.
          5    1    5    5  501    0 -0.10027474375E+03 -0.19678740193E+02 -0.68324207172E+02  0.12301448831E+03  0.47000000000E+01 0. -1.
        -11    1    6    6    0    0 -0.21630688634E+03  0.11451390823E+03 -0.96656968356E+02  0.26314382719E+03  0.00000000000E+00 0.  1.
         12    1    6    6    0    0 -0.14903273332E+03  0.94968968978E+02 -0.14785218321E+03  0.23041295265E+03  0.00000000000E+00 0. -1.
         -5    1    3    3    0  503 -0.21580027430E+01 -0.10913620173E+02 -0.14918180291E+02  0.19193910084E+02  0.47000000000E+01 0.  1.
         11    1    4    4    0    0  0.36908307330E+03 -0.10552261732E+03  0.12509439089E+03  0.40373994649E+03  0.00000000000E+00 0. -1.
        -12    1    4    4    0    0  0.98689292853E+02 -0.73367899517E+02  0.39180133034E+02  0.12906396874E+03  0.00000000000E+00 0.  1.
</event>
<event>
12    1  0.1050869E+000  0.2018288E+03  0.7818608E-02  0.1149484E+00
         21   -1    0    0  501  502  0.00000000000E+00  0.00000000000E+00  0.65267822934E+02  0.65267822934E+02  0.00000000000E+00 0.  1.
         21   -1    0    0  502  503 -0.00000000000E+00 -0.00000000000E+00 -0.66871733013E+03  0.66871733013E+03  0.00000000000E+00 0.  1.
         -6    2    1    2    0  503 -0.93601242911E+02 -0.66104804930E+01 -0.19313257729E+03  0.27934757182E+03  0.17868962572E+03 0.  0.
        -24    2    3    3    0    0 -0.70989042116E+02  0.44594144382E+02 -0.19085976970E+03  0.22312941738E+03  0.79568859474E+02 0.  0.
          6    2    1    2  501    0  0.93601242911E+02  0.66104804930E+01 -0.41031692990E+03  0.45463758125E+03  0.17184427889E+03 0.  0.
         24    2    5    5    0    0  0.72937668474E+02  0.70518897300E+02 -0.27751487520E+03  0.30574250147E+03  0.78556685841E+02 0.  0.
          5    1    5    5  501    0  0.20663574437E+02 -0.63908416807E+02 -0.13280205470E+03  0.14889507977E+03  0.47000000000E+01 0. -1.
        -13    1    6    6    0    0  0.35513077495E+02  0.65928575335E+02 -0.24421366685E+03  0.25543701923E+03  0.00000000000E+00 0.  1.
         14    1    6    6    0    0  0.37424590979E+02  0.45903219653E+01 -0.33301208352E+02  0.50305482239E+02  0.00000000000E+00 0. -1.
         -5    1    3    3    0  503 -0.22612200795E+02 -0.51204624875E+02 -0.22728075892E+01  0.56218154432E+02  0.47000000000E+01 0.  1.
         13    1    4    4    0    0 -0.23871782059E+02 -0.14630606776E+02 -0.10503469326E+03  0.10870236162E+03  0.00000000000E+00 0. -1.
        -14    1    4    4    0    0 -0.47117260057E+02  0.59224751157E+02 -0.85825076441E+02  0.11442705576E+03  0.00000000000E+00 0.  1.
</event>
<event>
12    1  0.1050869E+000  0.1866861E+03  0.7818608E-02  0.1161676E+00
         21   -1    0    0  503  502  0.00000000000E+00  0.00000000000E+00  0.15463561549E+03  0.15463561549E+03  0.00000000000E+00 0. -1.
         21   -1    0    0  501  503 -0.00000000000E+00 -0.00000000000E+00 -0.24573391876E+03  0.24573391876E+03  0.00000000000E+00 0. -1.
          6    2    1    2  501    0 -0.51131134909E+02  0.51306033345E+02  0.13555580765E+02  0.18635055977E+03  0.17116096325E+03 0.  0.
         24    2    3    3    0    0 -0.67599602849E+02  0.91134560855E+02 -0.72443469548E+01  0.13826470911E+03  0.78672960642E+02 0.  0.
         -6    2    1    2    0  502  0.51131134909E+02 -0.51306033345E+02 -0.10465388403E+03  0.21401897448E+03  0.17206098914E+03 0.  0.
        -24    2    5    5    0    0  0.31618037938E+02 -0.94996090856E+02 -0.41217772589E+02  0.13442115848E+03  0.79662949154E+02 0.  0.
          5    1    3    3  501    0  0.16468467940E+02 -0.39828527510E+02  0.20799927720E+02  0.48085850654E+02  0.47000000000E+01 0. -1.
        -11    1    4    4    0    0 -0.57522450341E+02  0.92398894290E+02  0.18670437108E+02  0.11043085249E+03  0.00000000000E+00 0.  1.
         12    1    4    4    0    0 -0.10077152507E+02 -0.12643334354E+01 -0.25914784063E+02  0.27833856627E+02  0.00000000000E+00 0. -1.
         -5    1    5    5    0  502  0.19513096971E+02  0.43690057512E+02 -0.63436111437E+02  0.79597816007E+02  0.47000000000E+01 0.  1.
         11    1    6    6    0    0  0.51926776288E+01 -0.51831177339E+01  0.20844784184E+02  0.22098272287E+02  0.00000000000E+00 0. -1.
        -12    1    6    6    0    0  0.26425360309E+02 -0.89812973123E+02 -0.62062556774E+02  0.11232288619E+03  0.00000000000E+00 0.  1.
</event>
<event>
12    1  0.1050869E+000  0.2239024E+03  0.7818608E-02  0.1131215E+00
         21   -1    0    0  501  502  0.00000000000E+00  0.00000000000E+00  0.37675672682E+03  0.37675672682E+03  0.00000000000E+00 0. -1.
         21   -1    0    0  502  503 -0.00000000000E+00 -0.00000000000E+00 -0.17993155074E+03  0.17993155074E+03  0.00000000000E+00 0. -1.
         -6    2    1    2    0  503 -0.62433094395E+02 -0.12866528594E+03  0.24131043840E+03  0.32840945183E+03  0.17079049531E+03 0.  0.
        -24    2    3    3    0    0 -0.46094421261E+02 -0.46404437402E+02  0.21838244594E+03  0.24133716990E+03  0.79212810836E+02 0.  0.
          6    2    1    2  501    0  0.62433094395E+02  0.12866528594E+03 -0.44485262316E+02  0.22827882572E+03  0.17227778914E+03 0.  0.
         24    2    5    5    0    0  0.40315324287E+02  0.15665517972E+03 -0.12239368523E+02  0.17996198006E+03  0.77912395820E+02 0.  0.
          5    1    5    5  501    0  0.22117770108E+02 -0.27989893776E+02 -0.32245893792E+02  0.48316845661E+02  0.47000000000E+01 0. -1.
        -13    1    6    6    0    0  0.18395144024E+02  0.24631102372E+02 -0.32350801465E+02  0.44627871148E+02  0.00000000000E+00 0.  1.
         14    1    6    6    0    0  0.21920180262E+02  0.13202407734E+03  0.20111432941E+02  0.13533410892E+03  0.00000000000E+00 0. -1.
         -5    1    3    3    0  503 -0.16338673134E+02 -0.82260848538E+02  0.22927992460E+02  0.87072281928E+02  0.47000000000E+01 0.  1.
         13    1    4    4    0    0  0.15108398341E+02  0.83545144958E+01  0.66151502225E+02  0.68367264531E+02  0.00000000000E+00 0. -1.
        -14    1    4    4    0    0 -0.61202819602E+02 -0.54758951898E+02  0.15223094371E+03  0.17296990537E+03  0.00000000000E+00 0.  1.
</event>
<event>
12    1  0.1050869E+000  0.1854171E+03  0.7818608E-02  0.1162926E+00
         21   -1    0    0  503  502  0.00000000000E+00  0.00000000000E+00  0.32960870121E+03  0.32960870121E+03  0.00000000000E+00 0. -1.
         21   -1    0    0  501  503 -0.00000000000E+00 -0.00000000000E+00 -0.11036795974E+03  0.11036795974E+03  0.00000000000E+00 0. -1.
          6    2    1    2  501    0  0.63901187844E+02  0.31875030747E+02  0.16351069012E+03  0.24636538144E+03  0.16988459612E+03 0.  0.
         24    2    3    3    0    0  0.42984882476E+02  0.45899404912E+02  0.23575215534E+02  0.10410434691E+03  0.79545388078E+02 0.  0.
         -6    2    1    2    0  502 -0.63901187844E+02 -0.31875030747E+02  0.55730051349E+02  0.19361127951E+03  0.17111431716E+03 0.  0.
        -24    2    5    5    0    0 -0.79747404780E+02  0.29442525042E+02  0.58211866361E+02  0.13005662079E+03  0.79369971498E+02 0.  0.
          5    1    3    3  501    0  0.20916305368E+02 -0.14024374166E+02  0.13993547458E+03  0.14226103454E+03  0.47000000000E+01 0. -1.
        -13    1    4    4    0    0 -0.75446985011E+01  0.37803469628E+02  0.34550711342E+02  0.51766557212E+02  0.00000000000E+00 0.  1.
         14    1    4    4    0    0  0.50529580977E+02  0.80959352844E+01 -0.10975495808E+02  0.52337789694E+02  0.00000000000E+00 0. -1.
         -5    1    5    5    0  502  0.15846216935E+02 -0.61317555789E+02 -0.24818150121E+01  0.63554658718E+02  0.47000000000E+01 0.  1.
         13    1    6    6    0    0  0.86788342304E+01  0.25273072748E+02  0.21184439357E+02  0.34100305579E+02  0.00000000000E+00 0. -1.
        -14    1    6    6    0    0 -0.88426239010E+02  0.41694522939E+01  0.37027427004E+02  0.95956315209E+02  0.00000000000E+00 0.  1.
</event>
<event>
12    1  0.1050869E+000  0.2003528E+03  0.7818608E-02  0.1149463E+00
         21   -1    0    0  501  502  0.00000000000E+00  0.00000000000E+00  0.12857781948E+03  0.12857781948E+03  0.00000000000E+00 0. -1.
         21   -1    0    0  502  503 -0.00000000000E+00 -0.00000000000E+00 -0.43390312706E+03  0.43390312706E+03  0.00000000000E+00 0. -1.
         -6    2    1    2    0  503 -0.56846257606E+02 -0.84407191410E+02 -0.36438571534E+01  0.20038591716E+03  0.17258379743E+03 0.  0.
        -24    2    3    3    0    0 -0.87593874815E+02 -0.56988352980E+02 -0.47696866751E+02  0.13988826167E+03  0.79833422669E+02 0.  0.
          6    2    1    2  501    0  0.56846257606E+02  0.84407191410E+02 -0.30168145043E+03  0.36209502938E+03  0.17246750940E+03 0.  0.
         24    2    5    5    0    0 -0.34287492488E+02  0.58201308934E+02 -0.13964317345E+03  0.17429033857E+03  0.79459937860E+02 0.  0.
          5    1    5    5  501    0  0.91133750093E+02  0.26205882476E+02 -0.16203827699E+03  0.18780469081E+03  0.47000000000E+01 0. -1.
        -11    1    6    6    0    0  0.10874462950E+02  0.40708816231E+02 -0.23028382530E+02  0.48018413815E+02  0.00000000000E+00 0.  1.
         12    1    6    6    0    0 -0.45161955438E+02  0.17492492703E+02 -0.11661479092E+03  0.12627192475E+03  0.00000000000E+00 0. -1.
         -5    1    3    3    0  503  0.30747617210E+02 -0.27418838430E+02  0.44053009597E+02  0.60497655487E+02  0.47000000000E+01 0.  1.
         13    1    4    4    0    0 -0.42813706443E+02  0.70002185638E+01  0.77995358202E+01  0.44077763990E+02  0.00000000000E+00 0. -1.
        -14    1    4    4    0    0 -0.44780168372E+02 -0.63988571544E+02 -0.55496402571E+02  0.95810497681E+02  0.00000000000E+00 0.  1.
</event>
<event>
12    1  0.1050869E+000  0.2115036E+03  0.7818608E-02  0.1140658E+00
         21   -1    0    0  501  502  0.00000000000E+00  0.00000000000E+00  0.94338024595E+02  0.94338024595E+02  0.00000000000E+00 0. -1.
         21   -1    0    0  502  503 -0.00000000000E+00 -0.00000000000E+00 -0.48729485308E+03  0.48729485308E+03  0.00000000000E+00 0.  1.
         -6    2    1    2    0  503 -0.58454998974E+02 -0.10692253697E+03 -0.25024396889E+03  0.32765200058E+03  0.17287097415E+03 0.  0.
        -24    2    3    3    0    0 -0.73869150233E+02 -0.78573875542E+02 -0.84142712834E+02  0.15838014844E+03  0.79835894337E+02 0.  0.
          6    2    1    2  501    0  0.58454998974E+02  0.10692253697E+03 -0.14271285960E+03  0.25398087710E+03  0.17114295141E+03 0.  0.
         24    2    5    5    0    0  0.45710787393E+02  0.33221908326E+02 -0.15061883344E+03  0.17862311695E+03  0.77633843428E+02 0.  0.
          5    1    5    5  501    0  0.12744211581E+02  0.73700628645E+02  0.79059738401E+01  0.75357760143E+02  0.47000000000E+01 0. -1.
        -11    1    6    6    0    0 -0.15837892551E+02  0.27528584301E+02 -0.71384074861E+02  0.78130326621E+02  0.00000000000E+00 0.  1.
         12    1    6    6    0    0  0.61548679944E+02  0.56933240248E+01 -0.79234758580E+02  0.10049279033E+03  0.00000000000E+00 0. -1.
         -5    1    3    3    0  503  0.15414151258E+02 -0.28348661428E+02 -0.16610125605E+03  0.16927185214E+03  0.47000000000E+01 0.  1.
         11    1    4    4    0    0 -0.70167422715E+02 -0.16623349258E+02 -0.44290642440E+02  0.84625433286E+02  0.00000000000E+00 0. -1.
        -12    1    4    4    0    0 -0.37017275173E+01 -0.61950526285E+02 -0.39852070393E+02  0.73754715159E+02  0.00000000000E+00 0.  1.
</event>
<event>
12    1  0.1050869E+000  0.5449628E+03  0.7818608E-02  0.1002739E+00
         21   -1    0    0  501  502  0.00000000000E+00  0.00000000000E+00  0.56632336644E+03  0.56632336644E+03  0.00000000000E+00 0. -1.
         21   -1    0    0  502  503 -0.00000000000E+00 -0.00000000000E+00 -0.71837964678E+03  0.71837964678E+03  0.00000000000E+00 0. -1.
         -6    2    1    2    0  503 -0.45666958313E+03  0.24247549956E+03  0.25870828589E+03  0.60325324217E+03  0.17217148709E+03 0.  0.
        -24    2    3    3    0    0 -0.34630448404E+03  0.10940931363E+03  0.16818702251E+03  0.40805269387E+03  0.79516871542E+02 0.  0.
          6    2    1    2  501    0  0.45666958313E+03 -0.24247549956E+03 -0.41076456623E+03  0.68144977105E+03  0.16824026139E+03 0.  0.
         24    2    5    5    0    0  0.42971069629E+03 -0.18270444196E+03 -0.32978100684E+03  0.57714354977E+03  0.79416427473E+02 0.  0.
          5    1    5    5  501    0  0.26958886841E+02 -0.59771057598E+02 -0.80983559389E+02  0.10430622128E+03  0.47000000000E+01 0. -1.
        -11    1    6    6    0    0  0.41612717357E+03 -0.19068260115E+03 -0.31604559870E+03  0.55624320168E+03  0.00000000000E+00 0.  1.
         12    1    6    6    0    0  0.13583522719E+02  0.79781591826E+01 -0.13735408134E+02  0.20900348083E+02  0.00000000000E+00 0. -1.
         -5    1    3    3    0  503 -0.11036509909E+03  0.13306618593E+03  0.90521263380E+02  0.19520054830E+03  0.47000000000E+01 0.  1.
         13    1    4    4    0    0 -0.57303606313E+01  0.16739211028E+02  0.15359941932E+02  0.23430024220E+02  0.00000000000E+00 0. -1.
        -14    1    4    4    0    0 -0.34057412341E+03  0.92670102604E+02  0.15282708057E+03  0.38462266965E+03  0.00000000000E+00 0.  1.
</event>
<event>
12    1  0.1050869E+000  0.1997530E+03  0.7818608E-02  0.1150329E+00
         21   -1    0    0  501  502  0.00000000000E+00  0.00000000000E+00  0.39149627416E+02  0.39149627416E+02  0.00000000000E+00 0. -1.
         21   -1    0    0  502  503 -0.00000000000E+00 -0.00000000000E+00 -0.10353768013E+04  0.10353768013E+04  0.00000000000E+00 0. -1.
         -6    2    1    2    0  503  0.42220369513E+02  0.92586401401E+02 -0.41190714181E+03  0.45700627258E+03  0.16980117307E+03 0.  0.
        -24    2    3    3    0    0  0.83047239687E+02  0.67940338868E+02 -0.36650580721E+03  0.39099390320E+03  0.83886780608E+02 0.  0.
          6    2    1    2  501    0 -0.42220369513E+02 -0.92586401401E+02 -0.58432003211E+03  0.61752015617E+03  0.17189078519E+03 0.  0.
         24    2    5    5    0    0 -0.83479011782E+02 -0.94208632922E+02 -0.36521017869E+03  0.39450418127E+03  0.80069110746E+02 0.  0.
          5    1    5    5  501    0  0.41258642269E+02  0.16222315215E+01 -0.21910985342E+03  0.22301597491E+03  0.47000000000E+01 0. -1.
        -13    1    6    6    0    0  0.70170221001E+00 -0.41005175488E+02 -0.17569224186E+03  0.18041530050E+03  0.00000000000E+00 0.  1.
         14    1    6    6    0    0 -0.84180713992E+02 -0.53203457435E+02 -0.18951793682E+03  0.21408888077E+03  0.00000000000E+00 0. -1.
         -5    1    3    3    0  503 -0.40826870174E+02  0.24646062533E+02 -0.45401334602E+02  0.66012369372E+02  0.47000000000E+01 0.  1.
         11    1    4    4    0    0  0.63501941433E+02  0.61537084317E+02 -0.35796235302E+03  0.36872259964E+03  0.00000000000E+00 0. -1.
        -12    1    4    4    0    0  0.19545298254E+02  0.64032545511E+01 -0.85434541905E+01  0.22271303558E+02  0.00000000000E+00 0.  1.
</event>
<event>
12    1  0.1050869E+000  0.1887538E+03  0.7818608E-02  0.1160941E+00
         21   -1    0    0  501  502  0.00000000000E+00  0.00000000000E+00  0.23220844316E+03  0.23220844316E+03  0.00000000000E+00 0.  1.
         21   -1    0    0  502  503 -0.00000000000E+00 -0.00000000000E+00 -0.32137012270E+03  0.32137012270E+03  0.00000000000E+00 0.  1.
         -6    2    1    2    0  503 -0.60506726906E+02  0.26393244878E+00  0.15860639065E+03  0.24210300248E+03  0.17261733109E+03 0.  0.
        -24    2    3    3    0    0 -0.64207524022E+00  0.22100359031E+02  0.16089511414E+03  0.17816604681E+03  0.73260250829E+02 0.  0.
          6    2    1    2  501    0  0.60506726906E+02 -0.26393244878E+00 -0.24776807019E+03  0.31147556338E+03  0.17879283072E+03 0.  0.
         24    2    5    5    0    0  0.70952099142E+02 -0.60957870736E+02 -0.12962623336E+03  0.17816223488E+03  0.78668667117E+02 0.  0.
          5    1    5    5  501    0 -0.10445372236E+02  0.60693938287E+02 -0.11814183683E+03  0.13331332850E+03  0.47000000000E+01 0. -1.
        -13    1    6    6    0    0 -0.98217450206E+01 -0.36536091279E+02 -0.39299447821E+02  0.54550886704E+02  0.00000000000E+00 0.  1.
         14    1    6    6    0    0  0.80773844163E+02 -0.24421779457E+02 -0.90326785539E+02  0.12361134818E+03  0.00000000000E+00 0. -1.
         -5    1    3    3    0  503 -0.59864651666E+02 -0.21836426583E+02 -0.22887234926E+01  0.63936955669E+02  0.47000000000E+01 0.  1.
         11    1    4    4    0    0  0.34529000553E+02 -0.79690518035E+00  0.74559527516E+02  0.82170615675E+02  0.00000000000E+00 0. -1.
        -12    1    4    4    0    0 -0.35171075793E+02  0.22897264212E+02  0.86335586627E+02  0.95995431137E+02  0.00000000000E+00 0.  1.
</event>
<event>
12    1  0.1050869E+000  0.2736460E+03  0.7818608E-02  0.1099320E+00
         21   -1    0    0  501  502  0.00000000000E+00  0.00000000000E+00  0.61929539499E+03  0.61929539499E+03  0.00000000000E+00 0.  1.
         21   -1    0    0  502  503 -0.00000000000E+00 -0.00000000000E+00 -0.12086828441E+03  0.12086828441E+03  0.00000000000E+00 0. -1.
         -6    2    1    2    0  503  0.21093835885E+03 -0.30662013587E+02  0.26781623040E+03  0.38289382283E+03  0.17160127035E+03 0.  0.
        -24    2    3    3    0    0  0.58620787958E+02 -0.62750037959E+02  0.11742854345E+03  0.16640172114E+03  0.80784317385E+02 0.  0.
          6    2    1    2  501    0 -0.21093835885E+03  0.30662013587E+02  0.23061088017E+03  0.35726985657E+03  0.17036790205E+03 0.  0.
         24    2    5    5    0    0 -0.10585387439E+03  0.56678994678E+01  0.20798175258E+03  0.24680890406E+03  0.80131503851E+02 0.  0.
          5    1    5    5  501    0 -0.10508448445E+03  0.24994114119E+02  0.22629127595E+02  0.11046095251E+03  0.47000000000E+01 0. -1.
        -11    1    6    6    0    0 -0.31183249672E+02 -0.29742471433E+02  0.36583063653E+02  0.56527251953E+02  0.00000000000E+00 0.  1.
         12    1    6    6    0    0 -0.74670624722E+02  0.35410370901E+02  0.17139868892E+03  0.19028165211E+03  0.00000000000E+00 0. -1.
         -5    1    3    3    0  503  0.15231757089E+03  0.32088024372E+02  0.15038768695E+03  0.21649210170E+03  0.47000000000E+01 0.  1.
         11    1    4    4    0    0  0.46587194560E+02  0.13175726792E+00  0.79050838147E+02  0.91757392447E+02  0.00000000000E+00 0. -1.
        -12    1    4    4    0    0  0.12033593398E+02 -0.62881795227E+02  0.38377705303E+02  0.74644328688E+02  0.00000000000E+00 0.  1.
</event>
<event>
12    1  0.1050869E+000  0.3108728E+03  0.7818608E-02  0.1080611E+00
         21   -1    0    0  503  502  0.00000000000E+00  0.00000000000E+00  0.36878268289E+03  0.36878268289E+03  0.00000000000E+00 0.  1.
         21   -1    0    0  501  503 -0.00000000000E+00 -0.00000000000E+00 -0.60118982917E+03  0.60118982917E+03  0.00000000000E+00 0.  1.
          6    2    1    2  501    0 -0.14049124837E+03  0.21682815813E+03  0.25013411889E+03  0.39901002743E+03  0.17288633124E+03 0.  0.
         24    2    3    3    0    0 -0.67590695748E+02  0.12163270367E+03  0.53958713584E+02  0.16904580245E+03  0.79384657212E+02 0.  0.
         -6    2    1    2    0  502  0.14049124837E+03 -0.21682815813E+03 -0.48254126517E+03  0.57096248463E+03  0.16248029183E+03 0.  0.
        -24    2    5    5    0    0  0.12565151223E+03 -0.95594301283E+02 -0.33234083384E+03  0.37731299357E+03  0.83594810355E+02 0.  0.
          5    1    3    3  501    0 -0.72900552621E+02  0.95195454455E+02  0.19617540531E+03  0.22996422498E+03  0.47000000000E+01 0. -1.
        -13    1    4    4    0    0 -0.18657726670E+02  0.10641871361E+03  0.28044224577E+02  0.11162227333E+03  0.00000000000E+00 0.  1.
         14    1    4    4    0    0 -0.48932969078E+02  0.15213990061E+02  0.25914489007E+02  0.57423529122E+02  0.00000000000E+00 0. -1.
         -5    1    5    5    0  502  0.14839736138E+02 -0.12123385684E+03 -0.15020043134E+03  0.19364949106E+03  0.47000000000E+01 0.  1.
         11    1    6    6    0    0  0.12232717586E+03 -0.76427286348E+02 -0.21845628395E+03  0.26177894501E+03  0.00000000000E+00 0. -1.
        -12    1    6    6    0    0  0.33243363661E+01 -0.19167014935E+02 -0.11388454989E+03  0.11553404856E+03  0.00000000000E+00 0.  1.
</event>
<event>
12    1  0.1050869E+000  0.1840015E+03  0.7818608E-02  0.1164120E+00
         21   -1    0    0  501  502  0.00000000000E+00  0.00000000000E+00  0.34240487797E+02  0.34240487797E+02  0.00000000000E+00 0.  1.
         21   -1    0    0  502  503 -0.00000000000E+00 -0.00000000000E+00 -0.10260416153E+04  0.10260416153E+04  0.00000000000E+00 0.  1.
         -6    2    1    2    0  503 -0.37974921749E+02  0.51756111285E+02 -0.39005910412E+03  0.43103652211E+03  0.17183011654E+03 0.  0.
        -24    2    3    3    0    0 -0.57064324508E+02  0.86067471470E+02 -0.20779955689E+03  0.24453636852E+03  0.77158492117E+02 0.  0.
          6    2    1    2  501    0  0.37974921749E+02 -0.51756111285E+02 -0.60174202336E+03  0.62924558096E+03  0.17244056584E+03 0.  0.
         24    2    5    5    0    0 -0.40744939971E+02 -0.45922006010E+02 -0.42669415720E+03  0.43716565265E+03  0.72642434563E+02 0.  0.
          5    1    5    5  501    0  0.78719861719E+02 -0.58341052747E+01 -0.17504786616E+03  0.19207992831E+03  0.47000000000E+01 0. -1.
        -13    1    6    6    0    0 -0.63055145283E+01  0.10414328602E+02 -0.11477677426E+02  0.16731850847E+02  0.00000000000E+00 0.  1.
         14    1    6    6    0    0 -0.34439425442E+02 -0.56336334612E+02 -0.41521647978E+03  0.42043380181E+03  0.00000000000E+00 0. -1.
         -5    1    3    3    0  503  0.19089402760E+02 -0.34311360185E+02 -0.18225954723E+03  0.18650015360E+03  0.47000000000E+01 0.  1.
         11    1    4    4    0    0 -0.67559124978E+02  0.40939562558E+02 -0.15717915152E+03  0.17591352655E+03  0.00000000000E+00 0. -1.
        -12    1    4    4    0    0  0.10494800470E+02  0.45127908912E+02 -0.50620405372E+02  0.68622841967E+02  0.00000000000E+00 0.  1.
</event>
<event>
12    1  0.1050869E+000  0.1957966E+03  0.7818608E-02  0.1153680E+00
         21   -1    0    0  503  502  0.00000000000E+00  0.00000000000E+00  0.42842822975E+02  0.42842822975E+02  0.00000000000E+00 0. -1.
         21   -1    0    0  501  503 -0.00000000000E+00 -0.00000000000E+00 -0.89375261523E+03  0.89375261523E+03  0.00000000000E+00 0. -1.
          6    2    1    2  501    0 -0.60828439145E+02  0.71521976816E+02 -0.46268028450E+03  0.50178690224E+03  0.17000458059E+03 0.  0.
         24    2    3    3    0    0 -0.89421284653E+02  0.42782640780E+02 -0.23186548690E+03  0.26739180621E+03  0.88939605997E+02 0.  0.
         -6    2    1    2    0  502  0.60828439145E+02 -0.71521976816E+02 -0.38822950776E+03  0.43480853596E+03  0.17181623927E+03 0.  0.
        -24    2    5    5    0    0  0.86889643187E+01  0.10970729505E+02 -0.26620806413E+03  0.27849188894E+03  0.80592454935E+02 0.  0.
          5    1    3    3  501    0  0.28592845508E+02  0.28739336036E+02 -0.23081479760E+03  0.23439509603E+03  0.47000000000E+01 0. -1.
        -11    1    4    4    0    0 -0.75234482771E+02  0.31675433439E+02 -0.23529312489E+03  0.24905102911E+03  0.00000000000E+00 0.  1.
         12    1    4    4    0    0 -0.14186801882E+02  0.11107207341E+02  0.34276379905E+01  0.18340777103E+02  0.00000000000E+00 0. -1.
         -5    1    5    5    0  502  0.52139474826E+02 -0.82492706322E+02 -0.12202144363E+03  0.15631664702E+03  0.47000000000E+01 0.  1.
         13    1    6    6    0    0  0.36821396170E+02  0.16775807843E+01 -0.22346506044E+03  0.22648457504E+03  0.00000000000E+00 0. -1.
        -14    1    6    6    0    0 -0.28132431851E+02  0.92931487211E+01 -0.42743003686E+02  0.52007313900E+02  0.00000000000E+00 0.  1.
</event>
<event>
12    1  0.1050869E+000  0.2467866E+03  0.7818608E-02  0.1115572E+00
         21   -1    0    0  503  502  0.00000000000E+00  0.00000000000E+00  0.12747351618E+03  0.12747351618E+03  0.00000000000E+00 0.  1.
         21   -1    0    0  501  503 -0.00000000000E+00 -0.00000000000E+00 -0.49194352697E+03  0.49194352697E+03  0.00000000000E+00 0.  1.
          6    2    1    2  501    0  0.63546918881E+02 -0.16651951421E+03 -0.23898855354E+03  0.34256107640E+03  0.16871752378E+03 0.  0.
         24    2    3    3    0    0 -0.10950581013E+02 -0.43193498519E+02 -0.14164540565E+03  0.16861579168E+03  0.79889115174E+02 0.  0.
         -6    2    1    2    0  502 -0.63546918881E+02  0.16651951421E+03 -0.12548145725E+03  0.27685596674E+03  0.17069467097E+03 0.  0.
        -24    2    5    5    0    0 -0.76070877972E+02  0.74628786676E+02 -0.19426677897E+02  0.13589334198E+03  0.82057116102E+02 0.  0.
          5    1    3    3  501    0  0.74497499894E+02 -0.12332601569E+03 -0.97343147894E+02  0.17394528472E+03  0.47000000000E+01 0. -1.
        -13    1    4    4    0    0 -0.75897761912E+01 -0.21924476037E+02 -0.14498133872E+03  0.14682600563E+03  0.00000000000E+00 0.  1.
         14    1    4    4    0    0 -0.33608048222E+01 -0.21269022482E+02  0.33359330763E+01  0.21789786045E+02  0.00000000000E+00 0. -1.
         -5    1    5    5    0  502  0.12523959092E+02  0.91890727529E+02 -0.10605477935E+03  0.14096262477E+03  0.47000000000E+01 0.  1.
         13    1    6    6    0    0 -0.25730939828E+02  0.71302965405E+02 -0.34435211237E+02  0.83258500544E+02  0.00000000000E+00 0. -1.
        -14    1    6    6    0    0 -0.50339938144E+02  0.33258212717E+01  0.15008533340E+02  0.52634841432E+02  0.00000000000E+00 0.  1.
</event>
<event>
12    1  0.1050869E+000  0.2703295E+03  0.7818608E-02  0.1101244E+00
         21   -1    0    0  503  502  0.00000000000E+00  0.00000000000E+00  0.32320899036E+03  0.32320899036E+03  0.00000000000E+00 0. -1.
         21   -1    0    0  501  503 -0.00000000000E+00 -0.00000000000E+00 -0.28727408143E+03  0.28727408143E+03  0.00000000000E+00 0.  1.
          6    2    1    2  501    0 -0.57990559120E+02  0.19864959887E+03  0.15987591442E+03  0.31406741533E+03  0.17393523301E+03 0.  0.
         24    2    3    3    0    0 -0.10452774679E+03  0.13112607472E+03  0.96605702091E+02  0.21038354041E+03  0.82513484222E+02 0.  0.
         -6    2    1    2    0  502  0.57990559120E+02 -0.19864959887E+03 -0.12394100549E+03  0.29641565645E+03  0.17226810636E+03 0.  0.
        -24    2    5    5    0    0  0.40891846063E+02 -0.83810215039E+02  0.68564774838E+01  0.12145702815E+03  0.77514535303E+02 0.  0.
          5    1    3    3  501    0  0.46537187674E+02  0.67523524150E+02  0.63270212327E+02  0.10368387492E+03  0.47000000000E+01 0. -1.
        -11    1    4    4    0    0 -0.12379840567E+02  0.80429548899E+02  0.48473607487E+02  0.94719920879E+02  0.00000000000E+00 0.  1.
         12    1    4    4    0    0 -0.92147906227E+02  0.50696525820E+02  0.48132094604E+02  0.11566361953E+03  0.00000000000E+00 0. -1.
         -5    1    5    5    0  502  0.17098713057E+02 -0.11483938383E+03 -0.13079748297E+03  0.17495862831E+03  0.47000000000E+01 0.  1.
         11    1    6    6    0    0  0.20313772973E+02 -0.77383326441E+02 -0.24259631438E+02  0.83602382149E+02  0.00000000000E+00 0. -1.
        -12    1    6    6    0    0  0.20578073090E+02 -0.64268885983E+01  0.31116108922E+02  0.37854645997E+02  0.00000000000E+00 0.  1.
</event>
<event>
12    1  0.1050869E+000  0.2910581E+03  0.7818608E-02  0.1089917E+00
         21   -1    0    0  503  502  0.00000000000E+00  0.00000000000E+00  0.18823660061E+03  0.18823660061E+03  0.00000000000E+00 0. -1.
         21   -1    0    0  501  503 -0.00000000000E+00 -0.00000000000E+00 -0.58822618824E+03  0.58822618824E+03  0.00000000000E+00 0. -1.
          6    2    1    2  501    0  0.37461632904E+02  0.23158015782E+03 -0.38935676913E+03  0.48612088204E+03  0.17228486543E+03 0.  0.
         24    2    3    3    0    0  0.58611548916E+02  0.24495774537E+03 -0.33994784782E+03  0.43053661898E+03  0.79734749999E+02 0.  0.
         -6    2    1    2    0  502 -0.37461632904E+02 -0.23158015782E+03 -0.10632818507E+02  0.29034190682E+03  0.17074139096E+03 0.  0.
        -24    2    5    5    0    0  0.37407683062E+02 -0.15819885768E+03  0.17354345476E+02  0.18173435168E+03  0.79372463440E+02 0.  0.
          5    1    3    3  501    0 -0.21149916011E+02 -0.13377587551E+02 -0.49408921303E+02  0.55584263063E+02  0.47000000000E+01 0. -1.
        -13    1    4    4    0    0 -0.86199493659E+01  0.10022586347E+03 -0.96173891164E+02  0.13917235565E+03  0.00000000000E+00 0.  1.
         14    1    4    4    0    0  0.67231498282E+02  0.14473188190E+03 -0.24377395666E+03  0.29136426333E+03  0.00000000000E+00 0. -1.
         -5    1    5    5    0  502 -0.74869315966E+02 -0.73381300142E+02 -0.27987163983E+02  0.10860755513E+03  0.47000000000E+01 0.  1.
         11    1    6    6    0    0  0.23583613021E+02 -0.15490024330E+03 -0.32321112668E+01  0.15671859724E+03  0.00000000000E+00 0. -1.
        -12    1    6    6    0    0  0.13824070041E+02 -0.32986143800E+01  0.20586456743E+02  0.25015754447E+02  0.00000000000E+00 0.  1.
</event>
<event>
12    1  0.1050869E+000  0.6439076E+03  0.7818608E-02  0.9818285E-01
         21   -1    0    0  501  502  0.00000000000E+00  0.00000000000E+00  0.30244633513E+03  0.30244633513E+03  0.00000000000E+00 0. -1.
         21   -1    0    0  502  503 -0.00000000000E+00 -0.00000000000E+00 -0.15225609927E+04  0.15225609927E+04  0.00000000000E+00 0. -1.
         -6    2    1    2    0  503 -0.62013773538E+03 -0.15692105600E+02 -0.89809535040E+03  0.11050674401E+04  0.17257385574E+03 0.  0.
        -24    2    3    3    0    0 -0.43518661556E+03  0.50043335172E+02 -0.59176613850E+03  0.74121617794E+03  0.85571806124E+02 0.  0.
          6    2    1    2  501    0  0.62013773538E+03  0.15692105600E+02 -0.32201930719E+03  0.71993988777E+03  0.17262663404E+03 0.  0.
         24    2    5    5    0    0  0.38772964980E+03 -0.54134431042E+02 -0.17252045152E+03  0.43487627854E+03  0.78033668914E+02 0.  0.
          5    1    5    5  501    0  0.23240808558E+03  0.69826536642E+02 -0.14949885567E+03  0.28506360923E+03  0.47000000000E+01 0. -1.
        -13    1    6    6    0    0  0.37214548515E+03 -0.47899855592E+02 -0.14423015095E+03  0.40198133629E+03  0.00000000000E+00 0.  1.
         14    1    6    6    0    0  0.15584164652E+02 -0.62345754498E+01 -0.28290300579E+02  0.32894942252E+02  0.00000000000E+00 0. -1.
         -5    1    3    3    0  503 -0.18495111982E+03 -0.65735440772E+02 -0.30632921189E+03  0.36385126214E+03  0.47000000000E+01 0.  1.
         13    1    4    4    0    0 -0.16511269065E+03  0.10632697376E+01 -0.16227776978E+03  0.23151113520E+03  0.00000000000E+00 0. -1.
        -14    1    4    4    0    0 -0.27007392491E+03  0.48980065434E+02 -0.42948836873E+03  0.50970504274E+03  0.00000000000E+00 0.  1.
</event>
<event>
12    1  0.1050869E+000  0.1917994E+03  0.7818608E-02  0.1156987E+00
         21   -1    0    0  503  502  0.00000000000E+00  0.00000000000E+00  0.45999684566E+02  0.45999684566E+02  0.00000000000E+00 0.  1.
         21   -1    0    0  501  503 -0.00000000000E+00 -0.00000000000E+00 -0.80418999313E+03  0.80418999313E+03  0.00000000000E+00 0.  1.
          6    2    1    2  501    0  0.15596205239E+02 -0.81434352910E+02 -0.41952414805E+03  0.46128896118E+03  0.17295143670E+03 0.  0.
         24    2    3    3    0    0 -0.11293830439E+02 -0.40136096742E+02 -0.39686613787E+03  0.40684545462E+03  0.79259294033E+02 0.  0.
         -6    2    1    2    0  502 -0.15596205239E+02  0.81434352910E+02 -0.33866616051E+03  0.38890071651E+03  0.17226202012E+03 0.  0.
        -24    2    5    5    0    0 -0.15921949221E+02  0.12427372918E+03 -0.26726669153E+03  0.30550232061E+03  0.78757318808E+02 0.  0.
          5    1    3    3  501    0  0.26890035678E+02 -0.41298256168E+02 -0.22658010184E+02  0.54443506562E+02  0.47000000000E+01 0. -1.
        -13    1    4    4    0    0 -0.52035007382E+01  0.24270383085E+02 -0.10458571885E+03  0.10749093219E+03  0.00000000000E+00 0.  1.
         14    1    4    4    0    0 -0.60903297006E+01 -0.64406479827E+02 -0.29228041902E+03  0.29935452243E+03  0.00000000000E+00 0. -1.
         -5    1    5    5    0  502  0.32574398223E+00 -0.42839376269E+02 -0.71399468978E+02  0.83398395900E+02  0.47000000000E+01 0.  1.
         13    1    6    6    0    0 -0.21037372802E+02  0.29425843441E+02 -0.21644780505E+02  0.42153859132E+02  0.00000000000E+00 0. -1.
        -14    1    6    6    0    0  0.51154235806E+01  0.94847885739E+02 -0.24562191102E+03  0.26334846148E+03  0.00000000000E+00 0.  1.
</event>
<event>
12    1  0.1050869E+000  0.2471290E+03  0.7818608E-02  0.1116074E+00
         21   -1    0    0  503  502  0.00000000000E+00  0.00000000000E+00  0.93711731311E+02  0.93711731311E+02  0.00000000000E+00 0.  1.
         21   -1    0    0  501  503 -0.00000000000E+00 -0.00000000000E+00 -0.63849679853E+03  0.63849679853E+03  0.00000000000E+00 0.  1.
          6    2    1    2  501    0  0.17309920037E+03  0.47288938222E+02 -0.29602899795E+03  0.38562407531E+03  0.16992110813E+03 0.  0.
         24    2    3    3    0    0  0.72051370787E+02  0.84029547906E+02 -0.19769025370E+03  0.23983952577E+03  0.78671448206E+02 0.  0.
         -6    2    1    2    0  502 -0.17309920037E+03 -0.47288938222E+02 -0.24875606927E+03  0.34658445453E+03  0.16137417786E+03 0.  0.
        -24    2    5    5    0    0 -0.17040328390E+03 -0.15573887827E+02 -0.25743265520E+03  0.31326050623E+03  0.50801059564E+02 0.  0.
          5    1    3    3  501    0  0.10104782958E+03 -0.36740609684E+02 -0.98338744248E+02  0.14578454953E+03  0.47000000000E+01 0. -1.
        -13    1    4    4    0    0 -0.36031059593E+01 -0.12074902978E+02 -0.11440060772E+02  0.17019419642E+02  0.00000000000E+00 0.  1.
         14    1    4    4    0    0  0.75654476746E+02  0.96104450885E+02 -0.18625019293E+03  0.22282010613E+03  0.00000000000E+00 0. -1.
         -5    1    5    5    0  502 -0.26959164699E+01 -0.31715050396E+02  0.86765859316E+01  0.33323948305E+02  0.47000000000E+01 0.  1.
         11    1    6    6    0    0 -0.75782825828E+02 -0.30805340730E+02 -0.10340580353E+03  0.13185130228E+03  0.00000000000E+00 0. -1.
        -12    1    6    6    0    0 -0.94620458067E+02  0.15231452904E+02 -0.15402685167E+03  0.18140920395E+03  0.00000000000E+00 0.  1.
</event>
<event>
12    1  0.1050869E+000  0.2082671E+03  0.7818608E-02  0.1142968E+00
         21   -1    0    0  501  502  0.00000000000E+00  0.00000000000E+00  0.40343592535E+03  0.40343592535E+03  0.00000000000E+00 0.  1.
         21   -1    0    0  502  503 -0.00000000000E+00 -0.00000000000E+00 -0.15304944305E+03  0.15304944305E+03  0.00000000000E+00 0.  1.
         -6    2    1    2    0  503  0.11590809448E+03 -0.12294096136E+02  0.27708027461E+03  0.34662465104E+03  0.17259588339E+03 0.  0.
        -24    2    3    3    0    0  0.10995043871E+03 -0.48099122802E+02  0.12242208857E+03  0.18769467241E+03  0.76416606143E+02 0.  0.
          6    2    1    2  501    0 -0.11590809448E+03  0.12294096136E+02 -0.26693792321E+02  0.20986071736E+03  0.17246196965E+03 0.  0.
         24    2    5    5    0    0 -0.43099944596E+02  0.17383956183E+02 -0.78210270199E+02  0.12040139220E+03  0.78865973161E+02 0.  0.
          5    1    5    5  501    0 -0.72808149883E+02 -0.50898600469E+01  0.51516477878E+02  0.89459325158E+02  0.47000000000E+01 0. -1.
        -13    1    6    6    0    0  0.20501872535E+02  0.17663166441E+02 -0.16023864061E+02  0.31449617575E+02  0.00000000000E+00 0.  1.
         14    1    6    6    0    0 -0.63601817131E+02 -0.27921025802E+00 -0.62186406138E+02  0.88951774626E+02  0.00000000000E+00 0. -1.
         -5    1    3    3    0  503  0.59576557659E+01  0.35805026667E+02  0.15465818604E+03  0.15892997863E+03  0.47000000000E+01 0.  1.
         11    1    4    4    0    0  0.72317043652E+02 -0.46994949800E+01  0.10516138773E+03  0.12771357612E+03  0.00000000000E+00 0. -1.
        -12    1    4    4    0    0  0.37633395062E+02 -0.43399627823E+02  0.17260700839E+02  0.59981096292E+02  0.00000000000E+00 0.  1.
</event>
<event>
12    1  0.1050869E+000  0.2580231E+03  0.7818608E-02  0.1108542E+00
         21   -1    0    0  503  502  0.00000000000E+00  0.00000000000E+00  0.76336175018E+03  0.76336175018E+03  0.00000000000E+00 0.  1.
         21   -1    0    0  501  503 -0.00000000000E+00 -0.00000000000E+00 -0.26484132632E+03  0.26484132632E+03  0.00000000000E+00 0.  1.
          6    2    1    2  501    0  0.15600214299E+03 -0.10891985114E+03  0.67103900562E+03  0.71893622216E+03  0.17428637891E+03 0.  0.
         24    2    3    3    0    0  0.21049887906E+02 -0.54737342212E+02  0.37894523247E+03  0.39261013104E+03  0.84284941565E+02 0.  0.
         -6    2    1    2    0  502 -0.15600214299E+03  0.10891985114E+03 -0.17251858176E+03  0.30926685435E+03  0.17228790890E+03 0.  0.
        -24    2    5    5    0    0  0.91859185354E+01  0.55126029690E+02 -0.90106275713E+02  0.11692666331E+03  0.49289384479E+02 0.  0.
          5    1    3    3  501    0  0.13495225509E+03 -0.54182508933E+02  0.29209377315E+03  0.32632609111E+03  0.47000000000E+01 0. -1.
        -13    1    4    4    0    0 -0.21378856939E+02 -0.55415979090E+02  0.19566619637E+03  0.20448287621E+03  0.00000000000E+00 0.  1.
         14    1    4    4    0    0  0.42428744844E+02  0.67863687766E+00  0.18327903610E+03  0.18812725483E+03  0.00000000000E+00 0. -1.
         -5    1    5    5    0  502 -0.16518806153E+03  0.53793821455E+02 -0.82412306044E+02  0.19234019103E+03  0.47000000000E+01 0.  1.
         13    1    6    6    0    0 -0.11443049356E+02  0.21613974033E+02 -0.66926345959E+02  0.71254775528E+02  0.00000000000E+00 0. -1.
        -14    1    6    6    0    0  0.20628967892E+02  0.33512055657E+02 -0.23179929754E+02  0.45671887787E+02  0.00000000000E+00 0.  1.
</event>
<event>
12    1  0.1050869E+000  0.2380597E+03  0.7818608E-02  0.1121191E+00
         21   -1    0    0  503  502  0.00000000000E+00  0.00000000000E+00  0.11334112849E+03  0.11334112849E+03  0.00000000000E+00 0. -1.
         21   -1    0    0  501  503 -0.00000000000E+00 -0.00000000000E+00 -0.61487766866E+03  0.61487766866E+03  0.00000000000E+00 0. -1.
          6    2    1    2  501    0  0.15256763831E+03  0.61042095980E+02 -0.92308588099E+02  0.25478460284E+03  0.17143890068E+03 0.  0.
         24    2    3    3    0    0  0.97367851974E+02  0.83115545646E+02 -0.68465395261E+01  0.15057277367E+03  0.78972099767E+02 0.  0.
         -6    2    1    2    0  502 -0.15256763831E+03 -0.61042095980E+02 -0.40922795207E+03  0.47343419431E+03  0.17224807068E+03 0.  0.
        -24    2    5    5    0    0 -0.14943934223E+03 -0.72449111247E+02 -0.41885151097E+03  0.45747771853E+03  0.79172495113E+02 0.  0.
          5    1    3    3  501    0  0.55199786335E+02 -0.22073449666E+02 -0.85462048573E+02  0.10421182916E+03  0.47000000000E+01 0. -1.
        -11    1    4    4    0    0 -0.11667119484E+02  0.16700402988E+02 -0.10358928315E+02  0.22854595443E+02  0.00000000000E+00 0.  1.
         12    1    4    4    0    0  0.10903497146E+03  0.66415142658E+02  0.35123887889E+01  0.12771817823E+03  0.00000000000E+00 0. -1.
         -5    1    5    5    0  502 -0.31282960812E+01  0.11407015267E+02  0.96235588996E+01  0.15956475788E+02  0.47000000000E+01 0.  1.
         11    1    6    6    0    0 -0.12735264825E+03 -0.24235948808E+02 -0.27121263653E+03  0.30060334736E+03  0.00000000000E+00 0. -1.
        -12    1    6    6    0    0 -0.22086693975E+02 -0.48213162439E+02 -0.14763887444E+03  0.15687437116E+03  0.00000000000E+00 0.  1.
</event>
<event>
12    1  0.1050869E+000  0.2352700E+03  0.7818608E-02  0.1123064E+00
         21   -1    0    0  501  502  0.00000000000E+00  0.00000000000E+00  0.72283968905E+03  0.72283968905E+03  0.00000000000E+00 0. -1.
         21   -1    0    0  502  503 -0.00000000000E+00 -0.00000000000E+00 -0.76969406459E+02  0.76969406459E+02  0.00000000000E+00 0. -1.
         -6    2    1    2    0  503 -0.13122130363E+03  0.92611980482E+02  0.35625809447E+03  0.42667752339E+03  0.17128301034E+03 0.  0.
        -24    2    3    3    0    0 -0.11981715876E+03  0.11967137417E+03  0.22895063434E+03  0.29594288868E+03  0.80538258400E+02 0.  0.
          6    2    1    2  501    0  0.13122130363E+03 -0.92611980482E+02  0.28961218811E+03  0.37313157212E+03  0.17191841423E+03 0.  0.
         24    2    5    5    0    0  0.98825128265E+02  0.18852507768E+01  0.20750066633E+03  0.24373438937E+03  0.81116988892E+02 0.  0.
          5    1    5    5  501    0  0.32396175368E+02 -0.94497231258E+02  0.82111521788E+02  0.12939718275E+03  0.47000000000E+01 0. -1.
        -13    1    6    6    0    0 -0.12660179174E+02  0.30199238881E+01  0.43651875921E+02  0.45550920391E+02  0.00000000000E+00 0.  1.
         14    1    6    6    0    0  0.11148530744E+03 -0.11346731114E+01  0.16384879040E+03  0.19818346897E+03  0.00000000000E+00 0. -1.
         -5    1    3    3    0  503 -0.11404144874E+02 -0.27059393687E+02  0.12730746013E+03  0.13073463471E+03  0.47000000000E+01 0.  1.
         13    1    4    4    0    0 -0.12269446010E+02  0.31180648226E+02  0.74994062256E+01  0.34336761975E+02  0.00000000000E+00 0. -1.
        -14    1    4    4    0    0 -0.10754771275E+03  0.88490725943E+02  0.22145122812E+03  0.26160612670E+03  0.00000000000E+00 0.  1.
</event>
<event>
12    1  0.1050869E+000  0.1803772E+03  0.7818608E-02  0.1167547E+00
         21   -1    0    0  501  502  0.00000000000E+00  0.00000000000E+00  0.21277899575E+03  0.21277899575E+03  0.00000000000E+00 0. -1.
         21   -1    0    0  502  503 -0.00000000000E+00 -0.00000000000E+00 -0.17966533613E+03  0.17966533613E+03  0.00000000000E+00 0. -1.
         -6    2    1    2    0  503  0.35994656463E+02  0.33012811277E+02  0.92798381417E+02  0.20244903197E+03  0.17317219740E+03 0.  0.
        -24    2    3    3    0    0  0.30195125434E+02 -0.13097511615E+01  0.12712901221E+03  0.15333330066E+03  0.80223776384E+02 0.  0.
          6    2    1    2  501    0 -0.35994656463E+02 -0.33012811277E+02 -0.59684721796E+02  0.18999529991E+03  0.17363895579E+03 0.  0.
         24    2    5    5    0    0 -0.52307643333E+02 -0.39075829835E+02  0.23048584216E+02  0.10532084297E+03  0.79361405609E+02 0.  0.
          5    1    5    5  501    0  0.16312986870E+02  0.60630185574E+01 -0.82733306012E+02  0.84674456941E+02  0.47000000000E+01 0. -1.
        -11    1    6    6    0    0 -0.50939352208E+02 -0.10926231817E+02 -0.18353971360E+02  0.55236477166E+02  0.00000000000E+00 0.  1.
         12    1    6    6    0    0 -0.13682911253E+01 -0.28149598018E+02  0.41402555576E+02  0.50084365799E+02  0.00000000000E+00 0. -1.
         -5    1    3    3    0  503  0.57995310293E+01  0.34322562439E+02 -0.34330630789E+02  0.49115731318E+02  0.47000000000E+01 0.  1.
         13    1    4    4    0    0  0.18784352105E+02  0.24209302224E+02  0.89923535201E+01  0.31934379906E+02  0.00000000000E+00 0. -1.
        -14    1    4    4    0    0  0.11410773329E+02 -0.25519053385E+02  0.11813665869E+03  0.12139892075E+03  0.00000000000E+00 0.  1.
</event>
<event>
12    1  0.1050869E+000  0.2196464E+03  0.7818608E-02  0.1134411E+00
         21   -1    0    0  503  502  0.00000000000E+00  0.00000000000E+00  0.12861015827E+03  0.12861015827E+03  0.00000000000E+00 0.  1.
         21   -1    0    0  501  503 -0.00000000000E+00 -0.00000000000E+00 -0.60809988384E+03  0.60809988384E+03  0.00000000000E+00 0.  1.
          6    2    1    2  501    0  0.12830587394E+03  0.37848035617E+02 -0.10099888318E+02  0.21847133819E+03  0.17243215123E+03 0.  0.
         24    2    3    3    0    0  0.36645886628E+01  0.19929831490E+02  0.25436871184E+02  0.87545926940E+02  0.81281163346E+02 0.  0.
         -6    2    1    2    0  502 -0.12830587394E+03 -0.37848035617E+02 -0.46938983725E+03  0.51823870392E+03  0.17421154909E+03 0.  0.
        -24    2    5    5    0    0 -0.17091082019E+02 -0.48014367449E+02 -0.30245743557E+03  0.31733922414E+03  0.81401463611E+02 0.  0.
          5    1    3    3  501    0  0.12464128528E+03  0.17918204127E+02 -0.35536759502E+02  0.13092541125E+03  0.47000000000E+01 0. -1.
        -13    1    4    4    0    0 -0.67901668495E+01  0.42398789684E+02  0.40099104450E+02  0.58751186457E+02  0.00000000000E+00 0.  1.
         14    1    4    4    0    0  0.10454755512E+02 -0.22468958193E+02 -0.14662233266E+02  0.28794740483E+02  0.00000000000E+00 0. -1.
         -5    1    5    5    0  502 -0.11121479193E+03  0.10166331832E+02 -0.16693240167E+03  0.20089947978E+03  0.47000000000E+01 0.  1.
         13    1    6    6    0    0 -0.35457143774E+02 -0.18078421882E+02 -0.25613098899E+03  0.25920478758E+03  0.00000000000E+00 0. -1.
        -14    1    6    6    0    0  0.18366061754E+02 -0.29935945567E+02 -0.46326446584E+02  0.58134436562E+02  0.00000000000E+00 0.  1.
</event>
<event>
12    1  0.1050869E+000  0.1897781E+03  0.7818608E-02  0.1159379E+00
         21   -1    0    0  501  502  0.00000000000E+00  0.00000000000E+00  0.38254292868E+03  0.38254292868E+03  0.00000000000E+00 0. -1.
         21   -1    0    0  502  503 -0.00000000000E+00 -0.00000000000E+00 -0.97841801257E+02  0.97841801257E+02  0.00000000000E+00 0. -1.
         -6    2    1    2    0  503 -0.57109634472E+02 -0.47405326761E+02  0.87850221582E+02  0.20912530310E+03  0.17466240469E+03 0.  0.
        -24    2    3    3    0    0 -0.13699786652E+01  0.12685446141E+02 -0.11283912514E+02  0.80410592364E+02  0.78585872123E+02 0.  0.
          6    2    1    2  501    0  0.57109634472E+02  0.47405326761E+02  0.19685090584E+03  0.27125942683E+03  0.17123849497E+03 0.  0.
         24    2    5    5    0    0  0.52512010139E+02  0.25346631403E+02  0.29297452176E+02  0.10213233254E+03  0.78566594129E+02 0.  0.
          5    1    5    5  501    0  0.45976243334E+01  0.22058695358E+02  0.16755345367E+03  0.16912709430E+03  0.47000000000E+01 0. -1.
        -13    1    6    6    0    0 -0.22620253737E+01  0.40261050161E+02  0.18415189861E+02  0.44330442548E+02  0.00000000000E+00 0.  1.
         14    1    6    6    0    0  0.54774035513E+02 -0.14914418757E+02  0.10882262314E+02  0.57801889989E+02  0.00000000000E+00 0. -1.
         -5    1    3    3    0  503 -0.55739655807E+02 -0.60090772902E+02  0.99134134096E+02  0.12871471074E+03  0.47000000000E+01 0.  1.
         13    1    4    4    0    0 -0.74028165919E+01 -0.26316346506E+02 -0.26537508636E+02  0.38099752644E+02  0.00000000000E+00 0. -1.
        -14    1    4    4    0    0  0.60328379267E+01  0.39001792647E+02  0.15253596121E+02  0.42310839720E+02  0.00000000000E+00 0.  1.
</event>
<event>
12    1  0.1050869E+000  0.4263558E+03  0.7818608E-02  0.1035089E+00
         21   -1    0    0  501  502  0.00000000000E+00  0.00000000000E+00  0.76116328057E+02  0.76116328057E+02  0.00000000000E+00 0. -1.
         21   -1    0    0  502  503 -0.00000000000E+00 -0.00000000000E+00 -0.24438571542E+04  0.24438571542E+04  0.00000000000E+00 0. -1.
         -6    2    1    2    0  503  0.38882733862E+03 -0.17402948593E+02 -0.98413917002E+03  0.10721707435E+04  0.17184480018E+03 0.  0.
        -24    2    3    3    0    0  0.26900465787E+03 -0.66087644759E+01 -0.50227641098E+03  0.57549398967E+03  0.80650836311E+02 0.  0.
          6    2    1    2  501    0 -0.38882733862E+03  0.17402948593E+02 -0.13836016561E+04  0.14478027388E+04  0.17403926476E+03 0.  0.
         24    2    5    5    0    0 -0.30061093777E+03  0.66186995672E+02 -0.11634684434E+04  0.12056401117E+04  0.71844315915E+02 0.  0.
          5    1    5    5  501    0 -0.88216400852E+02 -0.48784047080E+02 -0.22013321273E+03  0.24216262712E+03  0.47000000000E+01 0. -1.
        -13    1    6    6    0    0 -0.17175496729E+03  0.23422742052E+02 -0.52434210092E+03  0.55225268893E+03  0.00000000000E+00 0.  1.
         14    1    6    6    0    0 -0.12885597048E+03  0.42764253621E+02 -0.63912634250E+03  0.65338742274E+03  0.00000000000E+00 0. -1.
         -5    1    3    3    0  503  0.11982268075E+03 -0.10794184117E+02 -0.48186275904E+03  0.49667675382E+03  0.47000000000E+01 0.  1.
         11    1    4    4    0    0  0.10899229212E+03  0.31507193624E+02 -0.24701808952E+03  0.27182707655E+03  0.00000000000E+00 0. -1.
        -12    1    4    4    0    0  0.16001236575E+03 -0.38115958099E+02 -0.25525832145E+03  0.30366691312E+03  0.00000000000E+00 0.  1.
</event>
<event>
12    1  0.1050869E+000  0.2353375E+03  0.7818608E-02  0.1122942E+00
         21   -1    0    0  501  502  0.00000000000E+00  0.00000000000E+00  0.15622383926E+03  0.15622383926E+03  0.00000000000E+00 0.  1.
         21   -1    0    0  502  503 -0.00000000000E+00 -0.00000000000E+00 -0.46504306031E+03  0.46504306031E+03  0.00000000000E+00 0.  1.
         -6    2    1    2    0  503  0.14861615662E+02 -0.15925385009E+03 -0.29546942760E+01  0.23535608711E+03  0.17262995434E+03 0.  0.
        -24    2    3    3    0    0 -0.82016102483E+01 -0.16087607357E+03 -0.47141799603E+02  0.18526482764E+03  0.78436787486E+02 0.  0.
          6    2    1    2  501    0 -0.14861615662E+02  0.15925385009E+03 -0.30586452677E+03  0.38591081246E+03  0.17260182516E+03 0.  0.
         24    2    5    5    0    0  0.49939245663E+02  0.50223740516E+02 -0.16678540863E+03  0.19762430863E+03  0.78877388776E+02 0.  0.
          5    1    5    5  501    0 -0.64800861325E+02  0.10903010957E+03 -0.13907911814E+03  0.18828650383E+03  0.47000000000E+01 0. -1.
        -11    1    6    6    0    0  0.11394897135E+02 -0.19461553002E+02 -0.17949961817E+02  0.28823546888E+02  0.00000000000E+00 0.  1.
         12    1    6    6    0    0  0.38544348528E+02  0.69685293518E+02 -0.14883544681E+03  0.16880076174E+03  0.00000000000E+00 0. -1.
         -5    1    3    3    0  503  0.23063225910E+02  0.16222234867E+01  0.44187105327E+02  0.50091259473E+02  0.47000000000E+01 0.  1.
         13    1    4    4    0    0  0.79626018184E+01 -0.11313536466E+03  0.39654791176E+01  0.11348453106E+03  0.00000000000E+00 0. -1.
        -14    1    4    4    0    0 -0.16164212067E+02 -0.47740708915E+02 -0.51107278721E+02  0.71780296584E+02  0.00000000000E+00 0.  1.
</event>
<event>
12    1  0.1050869E+000  0.1816442E+03  0.7818608E-02  0.1166349E+00
         21   -1    0    0  503  502  0.00000000000E+00  0.00000000000E+00  0.51052702322E+03  0.51052702322E+03  0.00000000000E+00 0.  1.
         21   -1    0    0  501  503 -0.00000000000E+00 -0.00000000000E+00 -0.68067455043E+02  0.68067455043E+02  0.00000000000E+00 0.  1.
          6    2    1    2  501    0 -0.30349540688E+02  0.47371137049E+02  0.15412652271E+03  0.23781511393E+03  0.17215087617E+03 0.  0.
         24    2    3    3    0    0 -0.90395308025E+01  0.33635039064E+02  0.18145218528E+03  0.20024413119E+03  0.77199660386E+02 0.  0.
         -6    2    1    2    0  502  0.30349540688E+02 -0.47371137049E+02  0.28833304547E+03  0.34077936433E+03  0.17271221961E+03 0.  0.
        -24    2    5    5    0    0 -0.17635488965E+02 -0.17801710807E+02  0.26758946281E+03  0.28053569030E+03  0.80425378757E+02 0.  0.
          5    1    3    3  501    0 -0.21310009886E+02  0.13736097985E+02 -0.27325662569E+02  0.37570982740E+02  0.47000000000E+01 0. -1.
        -11    1    4    4    0    0 -0.24188815605E+02  0.53471153083E+02  0.14079564081E+03  0.15253745600E+03  0.00000000000E+00 0.  1.
         12    1    4    4    0    0  0.15149284802E+02 -0.19836114019E+02  0.40656544473E+02  0.47706675192E+02  0.00000000000E+00 0. -1.
         -5    1    5    5    0  502  0.47985029653E+02 -0.29569426242E+02  0.20743582657E+02  0.60243674030E+02  0.47000000000E+01 0.  1.
         13    1    6    6    0    0 -0.32242559825E+02  0.23843399243E+02  0.12893622996E+03  0.13502829981E+03  0.00000000000E+00 0. -1.
        -14    1    6    6    0    0  0.14607070860E+02 -0.41645110050E+02  0.13865323285E+03  0.14550739050E+03  0.00000000000E+00 0.  1.
</event>
<event>
12    1  0.1050869E+000  0.3440248E+03  0.7818608E-02  0.1065185E+00
         21   -1    0    0  501  502  0.00000000000E+00  0.00000000000E+00  0.28186709603E+03  0.28186709603E+03  0.00000000000E+00 0.  1.
         21   -1    0    0  502  503 -0.00000000000E+00 -0.00000000000E+00 -0.41956867377E+03  0.41956867377E+03  0.00000000000E+00 0.  1.
         -6    2    1    2    0  503 -0.29496928656E+03 -0.42415334621E+02 -0.54302386189E+02  0.34828407499E+03  0.17189271981E+03 0.  0.
        -24    2    3    3    0    0 -0.30812325361E+03 -0.57880253408E+02 -0.48203801024E+02  0.32657063899E+03  0.77683413062E+02 0.  0.
          6    2    1    2  501    0  0.29496928656E+03  0.42415334621E+02 -0.83399191560E+02  0.35315169481E+03  0.17016096429E+03 0.  0.
         24    2    5    5    0    0  0.25312115352E+03  0.23467981929E+02 -0.94878163332E+01  0.26600096445E+03  0.77752362644E+02 0.  0.
          5    1    5    5  501    0  0.41848133038E+02  0.18947352693E+02 -0.73911375227E+02  0.87150730351E+02  0.47000000000E+01 0. -1.
        -11    1    6    6    0    0  0.10604467848E+03  0.48377206552E+02 -0.49631209754E+00  0.11655931655E+03  0.00000000000E+00 0.  1.
         12    1    6    6    0    0  0.14707647504E+03 -0.24909224623E+02 -0.89915042356E+01  0.14944164791E+03  0.00000000000E+00 0. -1.
         -5    1    3    3    0  503  0.13153967051E+02  0.15464918787E+02 -0.60985851654E+01  0.21713436008E+02  0.47000000000E+01 0.  1.
         13    1    4    4    0    0 -0.97807475170E+02 -0.54464106630E+02 -0.27014076923E+02  0.11516250024E+03  0.00000000000E+00 0. -1.
        -14    1    4    4    0    0 -0.21031577844E+03 -0.34161467787E+01 -0.21189724100E+02  0.21140813874E+03  0.00000000000E+00 0.  1.
</event>
<event>
12    1  0.1050869E+000  0.2915029E+03  0.7818608E-02  0.1089986E+00
         21   -1    0    0  501  502  0.00000000000E+00  0.00000000000E+00  0.28892360380E+03  0.28892360380E+03  0.00000000000E+00 0. -1.
         21   -1    0    0  502  503 -0.00000000000E+00 -0.00000000000E+00 -0.30341643529E+03  0.30341643529E+03  0.00000000000E+00 0. -1.
         -6    2    1    2    0  503 -0.36973452478E+02 -0.23195700490E+03  0.53011120549E+02  0.29312320091E+03  0.16715245644E+03 0.  0.
        -24    2    3    3    0    0 -0.86523196722E+02 -0.18754577533E+03  0.42792619980E+02  0.22563955681E+03  0.80139377691E+02 0.  0.
          6    2    1    2  501    0  0.36973452478E+02  0.23195700490E+03 -0.67503952033E+02  0.29921683818E+03  0.17263500340E+03 0.  0.
         24    2    5    5    0    0  0.47049783883E+02  0.13124143458E+03  0.24159466032E+02  0.16258071276E+03  0.80067546777E+02 0.  0.
          5    1    5    5  501    0 -0.10076331404E+02  0.10071557032E+03 -0.91663418065E+02  0.13663612543E+03  0.47000000000E+01 0. -1.
        -11    1    6    6    0    0  0.53250070959E+02  0.14004802352E+03  0.20611376670E+02  0.15124102551E+03  0.00000000000E+00 0.  1.
         12    1    6    6    0    0 -0.62002870766E+01 -0.88065889426E+01  0.35480893618E+01  0.11339687242E+02  0.00000000000E+00 0. -1.
         -5    1    3    3    0  503  0.49549744244E+02 -0.44411229576E+02  0.10218500569E+02  0.67483644100E+02  0.47000000000E+01 0.  1.
         13    1    4    4    0    0 -0.67503419892E+02 -0.71932778139E+02  0.45060920378E+02  0.10845055469E+03  0.00000000000E+00 0. -1.
        -14    1    4    4    0    0 -0.19019776830E+02 -0.11561299719E+03 -0.22683003974E+01  0.11718900211E+03  0.00000000000E+00 0.  1.
</event>
<event>
12    1  0.1050869E+000  0.3065865E+03  0.7818608E-02  0.1083606E+00
         21   -1    0    0  501  502  0.00000000000E+00  0.00000000000E+00  0.13634301027E+03  0.13634301027E+03  0.00000000000E+00 0. -1.
         21   -1    0    0  502  503 -0.00000000000E+00 -0.00000000000E+00 -0.82692891920E+03  0.82692891920E+03  0.00000000000E+00 0. -1.
         -6    2    1    2    0  503  0.19549739373E+03  0.13567874365E+03 -0.12334215298E+03  0.31847680341E+03  0.17200649748E+03 0.  0.
        -24    2    3    3    0    0  0.20881548086E+03  0.82071061528E+02 -0.99972003265E+02  0.25831527978E+03  0.79955100807E+02 0.  0.
          6    2    1    2  501    0 -0.19549739373E+03 -0.13567874365E+03 -0.56724375595E+03  0.64479512606E+03  0.19330629450E+03 0.  0.
         24    2    5    5    0    0 -0.12719047578E+03 -0.15022588776E+03 -0.51650600826E+03  0.55834361663E+03  0.78891718114E+02 0.  0.
          5    1    5    5  501    0 -0.68306917947E+02  0.14547144107E+02 -0.50737747695E+02  0.86451509427E+02  0.47000000000E+01 0. -1.
        -13    1    6    6    0    0 -0.16109560592E+02 -0.61082342633E+02 -0.22810386675E+03  0.23668955310E+03  0.00000000000E+00 0.  1.
         14    1    6    6    0    0 -0.11108091519E+03 -0.89143545127E+02 -0.28840214151E+03  0.32165406353E+03  0.00000000000E+00 0. -1.
         -5    1    3    3    0  503 -0.13318087130E+02  0.53607682125E+02 -0.23370149716E+02  0.60161523629E+02  0.47000000000E+01 0.  1.
         13    1    4    4    0    0  0.70914427024E+02  0.29761099012E+01 -0.87118466725E+00  0.70982196028E+02  0.00000000000E+00 0. -1.
        -14    1    4    4    0    0  0.13790105383E+03  0.79094951626E+02 -0.99100818598E+02  0.18733308375E+03  0.00000000000E+00 0.  1.
</event>
<event>
12    1  0.1050869E+000  0.2212127E+03  0.7818608E-02  0.1133048E+00
         21   -1    0    0  501  502  0.00000000000E+00  0.00000000000E+00  0.10152626571E+04  0.10152626571E+04  0.00000000000E+00 0.  1.
         21   -1    0    0  502  503 -0.00000000000E+00 -0.00000000000E+00 -0.57532665263E+02  0.57532665263E+02  0.00000000000E+00 0.  1.
         -6    2    1    2    0  503  0.96445045666E+02  0.99500690573E+02  0.69612212168E+03  0.73042526995E+03  0.17243268957E+03 0.  0.
        -24    2    3    3    0    0  0.65056266083E+02  0.13116367870E+03  0.44304977995E+03  0.47341262347E+03  0.79938577557E+02 0.  0.
          6    2    1    2  501    0 -0.96445045666E+02 -0.99500690573E+02  0.26160787012E+03  0.34237005238E+03  0.17197831490E+03 0.  0.
         24    2    5    5    0    0 -0.72776385393E+02  0.77189516019E+01  0.10338111377E+03  0.14971997174E+03  0.79827506328E+02 0.  0.
          5    1    5    5  501    0 -0.23668660273E+02 -0.10721964217E+03  0.15822675635E+03  0.19265008064E+03  0.47000000000E+01 0. -1.
        -13    1    6    6    0    0 -0.11531690066E+02 -0.26102891331E+02  0.49578268129E+01  0.28964130546E+02  0.00000000000E+00 0.  1.
         14    1    6    6    0    0 -0.61244695327E+02  0.33821842933E+02  0.98423286962E+02  0.12075584119E+03  0.00000000000E+00 0. -1.
         -5    1    3    3    0  503  0.31388779583E+02 -0.31662988127E+02  0.25307234174E+03  0.25701264648E+03  0.47000000000E+01 0.  1.
         11    1    4    4    0    0  0.23366267512E+02 -0.25419916699E+01  0.36481856856E+02  0.43397811682E+02  0.00000000000E+00 0. -1.
        -12    1    4    4    0    0  0.41689998571E+02  0.13370567037E+03  0.40656792309E+03  0.43001481179E+03  0.00000000000E+00 0.  1.
</event>
<event>
12    1  0.1050869E+000  0.3739455E+03  0.7818608E-02  0.1053207E+00
         21   -1    0    0  501  502  0.00000000000E+00  0.00000000000E+00  0.53859334261E+03  0.53859334261E+03  0.00000000000E+00 0. -1.
         21   -1    0    0  502  503 -0.00000000000E+00 -0.00000000000E+00 -0.41088640459E+03  0.41088640459E+03  0.00000000000E+00 0. -1.
         -6    2    1    2    0  503  0.26357837895E+03 -0.20219126304E+03 -0.22427829135E+03  0.43593441016E+03  0.17141525396E+03 0.  0.
        -24    2    3    3    0    0  0.27642062766E+03 -0.17382807023E+03 -0.22009543661E+03  0.40416995940E+03  0.91031826695E+02 0.  0.
          6    2    1    2  501    0 -0.26357837895E+03  0.20219126304E+03  0.35198522938E+03  0.51354533704E+03  0.17169840652E+03 0.  0.
         24    2    5    5    0    0 -0.12529330076E+03  0.57183508575E+02  0.22765254098E+03  0.27768368457E+03  0.79461842374E+02 0.  0.
          5    1    5    5  501    0 -0.13828507819E+03  0.14500775446E+03  0.12433268840E+03  0.23586165248E+03  0.47000000000E+01 0. -1.
        -11    1    6    6    0    0 -0.23644419673E+02 -0.17685353785E+02  0.23886942599E+02  0.37979156743E+02  0.00000000000E+00 0.  1.
         12    1    6    6    0    0 -0.10164888108E+03  0.74868862360E+02  0.20376559838E+03  0.23970452782E+03  0.00000000000E+00 0. -1.
         -5    1    3    3    0  503 -0.12842248708E+02 -0.28363192809E+02 -0.41828547448E+01  0.31764450759E+02  0.47000000000E+01 0.  1.
         11    1    4    4    0    0  0.84104650926E+02 -0.12752407437E+02 -0.33081264551E+02  0.91272045376E+02  0.00000000000E+00 0. -1.
        -12    1    4    4    0    0  0.19231597673E+03 -0.16107566279E+03 -0.18701417206E+03  0.31289791402E+03  0.00000000000E+00 0.  1.
</event>
<event>
12    1  0.1050869E+000  0.2512901E+03  0.7818608E-02  0.1114435E+00
         21   -1    0    0  501  502  0.00000000000E+00  0.00000000000E+00  0.19717933761E+03  0.19717933761E+03  0.00000000000E+00 0.  1.
         21   -1    0    0  502  503 -0.00000000000E+00 -0.00000000000E+00 -0.32134403502E+03  0.32134403502E+03  0.00000000000E+00 0.  1.
         -6    2    1    2    0  503 -0.84325598079E+02  0.14778781107E+03 -0.52054588102E+01  0.25134398986E+03  0.18491798411E+03 0.  0.
        -24    2    3    3    0    0 -0.39211496403E+02  0.16278232662E+03  0.31673234547E+02  0.19099296924E+03  0.86252496792E+02 0.  0.
          6    2    1    2  501    0  0.84325598079E+02 -0.14778781107E+03 -0.11895923859E+03  0.26717938277E+03  0.16817098007E+03 0.  0.
         24    2    5    5    0    0  0.67063799252E+01 -0.61001592011E+02 -0.11116028894E+03  0.15039109371E+03  0.80589710700E+02 0.  0.
          5    1    5    5  501    0  0.77619218154E+02 -0.86786219057E+02 -0.77989496541E+01  0.11678828906E+03  0.47000000000E+01 0. -1.
        -13    1    6    6    0    0  0.20465459761E+02  0.97129407894E+01 -0.53561659565E+02  0.58155203012E+02  0.00000000000E+00 0.  1.
         14    1    6    6    0    0 -0.13759079836E+02 -0.70714532801E+02 -0.57598629375E+02  0.92235890699E+02  0.00000000000E+00 0. -1.
         -5    1    3    3    0  503 -0.45114101676E+02 -0.14994515549E+02 -0.36878693358E+02  0.60351020624E+02  0.47000000000E+01 0.  1.
         11    1    4    4    0    0 -0.24799002399E+02  0.24908233902E+02 -0.22968063068E+02  0.41987409508E+02  0.00000000000E+00 0. -1.
        -12    1    4    4    0    0 -0.14412494004E+02  0.13787409272E+03  0.54641297616E+02  0.14900555973E+03  0.00000000000E+00 0.  1.
</event>
<event>
12    1  0.1050869E+000  0.2706357E+03  0.7818608E-02  0.1101099E+00
         21   -1    0    0  501  502  0.00000000000E+00  0.00000000000E+00  0.10174170724E+03  0.10174170724E+03  0.00000000000E+00 0. -1.
         21   -1    0    0  502  503 -0.00000000000E+00 -0.00000000000E+00 -0.83576986513E+03  0.83576986513E+03  0.00000000000E+00 0. -1.
         -6    2    1    2    0  503 -0.20725943463E+03  0.80501995980E+01 -0.54334691624E+03  0.60644813752E+03  0.17184933272E+03 0.  0.
        -24    2    3    3    0    0 -0.25560493319E+02  0.17448569686E+02 -0.20928418101E+03  0.22602359085E+03  0.79555036295E+02 0.  0.
          6    2    1    2  501    0  0.20725943463E+03 -0.80501995980E+01 -0.19068124165E+03  0.33106343485E+03  0.17384585995E+03 0.  0.
         24    2    5    5    0    0  0.62987369620E+02 -0.28713648066E+02 -0.14181741572E+03  0.17727406484E+03  0.80759100700E+02 0.  0.
          5    1    5    5  501    0  0.14427206501E+03  0.20663448468E+02 -0.48863825932E+02  0.15378937002E+03  0.47000000000E+01 0. -1.
        -11    1    6    6    0    0  0.49180267342E+02 -0.56760712805E+02 -0.10067686041E+03  0.12560377158E+03  0.00000000000E+00 0.  1.
         12    1    6    6    0    0  0.13807102278E+02  0.28047064739E+02 -0.41140555305E+02  0.51670293251E+02  0.00000000000E+00 0. -1.
         -5    1    3    3    0  503 -0.18169894131E+03 -0.93983700885E+01 -0.33406273523E+03  0.38042454666E+03  0.47000000000E+01 0.  1.
         13    1    4    4    0    0 -0.29829768781E+02  0.43747428156E+02 -0.17356628548E+03  0.18146324155E+03  0.00000000000E+00 0. -1.
        -14    1    4    4    0    0  0.42692754619E+01 -0.26298858470E+02 -0.35717895523E+02  0.44560349307E+02  0.00000000000E+00 0.  1.
</event>
<event>
12    1  0.1050869E+000  0.2005371E+03  0.7818608E-02  0.1150037E+00
         21   -1    0    0  503  502  0.00000000000E+00  0.00000000000E+00  0.29457845377E+03  0.29457845377E+03  0.00000000000E+00 0. -1.
         21   -1    0    0  501  503 -0.00000000000E+00 -0.00000000000E+00 -0.19219424137E+03  0.19219424137E+03  0.00000000000E+00 0. -1.
          6    2    1    2  501    0 -0.60099249456E+02  0.85219169751E+02  0.18529341391E+03  0.27303618801E+03  0.17129180964E+03 0.  0.
         24    2    3    3    0    0 -0.48692107264E+02 -0.16679722783E+02  0.96191052254E+02  0.13711404837E+03  0.83056662980E+02 0.  0.
         -6    2    1    2    0  502  0.60099249456E+02 -0.85219169751E+02 -0.82909201506E+02  0.21373650714E+03  0.16713806302E+03 0.  0.
        -24    2    5    5    0    0  0.62516143836E+02 -0.11566588270E+03 -0.37195401745E+02  0.15855784100E+03  0.80437717338E+02 0.  0.
          5    1    3    3  501    0 -0.11407142192E+02  0.10189889253E+03  0.89102361651E+02  0.13592213964E+03  0.47000000000E+01 0. -1.
        -11    1    4    4    0    0 -0.38731553094E+02 -0.12849524202E+02  0.11134061376E+03  0.11858320181E+03  0.00000000000E+00 0.  1.
         12    1    4    4    0    0 -0.99605541697E+01 -0.38301985808E+01 -0.15149561509E+02  0.18530846566E+02  0.00000000000E+00 0. -1.
         -5    1    5    5    0  502 -0.24168943800E+01  0.30446712949E+02 -0.45713799762E+02  0.55178666136E+02  0.47000000000E+01 0.  1.
         13    1    6    6    0    0  0.39140425446E+02 -0.10924615056E+02  0.91603490627E+01  0.41656117356E+02  0.00000000000E+00 0. -1.
        -14    1    6    6    0    0  0.23375718390E+02 -0.10474126764E+03 -0.46355750807E+02  0.11690172364E+03  0.00000000000E+00 0.  1.
</event>
<event>
12    1  0.1050869E+000  0.1958538E+03  0.7818608E-02  0.1153923E+00
         21   -1    0    0  503  502  0.00000000000E+00  0.00000000000E+00  0.18118851013E+03  0.18118851013E+03  0.00000000000E+00 0. -1.
         21   -1    0    0  501  503 -0.00000000000E+00 -0.00000000000E+00 -0.27499164026E+03  0.27499164026E+03  0.00000000000E+00 0. -1.
          6    2    1    2  501    0 -0.87126097988E+02 -0.27556208454E+02 -0.15873699847E+03  0.24984277379E+03  0.16992255694E+03 0.  0.
         24    2    3    3    0    0 -0.12502782792E+03 -0.45411356988E+01 -0.10788767422E+03  0.18221157920E+03  0.76868261818E+02 0.  0.
         -6    2    1    2    0  502  0.87126097988E+02  0.27556208454E+02  0.64933868336E+02  0.20633737659E+03  0.17322933974E+03 0.  0.
        -24    2    5    5    0    0  0.89297379123E+02 -0.41444581479E+02  0.41498336226E+02  0.13328166061E+03  0.79688229321E+02 0.  0.
          5    1    3    3  501    0  0.37901729936E+02 -0.23015072755E+02 -0.50849324247E+02  0.67631194596E+02  0.47000000000E+01 0. -1.
        -13    1    4    4    0    0  0.60872890654E+00 -0.15022102162E+02  0.17478880706E+01  0.15135693474E+02  0.00000000000E+00 0.  1.
         14    1    4    4    0    0 -0.12563655683E+03  0.10480966463E+02 -0.10963556229E+03  0.16707588572E+03  0.00000000000E+00 0. -1.
         -5    1    5    5    0  502 -0.21712811344E+01  0.69000789933E+02  0.23435532110E+02  0.73055715987E+02  0.47000000000E+01 0.  1.
         11    1    6    6    0    0 -0.12642252034E+02 -0.76138713647E+00 -0.55965544012E+01  0.13846576040E+02  0.00000000000E+00 0. -1.
        -12    1    6    6    0    0  0.10193963116E+03 -0.40683194343E+02  0.47094890627E+02  0.11943508457E+03  0.00000000000E+00 0.  1.
</event>
<event>
12    1  0.1050869E+000  0.3231773E+03  0.7818608E-02  0.1074257E+00
         21   -1    0    0  501  502  0.00000000000E+00  0.00000000000E+00  0.12047663667E+03  0.12047663667E+03  0.00000000000E+00 0. -1.
         21   -1    0    0  502  503 -0.00000000000E+00 -0.00000000000E+00 -0.86678430797E+03  0.86678430797E+03  0.00000000000E+00 0. -1.
         -6    2    1    2    0  503 -0.16690390795E+03 -0.21651622104E+03 -0.39188037234E+03  0.50761285065E+03  0.17136041392E+03 0.  0.
        -24    2    3    3    0    0 -0.94056345465E+02 -0.57347250179E+02 -0.10157087673E+03  0.16858007659E+03  0.77248275052E+02 0.  0.
          6    2    1    2  501    0  0.16690390795E+03  0.21651622104E+03 -0.35442729896E+03  0.47964809400E+03  0.17235833419E+03 0.  0.
         24    2    5    5    0    0  0.15121253941E+03  0.23844353551E+03 -0.30641957221E+03  0.42438637131E+03  0.80562312615E+02 0.  0.
          5    1    5    5  501    0  0.15691368539E+02 -0.21927314478E+02 -0.48007726749E+02  0.55261722688E+02  0.47000000000E+01 0. -1.
        -13    1    6    6    0    0  0.14089251798E+03  0.18226246472E+03 -0.27653749471E+03  0.35992123256E+03  0.00000000000E+00 0.  1.
         14    1    6    6    0    0  0.10320021426E+02  0.56181070790E+02 -0.29882077507E+02  0.64465138746E+02  0.00000000000E+00 0. -1.
         -5    1    3    3    0  503 -0.72847562482E+02 -0.15916897086E+03 -0.29030949561E+03  0.33903277406E+03  0.47000000000E+01 0.  1.
         11    1    4    4    0    0 -0.45270108205E+02  0.10257526568E+02 -0.58695255867E+02  0.74831361136E+02  0.00000000000E+00 0. -1.
        -12    1    4    4    0    0 -0.48786237260E+02 -0.67604776747E+02 -0.42875620860E+02  0.93748715453E+02  0.00000000000E+00 0.  1.
</event>
<event>
12    1  0.1050869E+000  0.2552019E+03  0.7818608E-02  0.1110085E+00
         21   -1    0    0  503  502  0.00000000000E+00  0.00000000000E+00  0.68635618320E+02  0.68635618320E+02  0.00000000000E+00 0.  1.
         21   -1    0    0  501  503 -0.00000000000E+00 -0.00000000000E+00 -0.98110522592E+03  0.98110522592E+03  0.00000000000E+00 0.  1.
          6    2    1    2  501    0  0.17167082262E+03 -0.78549905729E+02 -0.55232892758E+03  0.60843672681E+03  0.17171792933E+03 0.  0.
         24    2    3    3    0    0  0.94594195595E+02 -0.31461373538E+02 -0.15635405593E+03  0.20226394919E+03  0.80785112925E+02 0.  0.
         -6    2    1    2    0  502 -0.17167082262E+03  0.78549905729E+02 -0.36014068002E+03  0.44130411744E+03  0.17148485541E+03 0.  0.
        -24    2    5    5    0    0 -0.28180446817E+02  0.49580860312E+02 -0.18938965161E+03  0.21634479391E+03  0.87659742310E+02 0.  0.
          5    1    3    3  501    0  0.77076627021E+02 -0.47088532192E+02 -0.39597487166E+03  0.40617277762E+03  0.47000000000E+01 0. -1.
        -11    1    4    4    0    0  0.89961754001E+02 -0.34042186119E+02 -0.78293888915E+02  0.12402387133E+03  0.00000000000E+00 0.  1.
         12    1    4    4    0    0  0.46324415948E+01  0.25808125813E+01 -0.78060167013E+02  0.78240077856E+02  0.00000000000E+00 0. -1.
         -5    1    5    5    0  502 -0.14349037580E+03  0.28969045418E+02 -0.17075102841E+03  0.22495932353E+03  0.47000000000E+01 0.  1.
         11    1    6    6    0    0 -0.50163448930E+02  0.56272504771E+01 -0.12874761662E+03  0.13828950192E+03  0.00000000000E+00 0. -1.
        -12    1    6    6    0    0  0.21983002113E+02  0.43953609835E+02 -0.60642034996E+02  0.78055291992E+02  0.00000000000E+00 0.  1.
</event>
<event>
12    1  0.1050869E+000  0.1845790E+03  0.7818608E-02  0.1163929E+00
         21   -1    0    0  501  502  0.00000000000E+00  0.00000000000E+00  0.91779885693E+03  0.91779885693E+03  0.00000000000E+00 0. -1.
         21   -1    0    0  502  503 -0.00000000000E+00 -0.00000000000E+00 -0.42827057738E+02  0.42827057738E+02  0.00000000000E+00 0. -1.
         -6    2    1    2    0  503  0.60931810761E+02  0.85031922768E+02  0.25381843362E+03  0.31262830070E+03  0.14956451351E+03 0.  0.
        -24    2    3    3    0    0  0.30139886640E+02  0.71513642095E+00  0.76355889759E+02  0.11369990272E+03  0.78667158270E+02 0.  0.
          6    2    1    2  501    0 -0.60931810761E+02 -0.85031922768E+02  0.62115336557E+03  0.64799761396E+03  0.15207330697E+03 0.  0.
         24    2    5    5    0    0 -0.60241325694E+02 -0.25947334113E+02  0.52569211897E+03  0.53563033675E+03  0.79027667505E+02 0.  0.
          5    1    5    5  501    0 -0.69048506673E+00 -0.59084588654E+02  0.95461246602E+02  0.11236727722E+03  0.47000000000E+01 0. -1.
        -11    1    6    6    0    0  0.10867011581E+02 -0.13604681024E+01  0.11195749167E+02  0.15661660626E+02  0.00000000000E+00 0.  1.
         12    1    6    6    0    0 -0.71108337275E+02 -0.24586866011E+02  0.51449636980E+03  0.51996867612E+03  0.00000000000E+00 0. -1.
         -5    1    3    3    0  503  0.30791924121E+02  0.84316786347E+02  0.17746254386E+03  0.19892839799E+03  0.47000000000E+01 0.  1.
         11    1    4    4    0    0  0.40860467348E+01  0.38221208601E+02  0.31643948338E+02  0.49788513045E+02  0.00000000000E+00 0. -1.
        -12    1    4    4    0    0  0.26053839905E+02 -0.37506072180E+02  0.44711941421E+02  0.63911389672E+02  0.00000000000E+00 0.  1.
</event>
<event>
12    1  0.1050869E+000  0.1886855E+03  0.7818608E-02  0.1159794E+00
         21   -1    0    0  501  502  0.00000000000E+00  0.00000000000E+00  0.72434085446E+02  0.72434085446E+02  0.00000000000E+00 0.  1.
         21   -1    0    0  502  503 -0.00000000000E+00 -0.00000000000E+00 -0.49712271343E+03  0.49712271343E+03  0.00000000000E+00 0.  1.
         -6    2    1    2    0  503  0.47763466383E+02  0.59783898453E+02 -0.24633713094E+03  0.30991959941E+03  0.17179264474E+03 0.  0.
        -24    2    3    3    0    0  0.31352595526E+02 -0.79060503277E+01 -0.47836158391E+02  0.99501035711E+02  0.81034975041E+02 0.  0.
          6    2    1    2  501    0 -0.47763466383E+02 -0.59783898453E+02 -0.17835149704E+03  0.25963719946E+03  0.17247247784E+03 0.  0.
         24    2    5    5    0    0 -0.83146739430E+02 -0.44592801780E+02 -0.47617843726E+02  0.12326959503E+03  0.63451050175E+02 0.  0.
          5    1    5    5  501    0  0.35383273048E+02 -0.15191096673E+02 -0.13073365332E+03  0.13636760443E+03  0.47000000000E+01 0. -1.
        -11    1    6    6    0    0 -0.54621445927E+02 -0.14315107630E+01 -0.46135678232E+02  0.71512602974E+02  0.00000000000E+00 0.  1.
         12    1    6    6    0    0 -0.28525293504E+02 -0.43161291017E+02 -0.14821654943E+01  0.51756992052E+02  0.00000000000E+00 0. -1.
         -5    1    3    3    0  503  0.16410870857E+02  0.67689948781E+02 -0.19850097255E+03  0.21041856370E+03  0.47000000000E+01 0.  1.
         11    1    4    4    0    0  0.52279043142E+02  0.11890277170E+02 -0.45987791835E+02  0.70635359707E+02  0.00000000000E+00 0. -1.
        -12    1    4    4    0    0 -0.20926447616E+02 -0.19796327497E+02 -0.18483665560E+01  0.28865676004E+02  0.00000000000E+00 0.  1.
</event>
<event>
12    1  0.1050869E+000  0.2138966E+03  0.7818608E-02  0.1141427E+00
         21   -1    0    0  503  502  0.00000000000E+00  0.00000000000E+00  0.50613272990E+03  0.50613272990E+03  0.00000000000E+00 0.  1.
         21   -1    0    0  501  503 -0.00000000000E+00 -0.00000000000E+00 -0.22718857277E+03  0.22718857277E+03  0.00000000000E+00 0.  1.
          6    2    1    2  501    0 -0.12595842882E+01  0.10278033912E+03  0.42829928467E+03  0.47244062135E+03  0.17086391893E+03 0.  0.
         24    2    3    3    0    0 -0.52069297652E+02  0.56612527861E+02  0.15846752694E+03  0.19397273946E+03  0.81223620265E+02 0.  0.
         -6    2    1    2    0  502  0.12595842882E+01 -0.10278033912E+03 -0.14935512754E+03  0.26088068133E+03  0.18758035906E+03 0.  0.
        -24    2    5    5    0    0 -0.27700907870E+02 -0.39592596159E+02  0.31656444231E+01  0.93202188830E+02  0.79634871324E+02 0.  0.
          5    1    3    3  501    0  0.50809713364E+02  0.46167811257E+02  0.26983175772E+03  0.27846788189E+03  0.47000000000E+01 0. -1.
        -13    1    4    4    0    0 -0.50840634932E+01  0.53610992030E+02  0.12529938965E+03  0.13638153546E+03  0.00000000000E+00 0.  1.
         14    1    4    4    0    0 -0.46985234159E+02  0.30015358308E+01  0.33168137290E+02  0.57591203995E+02  0.00000000000E+00 0. -1.
         -5    1    5    5    0  502  0.28960492158E+02 -0.63187742959E+02 -0.15252077196E+03  0.16767849250E+03  0.47000000000E+01 0.  1.
         11    1    6    6    0    0 -0.23881032161E+02 -0.62127692772E+02 -0.92372200523E+01  0.67197322421E+02  0.00000000000E+00 0. -1.
        -12    1    6    6    0    0 -0.38198757086E+01  0.22535096613E+02  0.12402864475E+02  0.26004866410E+02  0.00000000000E+00 0.  1.
</event>
<event>
12    1  0.1050869E+000  0.4025514E+03  0.7818608E-02  0.1043136E+00
         21   -1    0    0  503  502  0.00000000000E+00  0.00000000000E+00  0.64978273657E+03  0.64978273657E+03  0.00000000000E+00 0. -1.
         21   -1    0    0  501  503 -0.00000000000E+00 -0.00000000000E+00 -0.29188545917E+03  0.29188545917E+03  0.00000000000E+00 0. -1.
          6    2    1    2  501    0 -0.36041610019E+03  0.66713559256E+02  0.36267997668E+03  0.54183431883E+03  0.16642475570E+03 0.  0.
         24    2    3    3    0    0 -0.27854224241E+03  0.10089120832E+03  0.23541090400E+03  0.38662173189E+03  0.79330026628E+02 0.  0.
         -6    2    1    2    0  502  0.36041610019E+03 -0.66713559256E+02 -0.47826992828E+01  0.39983387691E+03  0.15966775080E+03 0.  0.
        -24    2    5    5    0    0  0.15009062310E+03 -0.76698509109E+02 -0.27036606372E+02  0.18804664425E+03  0.78871451660E+02 0.  0.
          5    1    3    3  501    0 -0.81873857785E+02 -0.34177649065E+02  0.12726907268E+03  0.15521258694E+03  0.47000000000E+01 0. -1.
        -13    1    4    4    0    0 -0.21026663999E+03  0.39053814777E+02  0.17638734737E+03  0.27721788661E+03  0.00000000000E+00 0.  1.
         14    1    4    4    0    0 -0.68275602418E+02  0.61837393544E+02  0.59023556635E+02  0.10940384529E+03  0.00000000000E+00 0. -1.
         -5    1    5    5    0  502  0.21032547709E+03  0.99849498529E+01  0.22253907089E+02  0.21178723266E+03  0.47000000000E+01 0.  1.
         11    1    6    6    0    0  0.14951033704E+03 -0.47994501051E+02 -0.27044284370E+02  0.15933677018E+03  0.00000000000E+00 0. -1.
        -12    1    6    6    0    0  0.58028606385E+00 -0.28704008058E+02  0.76779984571E-02  0.28709874076E+02  0.00000000000E+00 0.  1.
</event>
<event>
12    1  0.1050869E+000  0.2848897E+03  0.7818608E-02  0.1093192E+00
         21   -1    0    0  501  502  0.00000000000E+00  0.00000000000E+00  0.47977384506E+03  0.47977384506E+03  0.00000000000E+00 0.  1.
         21   -1    0    0  502  503 -0.00000000000E+00 -0.00000000000E+00 -0.19991575594E+03  0.19991575594E+03  0.00000000000E+00 0.  1.
         -6    2    1    2    0  503 -0.86524533488E+02  0.21031113204E+03  0.27481376670E+03  0.39583423645E+03  0.17159507342E+03 0.  0.
        -24    2    3    3    0    0 -0.69744727447E+02  0.46460396142E+02  0.11074888497E+03  0.16330896693E+03  0.85916283342E+02 0.  0.
          6    2    1    2  501    0  0.86524533488E+02 -0.21031113204E+03  0.50443224189E+01  0.28385536455E+03  0.16979739586E+03 0.  0.
         24    2    5    5    0    0  0.19171405436E+02 -0.15983256191E+03 -0.44779992005E+02  0.18593150531E+03  0.81555418883E+02 0.  0.
          5    1    5    5  501    0  0.67353128052E+02 -0.50478570120E+02  0.49824314424E+02  0.97923859235E+02  0.47000000000E+01 0. -1.
        -13    1    6    6    0    0  0.30337934434E+02 -0.37371355740E+02  0.13296032892E+02  0.49937891288E+02  0.00000000000E+00 0.  1.
         14    1    6    6    0    0 -0.11166528999E+02 -0.12246120617E+03 -0.58076024897E+02  0.13599361402E+03  0.00000000000E+00 0. -1.
         -5    1    3    3    0  503 -0.16779806040E+02  0.16385073589E+03  0.16406488173E+03  0.23252526951E+03  0.47000000000E+01 0.  1.
         11    1    4    4    0    0 -0.23588077556E+02  0.75167265860E+01 -0.11240951817E+02  0.27189291625E+02  0.00000000000E+00 0. -1.
        -12    1    4    4    0    0 -0.46156649891E+02  0.38943669556E+02  0.12198983678E+03  0.13611967531E+03  0.00000000000E+00 0.  1.
</event>
<event>
12    1  0.1050869E+000  0.1887227E+03  0.7818608E-02  0.1159651E+00
         21   -1    0    0  501  502  0.00000000000E+00  0.00000000000E+00  0.64875723817E+03  0.64875723817E+03  0.00000000000E+00 0. -1.
         21   -1    0    0  502  503 -0.00000000000E+00 -0.00000000000E+00 -0.93033044359E+02  0.93033044359E+02  0.00000000000E+00 0. -1.
         -6    2    1    2    0  503  0.46063505329E+02 -0.63843217533E+02  0.51538879184E+03  0.54880530662E+03  0.17135884823E+03 0.  0.
        -24    2    3    3    0    0  0.13143034345E+01  0.21955406200E+02  0.31098790406E+03  0.32260692503E+03  0.82933614138E+02 0.  0.
          6    2    1    2  501    0 -0.46063505329E+02  0.63843217533E+02  0.40335401971E+02  0.19298497591E+03  0.17151808455E+03 0.  0.
         24    2    5    5    0    0 -0.62573927191E+02  0.10229792751E+03  0.18159278612E+02  0.14539055191E+03  0.80176622823E+02 0.  0.
          5    1    5    5  501    0  0.16510421862E+02 -0.38454709974E+02  0.22176123359E+02  0.47594424006E+02  0.47000000000E+01 0. -1.
        -11    1    6    6    0    0 -0.11380136860E+02  0.89668400494E+02  0.20219882413E+02  0.92621667048E+02  0.00000000000E+00 0.  1.
         12    1    6    6    0    0 -0.51193790331E+02  0.12629527013E+02 -0.20606038010E+01  0.52768884857E+02  0.00000000000E+00 0. -1.
         -5    1    3    3    0  503  0.44749201894E+02 -0.85798623733E+02  0.20440088778E+03  0.22619838158E+03  0.47000000000E+01 0.  1.
         13    1    4    4    0    0 -0.35856554747E+02 -0.83643782188E+01  0.16003215198E+03  0.16421310852E+03  0.00000000000E+00 0. -1.
        -14    1    4    4    0    0  0.37170858182E+02  0.30319784419E+02  0.15095575207E+03  0.15839381651E+03  0.00000000000E+00 0.  1.
</event>
<event>
12    1  0.1050869E+000  0.4378079E+03  0.7818608E-02  0.1031589E+00
         21   -1    0    0  501  502  0.00000000000E+00  0.00000000000E+00  0.19874468139E+03  0.19874468139E+03  0.00000000000E+00 0.  1.
         21   -1    0    0  502  503 -0.00000000000E+00 -0.00000000000E+00 -0.97907678699E+03  0.97907678699E+03  0.00000000000E+00 0.  1.
         -6    2    1    2    0  503 -0.17525516049E+03 -0.36146312083E+03 -0.30820570122E+03  0.53541250242E+03  0.17408571016E+03 0.  0.
        -24    2    3    3    0    0 -0.16302094132E+03 -0.17850130726E+03 -0.16786404605E+03  0.30445239435E+03  0.77938299097E+02 0.  0.
          6    2    1    2  501    0  0.17525516049E+03  0.36146312083E+03 -0.47212640439E+03  0.64240896596E+03  0.16857039724E+03 0.  0.
         24    2    5    5    0    0  0.33777703930E+02  0.69469783630E+02 -0.10787362003E+03  0.15457891297E+03  0.79315435554E+02 0.  0.
          5    1    5    5  501    0  0.14147745656E+03  0.29199333720E+03 -0.36425278436E+03  0.48783005299E+03  0.47000000000E+01 0. -1.
        -11    1    6    6    0    0  0.44746840600E+02  0.47776024435E+01 -0.40696022449E+02  0.60673482445E+02  0.00000000000E+00 0.  1.
         12    1    6    6    0    0 -0.10969136670E+02  0.64692181187E+02 -0.67177597580E+02  0.93905430527E+02  0.00000000000E+00 0. -1.
         -5    1    3    3    0  503 -0.12234219171E+02 -0.18296181357E+03 -0.14034165517E+03  0.23096010807E+03  0.47000000000E+01 0.  1.
         11    1    4    4    0    0 -0.77899212527E+02 -0.13797223015E+03 -0.11975000750E+03  0.19860686771E+03  0.00000000000E+00 0. -1.
        -12    1    4    4    0    0 -0.85121728792E+02 -0.40529077111E+02 -0.48114038547E+02  0.10584552664E+03  0.00000000000E+00 0.  1.
</event>
<event>
12    1  0.1050869E+000  0.1910257E+03  0.7818608E-02  0.1157605E+00
         21   -1    0    0  501  502  0.00000000000E+00  0.00000000000E+00  0.15387804396E+02  0.15387804396E+02  0.00000000000E+00 0.  1.
         21   -1    0    0  502  503 -0.00000000000E+00 -0.00000000000E+00 -0.23693397942E+04  0.23693397942E+04  0.00000000000E+00 0.  1.
         -6    2    1    2    0  503 -0.79693969936E+02 -0.32408089955E+02 -0.12064318305E+04  0.12214162369E+04  0.17023057618E+03 0.  0.
        -24    2    3    3    0    0 -0.91394507532E+02 -0.77008606612E+02 -0.95586018655E+03  0.96659404909E+03  0.79699924765E+02 0.  0.
          6    2    1    2  501    0  0.79693969936E+02  0.32408089955E+02 -0.11475201594E+04  0.11633113617E+04  0.17055613452E+03 0.  0.
         24    2    5    5    0    0  0.66241019379E+02 -0.41385921961E+02 -0.55508385171E+03  0.56612679503E+03  0.79251488505E+02 0.  0.
          5    1    5    5  501    0  0.13452950557E+02  0.73794011916E+02 -0.59243630765E+03  0.59718456669E+03  0.47000000000E+01 0. -1.
        -13    1    6    6    0    0  0.27029214418E+02  0.13129455389E+02 -0.32658813242E+03  0.32796763448E+03  0.00000000000E+00 0.  1.
         14    1    6    6    0    0  0.39211804961E+02 -0.54515377350E+02 -0.22849571930E+03  0.23815916055E+03  0.00000000000E+00 0. -1.
         -5    1    3    3    0  503  0.11700537596E+02  0.44600516657E+02 -0.25057164391E+03  0.25482218780E+03  0.47000000000E+01 0.  1.
         11    1    4    4    0    0  0.18588199935E+01 -0.32096626171E+02 -0.39172593435E+03  0.39304307176E+03  0.00000000000E+00 0. -1.
        -12    1    4    4    0    0 -0.93253327526E+02 -0.44911980441E+02 -0.56413425220E+03  0.57355097732E+03  0.00000000000E+00 0.  1.
</event>
<event>
12    1  0.1050869E+000  0.2762243E+03  0.7818608E-02  0.1098005E+00
         21   -1    0    0  503  502  0.00000000000E+00  0.00000000000E+00  0.68142805975E+03  0.68142805975E+03  0.00000000000E+00 0. -1.
         21   -1    0    0  501  503 -0.00000000000E+00 -0.00000000000E+00 -0.12254141850E+03  0.12254141850E+03  0.00000000000E+00 0.  1.
          6    2    1    2  501    0 -0.21333675169E+03  0.35441267483E+02  0.15682971991E+03  0.31616868325E+03  0.16911068021E+03 0.  0.
         24    2    3    3    0    0 -0.13860128013E+03  0.77475917823E+02  0.62901042652E+02  0.18890129171E+03  0.80711363187E+02 0.  0.
         -6    2    1    2    0  502  0.21333675169E+03 -0.35441267483E+02  0.40205692133E+03  0.48780079500E+03  0.17184642723E+03 0.  0.
        -24    2    5    5    0    0  0.10094027890E+03 -0.57867601596E+02  0.12994988355E+03  0.19250393154E+03  0.81444411753E+02 0.  0.
          5    1    3    3  501    0 -0.74735471557E+02 -0.42034650340E+02  0.93928677258E+02  0.12726739154E+03  0.47000000000E+01 0. -1.
        -13    1    4    4    0    0 -0.63305341335E+02  0.49997516203E+02  0.72137020229E+02  0.10821768596E+03  0.00000000000E+00 0.  1.
         14    1    4    4    0    0 -0.75295938795E+02  0.27478401619E+02 -0.92359775767E+01  0.80683605747E+02  0.00000000000E+00 0. -1.
         -5    1    5    5    0  502  0.11239647278E+03  0.22426334114E+02  0.27210703778E+03  0.29529686346E+03  0.47000000000E+01 0.  1.
         13    1    6    6    0    0  0.29281748050E+02 -0.43289814310E+02  0.10125840071E+03  0.11395039493E+03  0.00000000000E+00 0. -1.
        -14    1    6    6    0    0  0.71658530853E+02 -0.14577787286E+02  0.28691482842E+02  0.78553536610E+02  0.00000000000E+00 0.  1.
</event>
<event>
12    1  0.1050869E+000  0.1960688E+03  0.7818608E-02  0.1153252E+00
         21   -1    0    0  503  502  0.00000000000E+00  0.00000000000E+00  0.85191408794E+02  0.85191408794E+02  0.00000000000E+00 0.  1.
         21   -1    0    0  501  503 -0.00000000000E+00 -0.00000000000E+00 -0.45098915549E+03  0.45098915549E+03  0.00000000000E+00 0.  1.
          6    2    1    2  501    0  0.53579751223E+02  0.76342196336E+02 -0.19731485075E+03  0.27766659017E+03  0.17165856893E+03 0.  0.
         24    2    3    3    0    0  0.25787143676E+02  0.25936736332E+02 -0.17159368888E+02  0.88480895472E+02  0.78719335950E+02 0.  0.
         -6    2    1    2    0  502 -0.53579751223E+02 -0.76342196336E+02 -0.16848289594E+03  0.25851397411E+03  0.17246468596E+03 0.  0.
        -24    2    5    5    0    0 -0.53180985359E+02 -0.21578255219E+02 -0.17703398997E+03  0.20288610816E+03  0.80795426703E+02 0.  0.
          5    1    3    3  501    0  0.27792607548E+02  0.50405460004E+02 -0.18015548187E+03  0.18918569470E+03  0.47000000000E+01 0. -1.
        -11    1    4    4    0    0  0.37828260014E+02 -0.11050634871E+02 -0.27711564333E+02  0.48177013030E+02  0.00000000000E+00 0.  1.
         12    1    4    4    0    0 -0.12041116338E+02  0.36987371203E+02  0.10552195445E+02  0.40303882442E+02  0.00000000000E+00 0. -1.
         -5    1    5    5    0  502 -0.39876586405E+00 -0.54763941117E+02  0.85510940364E+01  0.55627865949E+02  0.47000000000E+01 0.  1.
         13    1    6    6    0    0 -0.25978900116E+02 -0.78853242597E+01 -0.16930311834E+03  0.17146611172E+03  0.00000000000E+00 0. -1.
        -14    1    6    6    0    0 -0.27202085243E+02 -0.13692930959E+02 -0.77308716337E+01  0.31419996436E+02  0.00000000000E+00 0.  1.
</event>
<event>
12    1  0.1050869E+000  0.2390801E+03  0.7818608E-02  0.1121439E+00
         21   -1    0    0  501  502  0.00000000000E+00  0.00000000000E+00  0.23676645902E+03  0.23676645902E+03  0.00000000000E+00 0.  1.
         21   -1    0    0  502  503 -0.00000000000E+00 -0.00000000000E+00 -0.42471756231E+03  0.42471756231E+03  0.00000000000E+00 0.  1.
         -6    2    1    2    0  503 -0.12415901015E+03 -0.97366900144E+02  0.12620997045E+03  0.27034837524E+03  0.17962047297E+03 0.  0.
        -24    2    3    3    0    0 -0.12118580595E+03 -0.13389349301E+03  0.12517393029E+03  0.23338629590E+03  0.78658650236E+02 0.  0.
          6    2    1    2  501    0  0.12415901015E+03  0.97366900144E+02 -0.31416107374E+03  0.39113564609E+03  0.17144719403E+03 0.  0.
         24    2    5    5    0    0  0.24994438694E+02 -0.13202983734E+02 -0.10209069512E+03  0.13218536719E+03  0.79065925179E+02 0.  0.
          5    1    5    5  501    0  0.99164571453E+02  0.11056988388E+03 -0.21207037862E+03  0.25895027890E+03  0.47000000000E+01 0. -1.
        -13    1    6    6    0    0  0.22345096162E+02 -0.10467258719E+02 -0.11557184197E+03  0.11817663679E+03  0.00000000000E+00 0.  1.
         14    1    6    6    0    0  0.26493425326E+01 -0.27357250149E+01  0.13481146845E+02  0.14008730402E+02  0.00000000000E+00 0. -1.
         -5    1    3    3    0  503 -0.29732041954E+01  0.36526592868E+02  0.10360401621E+01  0.36962079338E+02  0.47000000000E+01 0.  1.
         11    1    4    4    0    0 -0.66873424312E+02 -0.40734648674E+02  0.91467092871E+02  0.12040596148E+03  0.00000000000E+00 0. -1.
        -12    1    4    4    0    0 -0.54312381640E+02 -0.93158844338E+02  0.33706837418E+02  0.11298033442E+03  0.00000000000E+00 0.  1.
</event>
<event>
12    1  0.1050869E+000  0.1890107E+03  0.7818608E-02  0.1159737E+00
         21   -1    0    0  501  502  0.00000000000E+00  0.00000000000E+00  0.30177183503E+03  0.30177183503E+03  0.00000000000E+00 0.  1.
         21   -1    0    0  502  503 -0.00000000000E+00 -0.00000000000E+00 -0.13669693279E+03  0.13669693279E+03  0.00000000000E+00 0.  1.
         -6    2    1    2    0  503 -0.71996762931E+02 -0.16259101986E+02  0.16471598829E+03  0.24945771800E+03  0.17219147482E+03 0.  0.
        -24    2    3    3    0    0 -0.83464985972E+02 -0.65813426700E+02  0.90509569737E+02  0.15936979543E+03  0.76869619914E+02 0.  0.
          6    2    1    2  501    0  0.71996762931E+02  0.16259101986E+02  0.35891395209E+00  0.18901104982E+03  0.17400332142E+03 0.  0.
         24    2    5    5    0    0  0.90039702523E+02  0.51413013791E+02  0.35686171053E+02  0.13579967624E+03  0.80109944727E+02 0.  0.
          5    1    5    5  501    0 -0.18042939591E+02 -0.35153911806E+02 -0.35327257101E+02  0.53211373583E+02  0.47000000000E+01 0. -1.
        -11    1    6    6    0    0  0.11218851394E+02  0.50179316916E+02  0.21358259553E+02  0.55677659109E+02  0.00000000000E+00 0.  1.
         12    1    6    6    0    0  0.78820851129E+02  0.12336968752E+01  0.14327911500E+02  0.80122017128E+02  0.00000000000E+00 0. -1.
         -5    1    3    3    0  503  0.11468223040E+02  0.49554324715E+02  0.74206418552E+02  0.90087922564E+02  0.47000000000E+01 0.  1.
         11    1    4    4    0    0 -0.59336596064E+02 -0.10471254291E+02  0.76523312996E+02  0.97397619226E+02  0.00000000000E+00 0. -1.
        -12    1    4    4    0    0 -0.24128389907E+02 -0.55342172409E+02  0.13986256740E+02  0.61972176209E+02  0.00000000000E+00 0.  1.
</event>
<event>
12    1  0.1050869E+000  0.2024709E+03  0.7818608E-02  0.1147966E+00
         21   -1    0    0  503  502  0.00000000000E+00  0.00000000000E+00  0.11565428740E+04  0.11565428740E+04  0.00000000000E+00 0.  1.
         21   -1    0    0  501  503 -0.00000000000E+00 -0.00000000000E+00 -0.15597536860E+03  0.15597536860E+03  0.00000000000E+00 0.  1.
          6    2    1    2  501    0 -0.81103556200E+02  0.67544388477E+02  0.10781616023E+04  0.10970081621E+04  0.17278436245E+03 0.  0.
         24    2    3    3    0    0 -0.32196115826E+02  0.44388466566E+02  0.98058867153E+03  0.98533586808E+03  0.79534296716E+02 0.  0.
         -6    2    1    2    0  502  0.81103556200E+02 -0.67544388477E+02 -0.77594096892E+02  0.21551008046E+03  0.17112486571E+03 0.  0.
        -24    2    5    5    0    0  0.70107646342E+01 -0.93925837064E+02 -0.49092279587E+02  0.13172364849E+03  0.77909267538E+02 0.  0.
          5    1    3    3  501    0 -0.48907440375E+02  0.23155921911E+02  0.97572930755E+02  0.11167229406E+03  0.47000000000E+01 0. -1.
        -11    1    4    4    0    0 -0.47038775690E+02  0.28421310962E+01  0.66649393750E+03  0.66815783529E+03  0.00000000000E+00 0.  1.
         12    1    4    4    0    0  0.14842659865E+02  0.41546335470E+02  0.31409473402E+03  0.31717803279E+03  0.00000000000E+00 0. -1.
         -5    1    5    5    0  502  0.74092791566E+02  0.26381448586E+02 -0.28501817305E+02  0.83786431964E+02  0.47000000000E+01 0.  1.
         11    1    6    6    0    0 -0.17912891292E+02  0.16417176545E+01 -0.23689651858E+02  0.29745025071E+02  0.00000000000E+00 0. -1.
        -12    1    6    6    0    0  0.24923655926E+02 -0.95567554718E+02 -0.25402627729E+02  0.10197862342E+03  0.00000000000E+00 0.  1.
</event>
<event>
12    1  0.1050869E+000  0.3144124E+03  0.7818608E-02  0.1079955E+00
         21   -1    0    0  503  502  0.00000000000E+00  0.00000000000E+00  0.37979107098E+03  0.37979107098E+03  0.00000000000E+00 0.  1.
         21   -1    0    0  501  503 -0.00000000000E+00 -0.00000000000E+00 -0.41275698087E+03  0.41275698087E+03  0.00000000000E+00 0.  1.
          6    2    1    2  501    0  0.18824502283E+03 -0.16319413791E+03 -0.26648953566E+03  0.41215512666E+03  0.19179848943E+03 0.  0.
         24    2    3    3    0    0  0.20409615696E+03 -0.92121069418E+02 -0.17549042771E+03  0.29551222218E+03  0.79931536483E+02 0.  0.
         -6    2    1    2    0  502 -0.18824502283E+03  0.16319413791E+03  0.23352362576E+03  0.38039292519E+03  0.16762153345E+03 0.  0.
        -24    2    5    5    0    0 -0.21003590462E+03  0.14519192020E+03  0.22742546595E+03  0.35109787570E+03  0.79696931182E+02 0.  0.
          5    1    3    3  501    0 -0.15851134128E+02 -0.71073068488E+02 -0.90999107952E+02  0.11664290448E+03  0.47000000000E+01 0. -1.
        -13    1    4    4    0    0  0.15543347452E+03 -0.46304816890E+02 -0.85276543543E+02  0.18323697756E+03  0.00000000000E+00 0.  1.
         14    1    4    4    0    0  0.48662682447E+02 -0.45816252527E+02 -0.90213884164E+02  0.11227524462E+03  0.00000000000E+00 0. -1.
         -5    1    5    5    0  502  0.21790881785E+02  0.18002217704E+02  0.60981598146E+01  0.29295049486E+02  0.47000000000E+01 0.  1.
         13    1    6    6    0    0 -0.17285527581E+03  0.13035776246E+03  0.14829604536E+03  0.26241914884E+03  0.00000000000E+00 0. -1.
        -14    1    6    6    0    0 -0.37180628808E+02  0.14834157737E+02  0.79129420594E+02  0.88678726862E+02  0.00000000000E+00 0.  1.
</event>
<event>
12    1  0.1050869E+000  0.1972551E+03  0.7818608E-02  0.1152249E+00
         21   -1    0    0  503  502  0.00000000000E+00  0.00000000000E+00  0.76836465146E+02  0.76836465146E+02  0.00000000000E+00 0.  1.
         21   -1    0    0  501  503 -0.00000000000E+00 -0.00000000000E+00 -0.55895757567E+03  0.55895757567E+03  0.00000000000E+00 0.  1.
          6    2    1    2  501    0  0.13916826486E+02  0.94085890967E+02 -0.14212267995E+03  0.24312222748E+03  0.17281125080E+03 0.  0.
         24    2    3    3    0    0  0.34565874858E+02  0.12668856039E+03 -0.13077357744E+03  0.20262272897E+03  0.81911236695E+02 0.  0.
         -6    2    1    2    0  502 -0.13916826486E+02 -0.94085890967E+02 -0.33999843057E+03  0.39267181333E+03  0.17189062585E+03 0.  0.
        -24    2    5    5    0    0 -0.46058111875E+02 -0.11872349025E+03 -0.24041370247E+03  0.28506474295E+03  0.85126626446E+02 0.  0.
          5    1    3    3  501    0 -0.20649048371E+02 -0.32602669427E+02 -0.11349102504E+02  0.40499498516E+02  0.47000000000E+01 0. -1.
        -13    1    4    4    0    0  0.21062192985E+00 -0.14226001946E+01  0.94775995219E+01  0.95860860422E+01  0.00000000000E+00 0.  1.
         14    1    4    4    0    0  0.34355252928E+02  0.12811116059E+03 -0.14025117697E+03  0.19303664292E+03  0.00000000000E+00 0. -1.
         -5    1    5    5    0  502  0.32141285388E+02  0.24637599285E+02 -0.99584728101E+02  0.10760707038E+03  0.47000000000E+01 0.  1.
         11    1    6    6    0    0 -0.38006555634E+02 -0.12269353342E+02 -0.33075755995E+02  0.51855963372E+02  0.00000000000E+00 0. -1.
        -12    1    6    6    0    0 -0.80515562407E+01 -0.10645413691E+03 -0.20733794648E+03  0.23320877958E+03  0.00000000000E+00 0.  1.
</event>
<event>
12    1  0.1050869E+000  0.2015560E+03  0.7818608E-02  0.1149036E+00
         21   -1    0    0  501  502  0.00000000000E+00  0.00000000000E+00  0.47337857578E+03  0.47337857578E+03  0.00000000000E+00 0.  1.
         21   -1    0    0  502  503 -0.00000000000E+00 -0.00000000000E+00 -0.89079493888E+02  0.89079493888E+02  0.00000000000E+00 0.  1.
         -6    2    1    2    0  503 -0.73367698333E+02  0.67323811412E+02  0.13041659417E+03  0.24006938612E+03  0.17524128331E+03 0.  0.
        -24    2    3    3    0    0  0.20143417331E+02  0.15710460626E+02  0.20468514617E+02  0.86710535938E+02  0.80294340505E+02 0.  0.
          6    2    1    2  501    0  0.73367698333E+02 -0.67323811412E+02  0.25388248772E+03  0.32238868354E+03  0.17193845110E+03 0.  0.
         24    2    5    5    0    0  0.18630493536E+02 -0.93847715296E+01  0.22116470103E+03  0.23610057604E+03  0.79965541311E+02 0.  0.
          5    1    5    5  501    0  0.54737204797E+02 -0.57939039882E+02  0.32717786690E+02  0.86288107508E+02  0.47000000000E+01 0. -1.
        -13    1    6    6    0    0  0.29066602242E-01 -0.37195955121E+02  0.53686618203E+02  0.65313037721E+02  0.00000000000E+00 0.  1.
         14    1    6    6    0    0  0.18601426934E+02  0.27811183591E+02  0.16747808283E+03  0.17078753832E+03  0.00000000000E+00 0. -1.
         -5    1    3    3    0  503 -0.93511115664E+02  0.51613350786E+02  0.10994807955E+03  0.15335885018E+03  0.47000000000E+01 0.  1.
         11    1    4    4    0    0 -0.10717836725E+02  0.27544398948E+02  0.38909161134E+02  0.48861935672E+02  0.00000000000E+00 0. -1.
        -12    1    4    4    0    0  0.30861254056E+02 -0.11833938322E+02 -0.18440646517E+02  0.37848600265E+02  0.00000000000E+00 0.  1.
</event>
<event>
12    1  0.1050869E+000  0.2478152E+03  0.7818608E-02  0.1114900E+00
         21   -1    0    0  501  502  0.00000000000E+00  0.00000000000E+00  0.21873003475E+03  0.21873003475E+03  0.00000000000E+00 0.  1.
         21   -1    0    0  502  503 -0.00000000000E+00 -0.00000000000E+00 -0.28861776073E+03  0.28861776073E+03  0.00000000000E+00 0.  1.
         -6    2    1    2    0  503 -0.97421565850E+02  0.14893856678E+03  0.10528320894E+02  0.24803875891E+03  0.17244918734E+03 0.  0.
        -24    2    3    3    0    0 -0.89647775834E+02  0.13540257540E+03 -0.48555065314E+02  0.18674772042E+03  0.78399844236E+02 0.  0.
          6    2    1    2  501    0  0.97421565850E+02 -0.14893856678E+03 -0.80416046877E+02  0.25930903657E+03  0.17058950051E+03 0.  0.
         24    2    5    5    0    0  0.68816390091E+02 -0.28222854489E+02  0.39584330239E+01  0.10920346661E+03  0.79859269135E+02 0.  0.
          5    1    5    5  501    0  0.28605175758E+02 -0.12071571229E+03 -0.84374479900E+02  0.15010556996E+03  0.47000000000E+01 0. -1.
        -13    1    6    6    0    0  0.28753974297E+02  0.79669486521E+01 -0.32452778763E+02  0.44084534229E+02  0.00000000000E+00 0.  1.
         14    1    6    6    0    0  0.40062415794E+02 -0.36189803141E+02  0.36411211787E+02  0.65118932381E+02  0.00000000000E+00 0. -1.
         -5    1    3    3    0  503 -0.77737900161E+01  0.13535991374E+02  0.59083386208E+02  0.61291038493E+02  0.47000000000E+01 0.  1.
         11    1    4    4    0    0 -0.37172999825E+02  0.61003092581E+02  0.18360418842E+02  0.73758485617E+02  0.00000000000E+00 0. -1.
        -12    1    4    4    0    0 -0.52474776009E+02  0.74399482823E+02 -0.66915484155E+02  0.11298923480E+03  0.00000000000E+00 0.  1.
</event>
<event>
12    1  0.1050869E+000  0.2063999E+03  0.7818608E-02  0.1147032E+00
         21   -1    0    0  501  502  0.00000000000E+00  0.00000000000E+00  0.54059552168E+03  0.54059552168E+03  0.00000000000E+00 0. -1.
         21   -1    0    0  502  503 -0.00000000000E+00 -0.00000000000E+00 -0.74295616157E+02  0.74295616157E+02  0.00000000000E+00 0. -1.
         -6    2    1    2    0  503 -0.69856523935E+02  0.56906342366E+02  0.21295341697E+03  0.28811085754E+03  0.17187333329E+03 0.  0.
        -24    2    3    3    0    0 -0.47738595822E+02  0.10354754785E+03  0.17613988550E+03  0.22453467575E+03  0.79934305232E+02 0.  0.
          6    2    1    2  501    0  0.69856523935E+02 -0.56906342366E+02  0.25334648855E+03  0.32678028030E+03  0.18569502575E+03 0.  0.
         24    2    5    5    0    0  0.33469763530E+02 -0.69720927208E+02  0.53668148093E+02  0.12335525832E+03  0.79718359701E+02 0.  0.
          5    1    5    5  501    0  0.36386760405E+02  0.12814584842E+02  0.19967834046E+03  0.20342502198E+03  0.47000000000E+01 0. -1.
        -11    1    6    6    0    0  0.45015938806E+02 -0.51435617271E+01  0.25175599871E+02  0.51833404313E+02  0.00000000000E+00 0.  1.
         12    1    6    6    0    0 -0.11546175277E+02 -0.64577365481E+02  0.28492548222E+02  0.71521854005E+02  0.00000000000E+00 0. -1.
         -5    1    3    3    0  503 -0.22117928112E+02 -0.46641205479E+02  0.36813531468E+02  0.63576181795E+02  0.47000000000E+01 0.  1.
         13    1    4    4    0    0 -0.55267329856E+01 -0.29832414962E+01 -0.64267775059E+01  0.89859877826E+01  0.00000000000E+00 0. -1.
        -14    1    4    4    0    0 -0.42211862837E+02  0.10653078934E+03  0.18256666301E+03  0.21554868797E+03  0.00000000000E+00 0.  1.
</event>
<event>
12    1  0.1050869E+000  0.1853748E+03  0.7818608E-02  0.1163685E+00
         21   -1    0    0  501  502  0.00000000000E+00  0.00000000000E+00  0.10133154263E+03  0.10133154263E+03  0.00000000000E+00 0. -1.
         21   -1    0    0  502  503 -0.00000000000E+00 -0.00000000000E+00 -0.34892671872E+03  0.34892671872E+03  0.00000000000E+00 0. -1.
         -6    2    1    2    0  503  0.50884319885E+02 -0.48553626683E+02 -0.74863983379E+02  0.19992105516E+03  0.17151426650E+03 0.  0.
        -24    2    3    3    0    0  0.62270694175E+02 -0.80922406732E+02 -0.90636178110E+02  0.16186531225E+03  0.86944736842E+02 0.  0.
          6    2    1    2  501    0 -0.50884319885E+02  0.48553626683E+02 -0.17273119272E+03  0.25033720620E+03  0.16699096740E+03 0.  0.
         24    2    5    5    0    0  0.30952765460E+01  0.63652592658E+02 -0.43396038300E+02  0.10930016222E+03  0.77473066500E+02 0.  0.
          5    1    5    5  501    0 -0.53979596431E+02 -0.15098965975E+02 -0.12933515442E+03  0.14103704397E+03  0.47000000000E+01 0. -1.
        -13    1    6    6    0    0  0.14019726377E+02 -0.15217247431E+02 -0.86573868558E+01  0.22429170610E+02  0.00000000000E+00 0.  1.
         14    1    6    6    0    0 -0.10924449831E+02  0.78869840089E+02 -0.34738651444E+02  0.86870991614E+02  0.00000000000E+00 0. -1.
         -5    1    3    3    0  503 -0.11386374290E+02  0.32368780049E+02  0.15772194730E+02  0.38055742903E+02  0.47000000000E+01 0.  1.
         11    1    4    4    0    0  0.19637256696E+02  0.17034470550E+02 -0.27168976292E+02  0.37602504042E+02  0.00000000000E+00 0. -1.
        -12    1    4    4    0    0  0.42633437479E+02 -0.97956877282E+02 -0.63467201817E+02  0.12426280821E+03  0.00000000000E+00 0.  1.
</event>
<event>
12    1  0.1050869E+000  0.2088407E+03  0.7818608E-02  0.1142839E+00
         21   -1    0    0  503  502  0.00000000000E+00  0.00000000000E+00  0.86919098746E+03  0.86919098746E+03  0.00000000000E+00 0. -1.
         21   -1    0    0  501  503 -0.00000000000E+00 -0.00000000000E+00 -0.67825334374E+02  0.67825334374E+02  0.00000000000E+00 0. -1.
          6    2    1    2  501    0 -0.88671597592E+02  0.76201812019E+02  0.64125114323E+03  0.67386030705E+03  0.17092488509E+03 0.  0.
         24    2    3    3    0    0 -0.43928356422E+02  0.11298821154E+03  0.44102626388E+03  0.46537220395E+03  0.85855030923E+02 0.  0.
         -6    2    1    2    0  502  0.88671597592E+02 -0.76201812019E+02  0.16011450986E+03  0.26315601479E+03  0.17304642001E+03 0.  0.
        -24    2    5    5    0    0  0.78635986219E+02 -0.11042170907E+03  0.84265031668E+02  0.17920991190E+03  0.81480211083E+02 0.  0.
          5    1    3    3  501    0 -0.44743241170E+02 -0.36786399523E+02  0.20022487935E+03  0.20848810309E+03  0.47000000000E+01 0. -1.
        -13    1    4    4    0    0 -0.44951909100E+02  0.59986476602E+02  0.36544291763E+03  0.37305170895E+03  0.00000000000E+00 0.  1.
         14    1    4    4    0    0  0.10235526785E+01  0.53001734940E+02  0.75583346250E+02  0.92320495000E+02  0.00000000000E+00 0. -1.
         -5    1    5    5    0  502  0.10035611373E+02  0.34219897046E+02  0.75849478193E+02  0.83946102897E+02  0.47000000000E+01 0.  1.
         13    1    6    6    0    0 -0.12201263035E+02 -0.93733427102E+00 -0.26204217429E+01  0.12514632447E+02  0.00000000000E+00 0. -1.
        -14    1    6    6    0    0  0.90837249254E+02 -0.10948437479E+03  0.86885453411E+02  0.16669527945E+03  0.00000000000E+00 0.  1.
</event>
<event>
12    1  0.1050869E+000  0.2981489E+03  0.7818608E-02  0.1086245E+00
         21   -1    0    0  501  502  0.00000000000E+00  0.00000000000E+00  0.15518627262E+04  0.15518627262E+04  0.00000000000E+00 0.  1.
         21   -1    0    0  502  503 -0.00000000000E+00 -0.00000000000E+00 -0.59244473859E+02  0.59244473859E+02  0.00000000000E+00 0. -1.
         -6    2    1    2    0  503 -0.24315039789E+03  0.40069870925E+00  0.59618211030E+03  0.66657774473E+03  0.17254131266E+03 0.  0.
        -24    2    3    3    0    0 -0.15232751102E+03 -0.10174050923E+02  0.52068022964E+03  0.54790489151E+03  0.76057127727E+02 0.  0.
          6    2    1    2  501    0  0.24315039789E+03 -0.40069870925E+00  0.89643614200E+03  0.94452945529E+03  0.17151052060E+03 0.  0.
         24    2    5    5    0    0  0.53099828837E+02  0.24901266616E+02  0.20560777889E+03  0.22757386007E+03  0.77946379930E+02 0.  0.
          5    1    5    5  501    0  0.19005056905E+03 -0.25301965325E+02  0.69082836311E+03  0.71695559522E+03  0.47000000000E+01 0. -1.
        -11    1    6    6    0    0  0.48529853999E+01  0.27832186562E+02  0.15514554230E+03  0.15769692886E+03  0.00000000000E+00 0.  1.
         12    1    6    6    0    0  0.48246843437E+02 -0.29309199458E+01  0.50462236592E+02  0.69876931209E+02  0.00000000000E+00 0. -1.
         -5    1    3    3    0  503 -0.90822886861E+02  0.10574749632E+02  0.75501880667E+02  0.11867285322E+03  0.47000000000E+01 0.  1.
         11    1    4    4    0    0 -0.85627263914E+02 -0.41832924069E+02  0.25769566538E+03  0.27475275761E+03  0.00000000000E+00 0. -1.
        -12    1    4    4    0    0 -0.66700247111E+02  0.31658873146E+02  0.26298456426E+03  0.27315213390E+03  0.00000000000E+00 0.  1.
</event>
<event>
12    1  0.1050869E+000  0.1837296E+03  0.7818608E-02  0.1164639E+00
         21   -1    0    0  503  502  0.00000000000E+00  0.00000000000E+00  0.27287319775E+03  0.27287319775E+03  0.00000000000E+00 0.  1.
         21   -1    0    0  501  503 -0.00000000000E+00 -0.00000000000E+00 -0.14543949212E+03  0.14543949212E+03  0.00000000000E+00 0.  1.
          6    2    1    2  501    0 -0.82379027761E+01 -0.59649340763E+02  0.14688533006E+03  0.23522728614E+03  0.17358187999E+03 0.  0.
         24    2    3    3    0    0 -0.18918542226E+02 -0.26076186775E+02  0.17184539304E+03  0.19179541453E+03  0.78846453118E+02 0.  0.
         -6    2    1    2    0  502  0.82379027761E+01  0.59649340763E+02 -0.19451624425E+02  0.18308540373E+03  0.17180218994E+03 0.  0.
        -24    2    5    5    0    0 -0.56346677311E+02  0.30745527864E+02  0.20917975218E+02  0.10148642726E+03  0.75773990941E+02 0.  0.
          5    1    3    3  501    0  0.10680639450E+02 -0.33573153987E+02 -0.24960062979E+02  0.43431871611E+02  0.47000000000E+01 0. -1.
        -13    1    4    4    0    0  0.27617347834E+02 -0.26849659134E+02  0.72899492326E+02  0.82449730614E+02  0.00000000000E+00 0.  1.
         14    1    4    4    0    0 -0.46535890060E+02  0.77347235822E+00  0.98945900709E+02  0.10934568391E+03  0.00000000000E+00 0. -1.
         -5    1    5    5    0  502  0.64584580087E+02  0.28903812899E+02 -0.40369599643E+02  0.81598976467E+02  0.47000000000E+01 0.  1.
         11    1    6    6    0    0 -0.55732138729E+02  0.21958347873E+02 -0.17233191655E+02  0.62331558806E+02  0.00000000000E+00 0. -1.
        -12    1    6    6    0    0 -0.61453858253E+00  0.87871799913E+01  0.38151166873E+02  0.39154868454E+02  0.00000000000E+00 0.  1.
</event>
<event>
12    1  0.1050869E+000  0.1953809E+03  0.7818608E-02  0.1153902E+00
         21   -1    0    0  503  502  0.00000000000E+00  0.00000000000E+00  0.24809264818E+03  0.24809264818E+03  0.00000000000E+00 0.  1.
         21   -1    0    0  501  503 -0.00000000000E+00 -0.00000000000E+00 -0.15736361755E+03  0.15736361755E+03  0.00000000000E+00 0.  1.
          6    2    1    2  501    0  0.83487322857E+02 -0.39962336997E+02  0.78525501999E+02  0.20969464927E+03  0.17099260221E+03 0.  0.
         24    2    3    3    0    0  0.48472221954E+02 -0.61536635821E+02  0.94441647442E+02  0.16534466227E+03  0.11083013453E+03 0.  0.
         -6    2    1    2    0  502 -0.83487322857E+02  0.39962336997E+02  0.12203528630E+02  0.19576161645E+03  0.17206557735E+03 0.  0.
        -24    2    5    5    0    0  0.56032706604E+01 -0.17573699150E+02  0.50833303843E+01  0.89364640312E+02  0.87292423190E+02 0.  0.
          5    1    3    3  501    0  0.35015100903E+02  0.21574298823E+02 -0.15916145443E+02  0.44349986998E+02  0.47000000000E+01 0. -1.
        -11    1    4    4    0    0  0.57081434690E+02 -0.55648321278E+02  0.10094418974E+02  0.80354982060E+02  0.00000000000E+00 0.  1.
         12    1    4    4    0    0 -0.86092127359E+01 -0.58883145425E+01  0.84347228468E+02  0.84989680211E+02  0.00000000000E+00 0. -1.
         -5    1    5    5    0  502 -0.89090593518E+02  0.57536036148E+02  0.71201982461E+01  0.10639697614E+03  0.47000000000E+01 0.  1.
         13    1    6    6    0    0 -0.21666708181E+02  0.25794900521E+02 -0.11375433833E+02  0.35555922589E+02  0.00000000000E+00 0. -1.
        -14    1    6    6    0    0  0.27269978841E+02 -0.43368599672E+02  0.16458764217E+02  0.53808717723E+02  0.00000000000E+00 0.  1.
</event>
<event>
12    1  0.1050869E+000  0.1968483E+03  0.7818608E-02  0.1152573E+00
         21   -1    0    0  503  502  0.00000000000E+00  0.00000000000E+00  0.23146284033E+03  0.23146284033E+03  0.00000000000E+00 0.  1.
         21   -1    0    0  501  503 -0.00000000000E+00 -0.00000000000E+00 -0.16732230868E+03  0.16732230868E+03  0.00000000000E+00 0.  1.
          6    2    1    2  501    0  0.79798918625E+02  0.52036598276E+02  0.42959066091E+02  0.20148138278E+03  0.17226024286E+03 0.  0.
         24    2    3    3    0    0  0.42507273408E+02  0.90429665925E+02  0.62500787789E+02  0.14430915758E+03  0.83272995119E+02 0.  0.
         -6    2    1    2    0  502 -0.79798918625E+02 -0.52036598276E+02  0.21181465562E+02  0.19730376623E+03  0.17147724838E+03 0.  0.
        -24    2    5    5    0    0 -0.44825863637E+02 -0.99985874397E+02  0.20065388464E+02  0.13775896558E+03  0.81045540622E+02 0.  0.
          5    1    3    3  501    0  0.37291645217E+02 -0.38393067650E+02 -0.19541721698E+02  0.57172225193E+02  0.47000000000E+01 0. -1.
        -13    1    4    4    0    0 -0.41422628036E+01  0.29877410527E+02  0.60778739421E+02  0.67851847186E+02  0.00000000000E+00 0.  1.
         14    1    4    4    0    0  0.46649536211E+02  0.60552255398E+02  0.17220483683E+01  0.76457310397E+02  0.00000000000E+00 0. -1.
         -5    1    5    5    0  502 -0.34973054988E+02  0.47949276121E+02  0.11160770976E+01  0.59544800645E+02  0.47000000000E+01 0.  1.
         13    1    6    6    0    0  0.22258665751E+02 -0.16771072905E+02  0.12672884030E+02  0.30615667182E+02  0.00000000000E+00 0. -1.
        -14    1    6    6    0    0 -0.67084529387E+02 -0.83214801492E+02  0.73925044344E+01  0.10714329840E+03  0.00000000000E+00 0.  1.
</event>
<event>
12    1  0.1050869E+000  0.2530397E+03  0.7818608E-02  0.1112280E+00
         21   -1    0    0  501  502  0.00000000000E+00  0.00000000000E+00  0.22722824550E+03  0.22722824550E+03  0.00000000000E+00 0.  1.
         21   -1    0    0  502  503 -0.00000000000E+00 -0.00000000000E+00 -0.58296923088E+03  0.58296923088E+03  0.00000000000E+00 0.  1.
         -6    2    1    2    0  503 -0.10153666470E+03 -0.15537325500E+03  0.11533870110E+03  0.27808649132E+03  0.17198412146E+03 0.  0.
        -24    2    3    3    0    0 -0.93105779550E+02 -0.44426852696E+02  0.22423483177E+02  0.13305024850E+03  0.80976074257E+02 0.  0.
          6    2    1    2  501    0  0.10153666470E+03  0.15537325500E+03 -0.47107968648E+03  0.53211098507E+03  0.16363216910E+03 0.  0.
         24    2    5    5    0    0  0.18100061915E+01  0.46300965187E+02 -0.23858176642E+03  0.25657597158E+03  0.82236940762E+02 0.  0.
          5    1    5    5  501    0  0.99726658509E+02  0.10907228981E+03 -0.23249792006E+03  0.27553501348E+03  0.47000000000E+01 0. -1.
        -13    1    6    6    0    0  0.40974325812E+02  0.32361104697E+02 -0.14710904633E+03  0.15609999355E+03  0.00000000000E+00 0.  1.
         14    1    6    6    0    0 -0.39164319620E+02  0.13939860490E+02 -0.91472720088E+02  0.10047597804E+03  0.00000000000E+00 0. -1.
         -5    1    3    3    0  503 -0.84308851501E+01 -0.11094640230E+03  0.92915217925E+02  0.14503624281E+03  0.47000000000E+01 0.  1.
         13    1    4    4    0    0 -0.46733551158E+02 -0.64598770916E+02  0.63314374313E+01  0.79981954887E+02  0.00000000000E+00 0. -1.
        -14    1    4    4    0    0 -0.46372228393E+02  0.20171918220E+02  0.16092045746E+02  0.53068293613E+02  0.00000000000E+00 0.  1.
</event>
<event>
12    1  0.1050869E+000  0.1856107E+03  0.7818608E-02  0.1163781E+00
         21   -1    0    0  503  502  0.00000000000E+00  0.00000000000E+00  0.42065268552E+03  0.42065268552E+03  0.00000000000E+00 0. -1.
         21   -1    0    0  501  503 -0.00000000000E+00 -0.00000000000E+00 -0.13760328663E+03  0.13760328663E+03  0.00000000000E+00 0. -1.
          6    2    1    2  501    0 -0.10221471325E+02 -0.67681132281E+02 -0.38630749858E+02  0.18958818410E+03  0.17252863696E+03 0.  0.
         24    2    3    3    0    0  0.29139226112E+02  0.13832948718E+02  0.89266328896E+01  0.87228013339E+02  0.80551825353E+02 0.  0.
         -6    2    1    2    0  502  0.10221471325E+02  0.67681132281E+02  0.32168014876E+03  0.36866778805E+03  0.16659113332E+03 0.  0.
        -24    2    5    5    0    0 -0.20695047613E+02  0.98794123956E+02  0.18661194404E+03  0.22657852273E+03  0.79531411284E+02 0.  0.
          5    1    3    3  501    0 -0.39360697437E+02 -0.81514080999E+02 -0.47557382748E+02  0.10236017076E+03  0.47000000000E+01 0. -1.
        -13    1    4    4    0    0  0.20093373854E+02 -0.31225664481E+02  0.16530897300E+02  0.40645496192E+02  0.00000000000E+00 0.  1.
         14    1    4    4    0    0  0.90458522578E+01  0.45058613199E+02 -0.76042644101E+01  0.46582517147E+02  0.00000000000E+00 0. -1.
         -5    1    5    5    0  502  0.30916518938E+02 -0.31112991675E+02  0.13506820472E+03  0.14208926532E+03  0.47000000000E+01 0.  1.
         13    1    6    6    0    0 -0.50134252540E+02  0.76529562694E+02  0.12872131095E+03  0.15792211098E+03  0.00000000000E+00 0. -1.
        -14    1    6    6    0    0  0.29439204927E+02  0.22264561262E+02  0.57890633087E+02  0.68656411748E+02  0.00000000000E+00 0.  1.
</event>
<event>
12    1  0.1050869E+000  0.1733455E+03  0.7818608E-02  0.1174896E+00
         21   -1    0    0  501  502  0.00000000000E+00  0.00000000000E+00  0.32706681665E+03  0.32706681665E+03  0.00000000000E+00 0.  1.
         21   -1    0    0  502  503 -0.00000000000E+00 -0.00000000000E+00 -0.92363786672E+02  0.92363786672E+02  0.00000000000E+00 0.  1.
         -6    2    1    2    0  503 -0.32440929661E+01 -0.30863026950E+02  0.14350968536E+03  0.22356106906E+03  0.16858668760E+03 0.  0.
        -24    2    3    3    0    0 -0.55418084652E+02  0.16836558976E+02  0.10081330095E+03  0.14084198331E+03  0.79489048234E+02 0.  0.
          6    2    1    2  501    0  0.32440929661E+01  0.30863026950E+02  0.91193344622E+02  0.19586953427E+03  0.17054500221E+03 0.  0.
         24    2    5    5    0    0 -0.50007628730E+02  0.16366130823E+02  0.10164383638E+03  0.13950280082E+03  0.79755556517E+02 0.  0.
          5    1    5    5  501    0  0.53251721696E+02  0.14496896126E+02 -0.10450491754E+02  0.56366733441E+02  0.47000000000E+01 0. -1.
        -13    1    6    6    0    0 -0.37697464083E+02  0.26488161910E+01  0.16520111988E+01  0.37826500849E+02  0.00000000000E+00 0.  1.
         14    1    6    6    0    0 -0.12310164647E+02  0.13717314632E+02  0.99991825178E+02  0.10167629998E+03  0.00000000000E+00 0. -1.
         -5    1    3    3    0  503  0.52173991686E+02 -0.47699585926E+02  0.42696384410E+02  0.82719085752E+02  0.47000000000E+01 0.  1.
         13    1    4    4    0    0 -0.51742336176E+02 -0.23756354258E+02  0.50621534384E+02  0.76185126265E+02  0.00000000000E+00 0. -1.
        -14    1    4    4    0    0 -0.36757484763E+01  0.40592913235E+02  0.50191766567E+02  0.64656857044E+02  0.00000000000E+00 0.  1.
</event>
<event>
12    1  0.1050869E+000  0.1925747E+03  0.7818608E-02  0.1156220E+00
         21   -1    0    0  503  502  0.00000000000E+00  0.00000000000E+00  0.53883467647E+02  0.53883467647E+02  0.00000000000E+00 0. -1.
         21   -1    0    0  501  503 -0.00000000000E+00 -0.00000000000E+00 -0.69243078273E+03  0.69243078273E+03  0.00000000000E+00 0. -1.
          6    2    1    2  501    0 -0.95093999430E+01 -0.81913961246E+02 -0.35127637093E+03  0.40046803175E+03  0.17372170257E+03 0.  0.
         24    2    3    3    0    0 -0.38134942757E+02  0.98044796381E+01 -0.19453048881E+03  0.21655757619E+03  0.86629504503E+02 0.  0.
         -6    2    1    2    0  502  0.95093999430E+01  0.81913961246E+02 -0.28727094415E+03  0.34584621863E+03  0.17402495756E+03 0.  0.
        -24    2    5    5    0    0  0.54749608441E+02  0.10992052497E+02 -0.21089078853E+03  0.23212457698E+03  0.79300376495E+02 0.  0.
          5    1    3    3  501    0  0.28625542814E+02 -0.91718440884E+02 -0.15674588212E+03  0.18391045555E+03  0.47000000000E+01 0. -1.
        -11    1    4    4    0    0 -0.20375110562E+02 -0.10126871416E+02 -0.27392172185E+01  0.22917285312E+02  0.00000000000E+00 0.  1.
         12    1    4    4    0    0 -0.17759832195E+02  0.19931351054E+02 -0.19179127159E+03  0.19364029088E+03  0.00000000000E+00 0. -1.
         -5    1    5    5    0  502 -0.45240208498E+02  0.70921908749E+02 -0.76380155627E+02  0.11372164165E+03  0.47000000000E+01 0.  1.
         13    1    6    6    0    0  0.74846332940E+02  0.69147627319E+01 -0.14831064619E+03  0.16627036799E+03  0.00000000000E+00 0. -1.
        -14    1    6    6    0    0 -0.20096724499E+02  0.40772897650E+01 -0.62580142339E+02  0.65854208997E+02  0.00000000000E+00 0.  1.
</event>
<event>
12    1  0.1050869E+000  0.2625219E+03  0.7818608E-02  0.1105773E+00
         21   -1    0    0  501  502  0.00000000000E+00  0.00000000000E+00  0.11037614466E+04  0.11037614466E+04  0.00000000000E+00 0. -1.
         21   -1    0    0  502  503 -0.00000000000E+00 -0.00000000000E+00 -0.16429595755E+03  0.16429595755E+03  0.00000000000E+00 0.  1.
         -6    2    1    2    0  503  0.13502717494E+03  0.14594109105E+03  0.96979381967E+03  0.10046978602E+04  0.17142519563E+03 0.  0.
        -24    2    3    3    0    0  0.13317189861E+03  0.55188751123E+02  0.73393850415E+03  0.75193463288E+03  0.77197224166E+02 0.  0.
          6    2    1    2  501    0 -0.13502717494E+03 -0.14594109105E+03 -0.30328330620E+02  0.26335954389E+03  0.17002147421E+03 0.  0.
         24    2    5    5    0    0 -0.39474652921E+02 -0.13666429497E+03 -0.38762708061E+02  0.16687341985E+03  0.78158895686E+02 0.  0.
          5    1    5    5  501    0 -0.95552522014E+02 -0.92767960841E+01  0.84343774410E+01  0.96486124037E+02  0.47000000000E+01 0. -1.
        -13    1    6    6    0    0  0.20797568934E+02 -0.15885353635E+02  0.89547644829E+00  0.26185591682E+02  0.00000000000E+00 0.  1.
         14    1    6    6    0    0 -0.60272221855E+02 -0.12077894133E+03 -0.39658184510E+02  0.14068782817E+03  0.00000000000E+00 0. -1.
         -5    1    3    3    0  503  0.18552763208E+01  0.90752339930E+02  0.23585531551E+03  0.25276322737E+03  0.47000000000E+01 0.  1.
         13    1    4    4    0    0  0.13618205738E+03  0.63487478747E+02  0.63203556610E+03  0.64965003620E+03  0.00000000000E+00 0. -1.
        -14    1    4    4    0    0 -0.30101587704E+01 -0.82987276240E+01  0.10190293805E+03  0.10228459669E+03  0.00000000000E+00 0.  1.
</event>
<event>
12    1  0.1050869E+000  0.2297409E+03  0.7818608E-02  0.1126895E+00
         21   -1    0    0  503  502  0.00000000000E+00  0.00000000000E+00  0.31643939202E+03  0.31643939202E+03  0.00000000000E+00 0. -1.
         21   -1    0    0  501  503 -0.00000000000E+00 -0.00000000000E+00 -0.21323577420E+03  0.21323577420E+03  0.00000000000E+00 0. -1.
          6    2    1    2  501    0  0.11573384811E+03  0.99911251345E+02  0.17555848175E+03  0.28880986637E+03  0.17092038103E+03 0.  0.
         24    2    3    3    0    0  0.49691454859E+02  0.22645037000E+00  0.13068050378E+03  0.16100227599E+03  0.79843890427E+02 0.  0.
         -6    2    1    2    0  502 -0.11573384811E+03 -0.99911251345E+02 -0.72354863932E+02  0.24086529986E+03  0.17147677568E+03 0.  0.
        -24    2    5    5    0    0 -0.41991275628E+02  0.14290204809E+02 -0.31406740022E+02  0.98813272645E+02  0.82523950158E+02 0.  0.
          5    1    3    3  501    0  0.66042393251E+02  0.99684800975E+02  0.44877977971E+02  0.12780759038E+03  0.47000000000E+01 0. -1.
        -13    1    4    4    0    0  0.65529296863E+02  0.15133497691E+02  0.11801561425E+03  0.13583370976E+03  0.00000000000E+00 0.  1.
         14    1    4    4    0    0 -0.15837842004E+02 -0.14907047321E+02  0.12664889532E+02  0.25168566229E+02  0.00000000000E+00 0. -1.
         -5    1    5    5    0  502 -0.73742572482E+02 -0.11420145615E+03 -0.40948123909E+02  0.14205202721E+03  0.47000000000E+01 0.  1.
         11    1    6    6    0    0 -0.34228930621E+02 -0.13670478060E+01  0.23269530045E+02  0.41412069976E+02  0.00000000000E+00 0. -1.
        -12    1    6    6    0    0 -0.77623450067E+01  0.15657252615E+02 -0.54676270067E+02  0.57401202670E+02  0.00000000000E+00 0.  1.
</event>
<event>
12    1  0.1220885E+000  0.1928018E+03  0.7818608E-02  0.1156033E+00
         21   -1    0    0  501  502  0.00000000000E+00  0.00000000000E+00  0.34175825953E+03  0.34175825953E+03  0.00000000000E+00 0.  1.
         21   -1    0    0  502  503 -0.00000000000E+00 -0.00000000000E+00 -0.36001690738E+03  0.36001690738E+03  0.00000000000E+00 0.  1.
         -6    2    1    2    0  503  0.63137527736E+00  0.87781572030E+02  0.28411270696E+03  0.34316537650E+03  0.17127884386E+03 0.  0.
        -24    2    3    3    0    0  0.54771494545E+02  0.89526331401E+02  0.23873380412E+03  0.27234495909E+03  0.78505202916E+02 0.  0.
          6    2    1    2  501    0 -0.63137527736E+00 -0.87781572030E+02 -0.30237135481E+03  0.35860979040E+03  0.17165821431E+03 0.  0.
         24    2    5    5    0    0 -0.25081338212E+02 -0.56480704948E+02 -0.30321598002E+03  0.31860543615E+03  0.75831061198E+02 0.  0.
          5    1    5    5  501    0  0.24449962935E+02 -0.31300867082E+02  0.84462521428E+00  0.40004354255E+02  0.47000000000E+01 0. -1.
        -13    1    6    6    0    0  0.19351439238E+02  0.64899232040E+01 -0.74996726309E+02  0.77724553784E+02  0.00000000000E+00 0.  1.
         14    1    6    6    0    0 -0.44432777451E+02 -0.62970628152E+02 -0.22821925372E+03  0.24088088236E+03  0.00000000000E+00 0. -1.
         -5    1    3    3    0  503 -0.54140119268E+02 -0.17447593708E+01  0.45378902842E+02  0.70820417415E+02  0.47000000000E+01 0.  1.
         13    1    4    4    0    0  0.14101514014E+01  0.70445023591E+02  0.98614127077E+02  0.12119915814E+03  0.00000000000E+00 0. -1.
        -14    1    4    4    0    0  0.53361343144E+02  0.19081307810E+02  0.14011967704E+03  0.15114580094E+03  0.00000000000E+00 0.  1.
</event>
<event>
12    1  0.1050869E+000  0.1810694E+03  0.7818608E-02  0.1166910E+00
         21   -1    0    0  503  502  0.00000000000E+00  0.00000000000E+00  0.47984207818E+02  0.47984207818E+02  0.00000000000E+00 0. -1.
         21   -1    0    0  501  503 -0.00000000000E+00 -0.00000000000E+00 -0.15290267054E+04  0.15290267054E+04  0.00000000000E+00 0. -1.
          6    2    1    2  501    0 -0.52560553419E+02  0.12210975766E+02 -0.13282300362E+04  0.13405152550E+04  0.17284212539E+03 0.  0.
         24    2    3    3    0    0 -0.64807917475E+02 -0.49679066769E+02 -0.74740650937E+03  0.75625637870E+03  0.81480944050E+02 0.  0.
         -6    2    1    2    0  502  0.52560553419E+02 -0.12210975766E+02 -0.15281246147E+03  0.23649565824E+03  0.17224061158E+03 0.  0.
        -24    2    5    5    0    0 -0.26462922316E+02 -0.35409167480E+02 -0.11213501589E+03  0.14451951788E+03  0.79734144880E+02 0.  0.
          5    1    3    3  501    0  0.12247364055E+02  0.61890042535E+02 -0.58082352679E+03  0.58425887632E+03  0.47000000000E+01 0. -1.
        -11    1    4    4    0    0  0.82525666089E+01 -0.25858316364E+02 -0.37626739733E+03  0.37724516123E+03  0.00000000000E+00 0.  1.
         12    1    4    4    0    0 -0.73060484084E+02 -0.23820750405E+02 -0.37113911204E+03  0.37901121747E+03  0.00000000000E+00 0. -1.
         -5    1    5    5    0  502  0.79023475736E+02  0.23198191714E+02 -0.40677445581E+02  0.91976140358E+02  0.47000000000E+01 0.  1.
         11    1    6    6    0    0 -0.32752567906E+02  0.15920566826E+02 -0.65208445119E+02  0.74688261912E+02  0.00000000000E+00 0. -1.
        -12    1    6    6    0    0  0.62896455894E+01 -0.51329734306E+02 -0.46926570773E+02  0.69831255968E+02  0.00000000000E+00 0.  1.
</event>
<event>
12    1  0.1050869E+000  0.2210121E+03  0.7818608E-02  0.1133245E+00
         21   -1    0    0  503  502  0.00000000000E+00  0.00000000000E+00  0.24094200810E+03  0.24094200810E+03  0.00000000000E+00 0. -1.
         21   -1    0    0  501  503 -0.00000000000E+00 -0.00000000000E+00 -0.20240096828E+03  0.20240096828E+03  0.00000000000E+00 0. -1.
          6    2    1    2  501    0  0.13408797515E+03 -0.34283729611E+02  0.11755090843E+02  0.22132452119E+03  0.17231193320E+03 0.  0.
         24    2    3    3    0    0  0.96444450494E+02 -0.62206985562E+02 -0.47951894698E+02  0.14527350349E+03  0.75058414092E+02 0.  0.
         -6    2    1    2    0  502 -0.13408797515E+03  0.34283729611E+02  0.26785948969E+02  0.22201845519E+03  0.17152185921E+03 0.  0.
        -24    2    5    5    0    0 -0.11095653972E+02  0.19579640480E+01 -0.27547911397E+02  0.83648210661E+02  0.78174091387E+02 0.  0.
          5    1    3    3  501    0  0.37643524659E+02  0.27923255951E+02  0.59706985541E+02  0.76051017705E+02  0.47000000000E+01 0. -1.
        -13    1    4    4    0    0  0.90052589463E+02 -0.25729098872E+02 -0.53448554495E+02  0.10783414754E+03  0.00000000000E+00 0.  1.
         14    1    4    4    0    0  0.63918610317E+01 -0.36477886690E+02  0.54966597972E+01  0.37439355947E+02  0.00000000000E+00 0. -1.
         -5    1    5    5    0  502 -0.12299232118E+03  0.32325765563E+02  0.54333860366E+02  0.13837024453E+03  0.47000000000E+01 0.  1.
         11    1    6    6    0    0 -0.14484408640E+02  0.38584163046E+02 -0.79595134019E+01  0.41974868496E+02  0.00000000000E+00 0. -1.
        -12    1    6    6    0    0  0.33887546678E+01 -0.36626198998E+02 -0.19588397995E+02  0.41673342166E+02  0.00000000000E+00 0.  1.
</event>
<event>
12    1  0.1050869E+000  0.3220839E+03  0.7818608E-02  0.1074774E+00
         21   -1    0    0  501  502  0.00000000000E+00  0.00000000000E+00  0.29758679565E+03  0.29758679565E+03  0.00000000000E+00 0.  1.
         21   -1    0    0  502  503 -0.00000000000E+00 -0.00000000000E+00 -0.34858226975E+03  0.34858226975E+03  0.00000000000E+00 0.  1.
         -6    2    1    2    0  503  0.24261167167E+03  0.12189296990E+03 -0.40402891052E+02  0.32460816076E+03  0.17326207052E+03 0.  0.
        -24    2    3    3    0    0  0.26128346166E+03  0.96021925096E+02 -0.37183187175E+02  0.29219823645E+03  0.80671943949E+02 0.  0.
          6    2    1    2  501    0 -0.24261167167E+03 -0.12189296990E+03 -0.10592583049E+02  0.32156090464E+03  0.17196189472E+03 0.  0.
         24    2    5    5    0    0 -0.88758416950E+02 -0.11379203546E+03  0.13647479931E+02  0.16552847282E+03  0.79917067581E+02 0.  0.
          5    1    5    5  501    0 -0.15385325472E+03 -0.81009344386E+01 -0.24240062980E+02  0.15603243182E+03  0.47000000000E+01 0. -1.
        -11    1    6    6    0    0 -0.69240961081E+02 -0.11764991740E+03 -0.72109070433E+01  0.13670336841E+03  0.00000000000E+00 0.  1.
         12    1    6    6    0    0 -0.19517455869E+02  0.38578819381E+01  0.20858386975E+02  0.28825104403E+02  0.00000000000E+00 0. -1.
         -5    1    3    3    0  503 -0.18671789987E+02  0.25871044801E+02 -0.32197038766E+01  0.32409924306E+02  0.47000000000E+01 0.  1.
         11    1    4    4    0    0  0.19152268330E+03  0.30232898705E+02 -0.27138919200E+02  0.19578428772E+03  0.00000000000E+00 0. -1.
        -12    1    4    4    0    0  0.69760778359E+02  0.65789026391E+02 -0.10044267975E+02  0.96413948731E+02  0.00000000000E+00 0.  1.
</event>
<event>
12    1  0.1050869E+000  0.1757578E+03  0.7818608E-02  0.1172306E+00
         21   -1    0    0  501  502  0.00000000000E+00  0.00000000000E+00  0.40542926807E+02  0.40542926807E+02  0.00000000000E+00 0.  1.
         21   -1    0    0  502  503 -0.00000000000E+00 -0.00000000000E+00 -0.82735285994E+03  0.82735285994E+03  0.00000000000E+00 0.  1.
         -6    2    1    2    0  503  0.26482482314E+02  0.10401465094E+02 -0.51932048475E+03  0.54783109030E+03  0.17209190937E+03 0.  0.
        -24    2    3    3    0    0  0.49744540763E+02  0.56907037933E+02 -0.23338440438E+03  0.25716732626E+03  0.77161021150E+02 0.  0.
          6    2    1    2  501    0 -0.26482482314E+02 -0.10401465094E+02 -0.26748944839E+03  0.32006469645E+03  0.17343959344E+03 0.  0.
         24    2    5    5    0    0  0.31042317351E+02  0.25539462813E+02 -0.99665645939E+02  0.13899075701E+03  0.88143632373E+02 0.  0.
          5    1    5    5  501    0 -0.57524799664E+02 -0.35940927906E+02 -0.16782380245E+03  0.18107393944E+03  0.47000000000E+01 0. -1.
        -11    1    6    6    0    0 -0.63380077127E+01  0.37298856035E+02 -0.91429629483E+02  0.98948229649E+02  0.00000000000E+00 0.  1.
         12    1    6    6    0    0  0.37380325063E+02 -0.11759393223E+02 -0.82360164559E+01  0.40042527366E+02  0.00000000000E+00 0. -1.
         -5    1    3    3    0  503 -0.23262058449E+02 -0.46505572840E+02 -0.28593608037E+03  0.29066376404E+03  0.47000000000E+01 0.  1.
         11    1    4    4    0    0  0.25171325818E+02  0.59711751464E+02 -0.21936860267E+03  0.22873931176E+03  0.00000000000E+00 0. -1.
        -12    1    4    4    0    0  0.24573214945E+02 -0.28047135303E+01 -0.14015801705E+02  0.28428014495E+02  0.00000000000E+00 0.  1.
</event>
<event>
12    1  0.1050869E+000  0.3387747E+03  0.7818608E-02  0.1067450E+00
         21   -1    0    0  503  502  0.00000000000E+00  0.00000000000E+00  0.20705370674E+03  0.20705370674E+03  0.00000000000E+00 0.  1.
         21   -1    0    0  501  503 -0.00000000000E+00 -0.00000000000E+00 -0.55311728181E+03  0.55311728181E+03  0.00000000000E+00 0. -1.
          6    2    1    2  501    0  0.12996707028E+03 -0.25955019569E+03 -0.18740384602E+03  0.38608384600E+03  0.17228694435E+03 0.  0.
         24    2    3    3    0    0  0.30127300170E+02 -0.49373162216E+02 -0.92876706113E+02  0.13488704013E+03  0.78886422752E+02 0.  0.
         -6    2    1    2    0  502 -0.12996707028E+03  0.25955019569E+03 -0.15865972905E+03  0.37408714255E+03  0.17467265716E+03 0.  0.
        -24    2    5    5    0    0 -0.14674888792E+03  0.17405231229E+03 -0.15465824783E+03  0.28673945042E+03  0.80441875186E+02 0.  0.
          5    1    3    3  501    0  0.99839770113E+02 -0.21017703348E+03 -0.94527139908E+02  0.25119680586E+03  0.47000000000E+01 0. -1.
        -13    1    4    4    0    0 -0.26131791475E+01 -0.21546114640E+02  0.96257944869E+01  0.23742781658E+02  0.00000000000E+00 0.  1.
         14    1    4    4    0    0  0.32740479317E+02 -0.27827047576E+02 -0.10250250060E+03  0.11114425847E+03  0.00000000000E+00 0. -1.
         -5    1    5    5    0  502  0.16781817640E+02  0.85497883402E+02 -0.40014812205E+01  0.87347692136E+02  0.47000000000E+01 0.  1.
         13    1    6    6    0    0 -0.65891818727E+02  0.13571230217E+03 -0.11014909964E+03  0.18679503443E+03  0.00000000000E+00 0. -1.
        -14    1    6    6    0    0 -0.80857069197E+02  0.38340010124E+02 -0.44509148190E+02  0.99944415992E+02  0.00000000000E+00 0.  1.
</event>
<event>
12    1  0.1050869E+000  0.1948413E+03  0.7818608E-02  0.1154481E+00
         21   -1    0    0  501  502  0.00000000000E+00  0.00000000000E+00  0.15616127641E+04  0.15616127641E+04  0.00000000000E+00 0. -1.
         21   -1    0    0  502  503 -0.00000000000E+00 -0.00000000000E+00 -0.28097329853E+02  0.28097329853E+02  0.00000000000E+00 0. -1.
         -6    2    1    2    0  503 -0.39234245861E+02 -0.79487112216E+02  0.46566709245E+03  0.50423175754E+03  0.17189036407E+03 0.  0.
        -24    2    3    3    0    0  0.27654160487E+02 -0.89465134594E+02  0.27755222762E+03  0.30427448159E+03  0.82334428943E+02 0.  0.
          6    2    1    2  501    0  0.39234245861E+02  0.79487112216E+02  0.10678483418E+04  0.10854783364E+04  0.17350968472E+03 0.  0.
         24    2    5    5    0    0  0.64233956829E+02  0.10535356491E+03  0.97051467151E+03  0.98160344872E+03  0.80132565549E+02 0.  0.
          5    1    5    5  501    0 -0.24999710968E+02 -0.25866452693E+02  0.97333670281E+02  0.10387488770E+03  0.47000000000E+01 0. -1.
        -11    1    6    6    0    0  0.41147122876E+02  0.16506595844E+02  0.51663366180E+03  0.51853244250E+03  0.00000000000E+00 0.  1.
         12    1    6    6    0    0  0.23086833953E+02  0.88846969066E+02  0.45388100972E+03  0.46307100622E+03  0.00000000000E+00 0. -1.
         -5    1    3    3    0  503 -0.66888406349E+02  0.99780223775E+01  0.18811486483E+03  0.19995727594E+03  0.47000000000E+01 0.  1.
         11    1    4    4    0    0  0.25261176292E+02 -0.46655543668E+02  0.50628526019E+02  0.73335628650E+02  0.00000000000E+00 0. -1.
        -12    1    4    4    0    0  0.23929841953E+01 -0.42809590926E+02  0.22692370160E+03  0.23093885294E+03  0.00000000000E+00 0.  1.
</event>
<event>
12    1  0.1050869E+000  0.2352323E+03  0.7818608E-02  0.1123395E+00
         21   -1    0    0  501  502  0.00000000000E+00  0.00000000000E+00  0.39404054476E+03  0.39404054476E+03  0.00000000000E+00 0. -1.
         21   -1    0    0  502  503 -0.00000000000E+00 -0.00000000000E+00 -0.17920296029E+03  0.17920296029E+03  0.00000000000E+00 0. -1.
         -6    2    1    2    0  503 -0.69058947692E+02 -0.14067769033E+03 -0.28575384063E+02  0.23474076582E+03  0.17241613541E+03 0.  0.
        -24    2    3    3    0    0 -0.84102704949E+02 -0.99351025617E+02  0.38064586799E+02  0.15475837048E+03  0.74547630366E+02 0.  0.
          6    2    1    2  501    0  0.69058947692E+02  0.14067769033E+03  0.24341296853E+03  0.33850273923E+03  0.17542770706E+03 0.  0.
         24    2    5    5    0    0 -0.22643989822E+02  0.19130348378E+02  0.11807469361E+03  0.14123399299E+03  0.71600886859E+02 0.  0.
          5    1    5    5  501    0  0.91702937514E+02  0.12154734195E+03  0.12533827492E+03  0.19726874624E+03  0.47000000000E+01 0. -1.
        -11    1    6    6    0    0 -0.36739893913E+01 -0.22671967211E+02  0.74427331826E+02  0.77890590048E+02  0.00000000000E+00 0.  1.
         12    1    6    6    0    0 -0.18970000431E+02  0.41802315589E+02  0.43647361789E+02  0.63343402940E+02  0.00000000000E+00 0. -1.
         -5    1    3    3    0  503  0.15043757256E+02 -0.41326664712E+02 -0.66639970862E+02  0.79982395345E+02  0.47000000000E+01 0.  1.
         11    1    4    4    0    0 -0.54355641241E+02 -0.10539572804E+03  0.37582581886E+02  0.12439954053E+03  0.00000000000E+00 0. -1.
        -12    1    4    4    0    0 -0.29747063708E+02  0.60447024242E+01  0.48200491333E+00  0.30358829941E+02  0.00000000000E+00 0.  1.
</event>
<event>
12    1  0.1050869E+000  0.2165533E+03  0.7818608E-02  0.1136568E+00
         21   -1    0    0  503  502  0.00000000000E+00  0.00000000000E+00  0.33887676910E+04  0.33887676910E+04  0.00000000000E+00 0.  1.
         21   -1    0    0  501  503 -0.00000000000E+00 -0.00000000000E+00 -0.13995230160E+02  0.13995230160E+02  0.00000000000E+00 0.  1.
          6    2    1    2  501    0 -0.11101629032E+02 -0.13090963779E+03  0.18855748093E+04  0.18979693606E+04  0.17214747422E+03 0.  0.
         24    2    3    3    0    0 -0.23608209324E+02 -0.40636530431E+02  0.43834584706E+03  0.44786612027E+03  0.78919610368E+02 0.  0.
         -6    2    1    2    0  502  0.11101629032E+02  0.13090963779E+03  0.14891976515E+04  0.15047935606E+04  0.17156175308E+03 0.  0.
        -24    2    5    5    0    0 -0.33671980189E+01  0.13119651899E+03  0.84633588509E+03  0.86175175008E+03  0.95434709432E+02 0.  0.
          5    1    3    3  501    0  0.12506580293E+02 -0.90273107355E+02  0.14472289622E+04  0.14501032403E+04  0.47000000000E+01 0. -1.
        -13    1    4    4    0    0 -0.44011981535E+02 -0.14940896103E+02  0.35911107399E+03  0.36210640475E+03  0.00000000000E+00 0.  1.
         14    1    4    4    0    0  0.20403772211E+02 -0.25695634329E+02  0.79234773068E+02  0.85759715526E+02  0.00000000000E+00 0. -1.
         -5    1    5    5    0  502  0.14468827051E+02 -0.28688120311E+00  0.64286176645E+03  0.64304181048E+03  0.47000000000E+01 0.  1.
         11    1    6    6    0    0 -0.87528025763E+01  0.11741073225E+03  0.83459845603E+03  0.84286207318E+03  0.00000000000E+00 0. -1.
        -12    1    6    6    0    0  0.53856045574E+01  0.13785786741E+02  0.11737429057E+02  0.18889676900E+02  0.00000000000E+00 0.  1.
</event>
<event>
12    1  0.1050869E+000  0.5673855E+03  0.7818608E-02  0.9975571E-01
         21   -1    0    0  501  502  0.00000000000E+00  0.00000000000E+00  0.15911796242E+04  0.15911796242E+04  0.00000000000E+00 0. -1.
         21   -1    0    0  502  503 -0.00000000000E+00 -0.00000000000E+00 -0.23467347047E+03  0.23467347047E+03  0.00000000000E+00 0. -1.
         -6    2    1    2    0  503  0.39651215727E+03  0.36720251642E+03  0.10174471141E+04  0.11648785924E+04  0.17229023746E+03 0.  0.
        -24    2    3    3    0    0  0.35400766280E+03  0.30274725645E+03  0.95455130890E+03  0.10651836331E+04  0.80440314851E+02 0.  0.
          6    2    1    2  501    0 -0.39651215727E+03 -0.36720251642E+03  0.33905903956E+03  0.66097450229E+03  0.17281979474E+03 0.  0.
         24    2    5    5    0    0 -0.17998012217E+03 -0.14622548211E+03  0.75175876718E+02  0.25431323595E+03  0.72450490304E+02 0.  0.
          5    1    5    5  501    0 -0.21653203510E+03 -0.22097703431E+03  0.26388316284E+03  0.40666126635E+03  0.47000000000E+01 0. -1.
        -13    1    6    6    0    0 -0.15543260218E+03 -0.98760285733E+02  0.79748945049E+02  0.20068079652E+03  0.00000000000E+00 0.  1.
         14    1    6    6    0    0 -0.24547519991E+02 -0.47465196375E+02 -0.45730683310E+01  0.53632439424E+02  0.00000000000E+00 0. -1.
         -5    1    3    3    0  503  0.42504494468E+02  0.64455259969E+02  0.62895805249E+02  0.99694959278E+02  0.47000000000E+01 0.  1.
         11    1    4    4    0    0  0.82416060143E+01  0.13318279166E+02  0.10166761235E+02  0.18672537686E+02  0.00000000000E+00 0. -1.
        -12    1    4    4    0    0  0.34576605678E+03  0.28942897728E+03  0.94438454766E+03  0.10465110954E+04  0.00000000000E+00 0.  1.
</event>
<event>
12    1  0.1050869E+000  0.2198926E+03  0.7818608E-02  0.1134471E+00
         21   -1    0    0  501  502  0.00000000000E+00  0.00000000000E+00  0.15873043840E+03  0.15873043840E+03  0.00000000000E+00 0. -1.
         21   -1    0    0  502  503 -0.00000000000E+00 -0.00000000000E+00 -0.58497255663E+03  0.58497255663E+03  0.00000000000E+00 0. -1.
         -6    2    1    2    0  503  0.25345402556E+02  0.13302205703E+03  0.46688985183E+02  0.22215091221E+03  0.16980550454E+03 0.  0.
        -24    2    3    3    0    0 -0.37180948429E+01  0.14120520144E+03 -0.44007713427E+01  0.16262021462E+03  0.80456412242E+02 0.  0.
          6    2    1    2  501    0 -0.25345402556E+02 -0.13302205703E+03 -0.47293110342E+03  0.52155208282E+03  0.17324978913E+03 0.  0.
         24    2    5    5    0    0 -0.64322217620E+02 -0.58972694059E+02 -0.17088469473E+03  0.20809295747E+03  0.80535543278E+02 0.  0.
          5    1    5    5  501    0  0.38976815064E+02 -0.74049362968E+02 -0.30204640869E+03  0.31345912536E+03  0.47000000000E+01 0. -1.
        -11    1    6    6    0    0 -0.14527348114E+02 -0.63609284919E+02 -0.71248400376E+02  0.96610141948E+02  0.00000000000E+00 0.  1.
         12    1    6    6    0    0 -0.49794869506E+02  0.46365908596E+01 -0.99636294349E+02  0.11148281552E+03  0.00000000000E+00 0. -1.
         -5    1    3    3    0  503  0.29063497399E+02 -0.81831444156E+01  0.51089756526E+02  0.59530697590E+02  0.47000000000E+01 0.  1.
         11    1    4    4    0    0 -0.58567957835E+00 -0.10508118347E+02  0.21145639343E+01  0.10734754417E+02  0.00000000000E+00 0. -1.
        -12    1    4    4    0    0 -0.31324152645E+01  0.15171331979E+03 -0.65153352769E+01  0.15188546020E+03  0.00000000000E+00 0.  1.
</event>
<event>
12    1  0.1050869E+000  0.1779522E+03  0.7818608E-02  0.1170099E+00
         21   -1    0    0  503  502  0.00000000000E+00  0.00000000000E+00  0.12649586217E+04  0.12649586217E+04  0.00000000000E+00 0.  1.
         21   -1    0    0  501  503 -0.00000000000E+00 -0.00000000000E+00 -0.37497534848E+02  0.37497534848E+02  0.00000000000E+00 0.  1.
          6    2    1    2  501    0 -0.97661534536E+00 -0.39344941041E+02  0.99034361408E+03  0.10059908441E+04  0.17230242655E+03 0.  0.
         24    2    3    3    0    0  0.36770062367E+02  0.31979460118E+02  0.44694945653E+03  0.45661730779E+03  0.79754784976E+02 0.  0.
         -6    2    1    2    0  502  0.97661534536E+00  0.39344941041E+02  0.23711747272E+03  0.29646531245E+03  0.17354540458E+03 0.  0.
        -24    2    5    5    0    0  0.44499413364E+02 -0.29449652621E+02  0.12312673284E+03  0.15631215036E+03  0.80161188747E+02 0.  0.
          5    1    3    3  501    0 -0.37746677712E+02 -0.71324401159E+02  0.54339415756E+03  0.54937353626E+03  0.47000000000E+01 0. -1.
        -13    1    4    4    0    0  0.10701568373E+02  0.40862582760E+02  0.99721821138E+02  0.10829919596E+03  0.00000000000E+00 0.  1.
         14    1    4    4    0    0  0.26068493994E+02 -0.88831226423E+01  0.34722763539E+03  0.34831811182E+03  0.00000000000E+00 0. -1.
         -5    1    5    5    0  502 -0.43522798019E+02  0.68794593662E+02  0.11399073988E+03  0.14015316209E+03  0.47000000000E+01 0.  1.
         13    1    6    6    0    0  0.31730675881E+02 -0.23803436952E+02  0.13327461496E+03  0.13905237285E+03  0.00000000000E+00 0. -1.
        -14    1    6    6    0    0  0.12768737483E+02 -0.56462156686E+01 -0.10147882118E+02  0.17259777512E+02  0.00000000000E+00 0.  1.
</event>
<event>
12    1  0.1050869E+000  0.2052775E+03  0.7818608E-02  0.1145578E+00
         21   -1    0    0  501  502  0.00000000000E+00  0.00000000000E+00  0.21719999024E+03  0.21719999024E+03  0.00000000000E+00 0.  1.
         21   -1    0    0  502  503 -0.00000000000E+00 -0.00000000000E+00 -0.19482479147E+03  0.19482479147E+03  0.00000000000E+00 0.  1.
         -6    2    1    2    0  503 -0.63876053013E+02 -0.89708797416E+02  0.31095049856E+02  0.20761925553E+03  0.17323693214E+03 0.  0.
        -24    2    3    3    0    0 -0.21317172626E+02 -0.12408900743E+03  0.10130025728E+02  0.14884103356E+03  0.78730757892E+02 0.  0.
          6    2    1    2  501    0  0.63876053013E+02  0.89708797416E+02 -0.87198510763E+01  0.20440552618E+03  0.17198187361E+03 0.  0.
         24    2    5    5    0    0  0.46563135923E+02  0.42830899528E+02 -0.70667502662E+02  0.12467550709E+03  0.80916466515E+02 0.  0.
          5    1    5    5  501    0  0.17312917091E+02  0.46877897888E+02  0.61947651586E+02  0.79730019099E+02  0.47000000000E+01 0. -1.
        -13    1    6    6    0    0  0.48804406524E+02 -0.78226732114E+01 -0.21014626188E+02  0.53709206158E+02  0.00000000000E+00 0.  1.
         14    1    6    6    0    0 -0.22412706013E+01  0.50653572739E+02 -0.49652876474E+02  0.70966300927E+02  0.00000000000E+00 0. -1.
         -5    1    3    3    0  503 -0.42558880388E+02  0.34380210012E+02  0.20965024127E+02  0.58778221961E+02  0.47000000000E+01 0.  1.
         11    1    4    4    0    0 -0.15044379427E+02 -0.67548634176E+02  0.44595107053E+02  0.82327850114E+02  0.00000000000E+00 0. -1.
        -12    1    4    4    0    0 -0.62727931993E+01 -0.56540373252E+02 -0.34465081325E+02  0.66513183450E+02  0.00000000000E+00 0.  1.
</event>
<event>
12    1  0.1050869E+000  0.3164654E+03  0.7818608E-02  0.1077784E+00
         21   -1    0    0  501  502  0.00000000000E+00  0.00000000000E+00  0.18738718171E+03  0.18738718171E+03  0.00000000000E+00 0.  1.
         21   -1    0    0  502  503 -0.00000000000E+00 -0.00000000000E+00 -0.54317183746E+03  0.54317183746E+03  0.00000000000E+00 0.  1.
         -6    2    1    2    0  503  0.15640134364E+03 -0.20837667194E+03 -0.11439742650E+03  0.33254125780E+03  0.17208921887E+03 0.  0.
        -24    2    3    3    0    0  0.16781216547E+03 -0.20367088074E+03 -0.67260645235E+02  0.28358906200E+03  0.79094950213E+02 0.  0.
          6    2    1    2  501    0 -0.15640134364E+03  0.20837667194E+03 -0.24138722924E+03  0.39801776136E+03  0.17963331044E+03 0.  0.
         24    2    5    5    0    0 -0.27615827974E+02  0.50795503126E+02 -0.26823513333E+02  0.10225229348E+03  0.79957573505E+02 0.  0.
          5    1    5    5  501    0 -0.12878551566E+03  0.15758116881E+03 -0.21456371591E+03  0.29576546789E+03  0.47000000000E+01 0. -1.
        -13    1    6    6    0    0  0.84540794943E+01  0.37741557457E+02 -0.45392033191E+02  0.59635000600E+02  0.00000000000E+00 0.  1.
         14    1    6    6    0    0 -0.36069907469E+02  0.13053945670E+02  0.18568519858E+02  0.42617292876E+02  0.00000000000E+00 0. -1.
         -5    1    3    3    0  503 -0.11410821832E+02 -0.47057912046E+01 -0.47136781269E+02  0.48952195805E+02  0.47000000000E+01 0.  1.
         11    1    4    4    0    0  0.14763988212E+03 -0.19473825234E+03 -0.81173803604E+02  0.25750671469E+03  0.00000000000E+00 0. -1.
        -12    1    4    4    0    0  0.20172283343E+02 -0.89326283931E+01  0.13913158369E+02  0.26082347308E+02  0.00000000000E+00 0.  1.
</event>
<event>
12    1  0.1050869E+000  0.3556146E+03  0.7818608E-02  0.1060355E+00
         21   -1    0    0  503  502  0.00000000000E+00  0.00000000000E+00  0.23613999280E+03  0.23613999280E+03  0.00000000000E+00 0.  1.
         21   -1    0    0  501  503 -0.00000000000E+00 -0.00000000000E+00 -0.16444028591E+04  0.16444028591E+04  0.00000000000E+00 0.  1.
          6    2    1    2  501    0 -0.10331838859E+03  0.29343218366E+03  0.68175603564E+02  0.36188150559E+03  0.17185219037E+03 0.  0.
         24    2    3    3    0    0 -0.42549790011E+02  0.10226923587E+03 -0.28611602022E+02  0.13911268293E+03  0.79146911164E+02 0.  0.
         -6    2    1    2    0  502  0.10331838859E+03 -0.29343218366E+03 -0.14764384699E+04  0.15186613463E+04  0.17229217525E+03 0.  0.
        -24    2    5    5    0    0  0.11735887598E+03 -0.29187719411E+03 -0.12400580963E+04  0.12818126091E+04  0.79586937424E+02 0.  0.
          5    1    3    3  501    0 -0.60768598578E+02  0.19116294779E+03  0.96787205586E+02  0.22276882265E+03  0.47000000000E+01 0. -1.
        -11    1    4    4    0    0  0.11265342986E+02  0.46119967950E+02 -0.37950469064E+02  0.60779910320E+02  0.00000000000E+00 0.  1.
         12    1    4    4    0    0 -0.53815132997E+02  0.56149267920E+02  0.93388670419E+01  0.78332772612E+02  0.00000000000E+00 0. -1.
         -5    1    5    5    0  502 -0.14040487395E+02 -0.15549895507E+01 -0.23638037362E+03  0.23684873719E+03  0.47000000000E+01 0.  1.
         13    1    6    6    0    0  0.57257139384E+02 -0.86255956663E+02 -0.53510393585E+03  0.54502723990E+03  0.00000000000E+00 0. -1.
        -14    1    6    6    0    0  0.60101736600E+02 -0.20562123745E+03 -0.70495416042E+03  0.73678536924E+03  0.00000000000E+00 0.  1.
</event>
<event>
12    1  0.1050869E+000  0.1834047E+03  0.7818608E-02  0.1164816E+00
         21   -1    0    0  501  502  0.00000000000E+00  0.00000000000E+00  0.85030704295E+02  0.85030704295E+02  0.00000000000E+00 0. -1.
         21   -1    0    0  502  503 -0.00000000000E+00 -0.00000000000E+00 -0.39356034085E+03  0.39356034085E+03  0.00000000000E+00 0. -1.
         -6    2    1    2    0  503  0.60073887331E+02 -0.15204277606E+02 -0.14707954872E+03  0.23509502497E+03  0.17261875656E+03 0.  0.
        -24    2    3    3    0    0 -0.98848502325E+01 -0.32138652769E+02 -0.20525890008E+02  0.89427881942E+02  0.80283439401E+02 0.  0.
          6    2    1    2  501    0 -0.60073887331E+02  0.15204277606E+02 -0.16145008784E+03  0.24349602018E+03  0.17141802409E+03 0.  0.
         24    2    5    5    0    0  0.46731374902E+01 -0.30380711122E+02 -0.13480229273E+03  0.15981589467E+03  0.80153828620E+02 0.  0.
          5    1    5    5  501    0 -0.64747024821E+02  0.45584988728E+02 -0.26647795105E+02  0.83680125504E+02  0.47000000000E+01 0. -1.
        -11    1    6    6    0    0 -0.35894544682E+02 -0.25373776353E+02 -0.57562149990E+02  0.72426845684E+02  0.00000000000E+00 0.  1.
         12    1    6    6    0    0  0.40567682172E+02 -0.50069347692E+01 -0.77240142742E+02  0.87389048990E+02  0.00000000000E+00 0. -1.
         -5    1    3    3    0  503  0.69958737563E+02  0.16934375163E+02 -0.12655365871E+03  0.14566714302E+03  0.47000000000E+01 0.  1.
         13    1    4    4    0    0 -0.14497454251E+02  0.18953562191E+02 -0.28868418541E+02  0.37453962254E+02  0.00000000000E+00 0. -1.
        -14    1    4    4    0    0  0.46126040186E+01 -0.51092214960E+02  0.83425285333E+01  0.51973919688E+02  0.00000000000E+00 0.  1.
</event>
<event>
12    1  0.1050869E+000  0.1784815E+03  0.7818608E-02  0.1169431E+00
         21   -1    0    0  503  502  0.00000000000E+00  0.00000000000E+00  0.45080579464E+03  0.45080579464E+03  0.00000000000E+00 0.  1.
         21   -1    0    0  501  503 -0.00000000000E+00 -0.00000000000E+00 -0.72426949747E+02  0.72426949747E+02  0.00000000000E+00 0.  1.
          6    2    1    2  501    0  0.12665192000E+02 -0.35394468014E+02  0.23240138625E+03  0.29265722208E+03  0.17385243699E+03 0.  0.
         24    2    3    3    0    0  0.67966735357E+02 -0.40511747946E+02  0.10522573135E+03  0.15380411822E+03  0.79514611276E+02 0.  0.
         -6    2    1    2    0  502 -0.12665192000E+02  0.35394468014E+02  0.14597745864E+03  0.23057552231E+03  0.17447772810E+03 0.  0.
        -24    2    5    5    0    0 -0.43506572356E+02 -0.24014564269E+02  0.33614657249E+02  0.99701105422E+02  0.79629417335E+02 0.  0.
          5    1    3    3  501    0 -0.55301543357E+02  0.51172799315E+01  0.12717565490E+03  0.13885310385E+03  0.47000000000E+01 0. -1.
        -13    1    4    4    0    0  0.43746470798E+01  0.21641570859E+02  0.30504357089E+02  0.37656485866E+02  0.00000000000E+00 0.  1.
         14    1    4    4    0    0  0.63592088277E+02 -0.62153318805E+02  0.74721374265E+02  0.11614763236E+03  0.00000000000E+00 0. -1.
         -5    1    5    5    0  502  0.30841380356E+02  0.59409032284E+02  0.11236280139E+03  0.13087441689E+03  0.47000000000E+01 0.  1.
         11    1    6    6    0    0 -0.50037718686E+02 -0.19193893499E+02  0.55020496656E+02  0.76807772336E+02  0.00000000000E+00 0. -1.
        -12    1    6    6    0    0  0.65311463298E+01 -0.48206707701E+01 -0.21405839407E+02  0.22893333086E+02  0.00000000000E+00 0.  1.
</event>
<event>
12    1  0.1050869E+000  0.2145215E+03  0.7818608E-02  0.1141253E+00
         21   -1    0    0  501  502  0.00000000000E+00  0.00000000000E+00  0.14205397039E+03  0.14205397039E+03  0.00000000000E+00 0.  1.
         21   -1    0    0  502  503 -0.00000000000E+00 -0.00000000000E+00 -0.32086526667E+03  0.32086526667E+03  0.00000000000E+00 0.  1.
         -6    2    1    2    0  503 -0.54096657348E+01  0.10723248171E+03 -0.33951720548E+02  0.21719160154E+03  0.18571861198E+03 0.  0.
        -24    2    3    3    0    0 -0.31468569137E+02  0.17525972622E+02 -0.73374519773E+02  0.11569001871E+03  0.81871421853E+02 0.  0.
          6    2    1    2  501    0  0.54096657348E+01 -0.10723248171E+03 -0.14485957574E+03  0.24572763551E+03  0.16694221921E+03 0.  0.
         24    2    5    5    0    0  0.25598017626E+02 -0.10343687368E+03 -0.39248420570E+02  0.13803463533E+03  0.78477236768E+02 0.  0.
          5    1    5    5  501    0 -0.20188351891E+02 -0.37956080358E+01 -0.10561115517E+03  0.10769300018E+03  0.47000000000E+01 0. -1.
        -11    1    6    6    0    0  0.26320028904E+02  0.22345810951E+01 -0.11278556843E+02  0.28721823038E+02  0.00000000000E+00 0.  1.
         12    1    6    6    0    0 -0.72201127878E+00 -0.10567145477E+03 -0.27969863728E+02  0.10931281229E+03  0.00000000000E+00 0. -1.
         -5    1    3    3    0  503  0.26058903402E+02  0.89706509092E+02  0.39422799225E+02  0.10150158284E+03  0.47000000000E+01 0.  1.
         11    1    4    4    0    0 -0.16107587997E+02  0.41200860792E+02 -0.86430942866E+01  0.45074032435E+02  0.00000000000E+00 0. -1.
        -12    1    4    4    0    0 -0.15360981140E+02 -0.23674888170E+02 -0.64731425486E+02  0.70615986270E+02  0.00000000000E+00 0.  1.
</event>
<event>
12    1  0.1050869E+000  0.2269677E+03  0.7818608E-02  0.1128937E+00
         21   -1    0    0  501  502  0.00000000000E+00  0.00000000000E+00  0.96810050659E+02  0.96810050659E+02  0.00000000000E+00 0. -1.
         21   -1    0    0  502  503 -0.00000000000E+00 -0.00000000000E+00 -0.53029594768E+03  0.53029594768E+03  0.00000000000E+00 0. -1.
         -6    2    1    2    0  503  0.82532754276E+02  0.12299945334E+03 -0.21364768148E+03  0.31170446346E+03  0.17197040352E+03 0.  0.
        -24    2    3    3    0    0  0.18486489165E+02  0.11628143162E+03 -0.81158154852E+02  0.16431850566E+03  0.80937034677E+02 0.  0.
          6    2    1    2  501    0 -0.82532754276E+02 -0.12299945334E+03 -0.21983821554E+03  0.31540153488E+03  0.17090572297E+03 0.  0.
         24    2    5    5    0    0 -0.94178349246E+02 -0.13377150515E+03 -0.23232632918E+03  0.29467232928E+03  0.78050505168E+02 0.  0.
          5    1    5    5  501    0  0.11645594970E+02  0.10772051809E+02  0.12488113642E+02  0.20729205598E+02  0.47000000000E+01 0. -1.
        -13    1    6    6    0    0 -0.25825819035E+02 -0.92800056290E+02 -0.91477768233E+02  0.13284203197E+03  0.00000000000E+00 0.  1.
         14    1    6    6    0    0 -0.68352530211E+02 -0.40971448861E+02 -0.14084856095E+03  0.16183029732E+03  0.00000000000E+00 0. -1.
         -5    1    3    3    0  503  0.64046265111E+02  0.67180217256E+01 -0.13248952663E+03  0.14738595780E+03  0.47000000000E+01 0.  1.
         11    1    4    4    0    0  0.43596865042E+02  0.98694334620E+02 -0.44972030584E+02  0.11689200940E+03  0.00000000000E+00 0. -1.
        -12    1    4    4    0    0 -0.25110375876E+02  0.17587096995E+02 -0.36186124268E+02  0.47426496254E+02  0.00000000000E+00 0.  1.
</event>
<event>
12    1  0.1050869E+000  0.2712287E+03  0.7818608E-02  0.1100801E+00
         21   -1    0    0  503  502  0.00000000000E+00  0.00000000000E+00  0.31296996730E+04  0.31296996730E+04  0.00000000000E+00 0. -1.
         21   -1    0    0  501  503 -0.00000000000E+00 -0.00000000000E+00 -0.23836999096E+02  0.23836999096E+02  0.00000000000E+00 0. -1.
          6    2    1    2  501    0  0.20059588462E+03 -0.49756274674E+02  0.13367656483E+04  0.13640041784E+04  0.17564340143E+03 0.  0.
         24    2    3    3    0    0  0.14611336302E+03 -0.81368144042E+01  0.11922618201E+04  0.12039917696E+04  0.81808378673E+02 0.  0.
         -6    2    1    2    0  502 -0.20059588462E+03  0.49756274674E+02  0.17690970256E+04  0.17895324937E+04  0.17322778108E+03 0.  0.
        -24    2    5    5    0    0 -0.16558597749E+03  0.76111340499E+02  0.10265424125E+04  0.10456711312E+04  0.80169432761E+02 0.  0.
          5    1    3    3  501    0  0.54482521599E+02 -0.41619460270E+02  0.14450382817E+03  0.16001240886E+03  0.47000000000E+01 0. -1.
        -13    1    4    4    0    0  0.88266309330E+02  0.62472856069E+01  0.40887836783E+03  0.41834374577E+03  0.00000000000E+00 0.  1.
         14    1    4    4    0    0  0.57847053688E+02 -0.14384100011E+02  0.78338345231E+03  0.78564802380E+03  0.00000000000E+00 0. -1.
         -5    1    5    5    0  502 -0.35009907129E+02 -0.26355065825E+02  0.74255461310E+03  0.74386136244E+03  0.47000000000E+01 0.  1.
         11    1    6    6    0    0 -0.94027331220E+02  0.85262101401E+02  0.64646982620E+03  0.65881256905E+03  0.00000000000E+00 0. -1.
        -12    1    6    6    0    0 -0.71558646268E+02 -0.91507609026E+01  0.38007258628E+03  0.38685856217E+03  0.00000000000E+00 0.  1.
</event>
<event>
12    1  0.1050869E+000  0.2484001E+03  0.7818608E-02  0.1114815E+00
         21   -1    0    0  503  502  0.00000000000E+00  0.00000000000E+00  0.99115229392E+02  0.99115229392E+02  0.00000000000E+00 0. -1.
         21   -1    0    0  501  503 -0.00000000000E+00 -0.00000000000E+00 -0.61732401490E+03  0.61732401490E+03  0.00000000000E+00 0. -1.
          6    2    1    2  501    0 -0.54255760024E+02  0.16667508939E+03 -0.23470507770E+03  0.33950828493E+03  0.17162496648E+03 0.  0.
         24    2    3    3    0    0 -0.22840080080E+02  0.16039716404E+03 -0.11074201196E+03  0.21138612072E+03  0.78558127094E+02 0.  0.
         -6    2    1    2    0  502  0.54255760024E+02 -0.16667508939E+03 -0.28350370781E+03  0.37693095936E+03  0.17600659892E+03 0.  0.
        -24    2    5    5    0    0  0.39148138820E+02 -0.12779315760E+03 -0.29484938864E+03  0.33344694722E+03  0.79918938491E+02 0.  0.
          5    1    3    3  501    0 -0.31415679944E+02  0.62779253560E+01 -0.12396306574E+03  0.12812216421E+03  0.47000000000E+01 0. -1.
        -11    1    4    4    0    0  0.86576878513E+01  0.50407056875E+02  0.14225769459E+01  0.51164935912E+02  0.00000000000E+00 0.  1.
         12    1    4    4    0    0 -0.31497767932E+02  0.10999010716E+03 -0.11216458890E+03  0.16022118481E+03  0.00000000000E+00 0. -1.
         -5    1    5    5    0  502  0.15107621204E+02 -0.38881931791E+02  0.11345680828E+02  0.43484012138E+02  0.47000000000E+01 0.  1.
         13    1    6    6    0    0  0.14275489280E+02 -0.11312698787E+03 -0.16591490403E+03  0.20131880279E+03  0.00000000000E+00 0. -1.
        -14    1    6    6    0    0  0.24872649540E+02 -0.14666169735E+02 -0.12893448461E+03  0.13212814443E+03  0.00000000000E+00 0.  1.
</event>
<event>
12    1  0.1050869E+000  0.2897068E+03  0.7818608E-02  0.1090528E+00
         21   -1    0    0  501  502  0.00000000000E+00  0.00000000000E+00  0.23910477919E+03  0.23910477919E+03  0.00000000000E+00 0. -1.
         21   -1    0    0  502  503 -0.00000000000E+00 -0.00000000000E+00 -0.35835124126E+03  0.35835124126E+03  0.00000000000E+00 0. -1.
         -6    2    1    2    0  503 -0.12650688433E+03  0.19578060624E+03 -0.10303108127E+03  0.30729572532E+03  0.17170096544E+03 0.  0.
        -24    2    3    3    0    0 -0.14642268177E+03  0.14764884817E+03 -0.11983356224E+03  0.25236196076E+03  0.78017257661E+02 0.  0.
          6    2    1    2  501    0  0.12650688433E+03 -0.19578060624E+03 -0.16215380796E+02  0.29016029513E+03  0.17203494045E+03 0.  0.
         24    2    5    5    0    0  0.10074123269E+03 -0.12522160975E+03  0.53467239379E+02  0.18759227700E+03  0.80640369484E+02 0.  0.
          5    1    5    5  501    0  0.25765651639E+02 -0.70558996484E+02 -0.69682620175E+02  0.10256801813E+03  0.47000000000E+01 0. -1.
        -13    1    6    6    0    0  0.10176615364E+02 -0.50907345868E+02 -0.12147734087E+02  0.53316871692E+02  0.00000000000E+00 0.  1.
         14    1    6    6    0    0  0.90564617322E+02 -0.74314263887E+02  0.65614973465E+02  0.13427540531E+03  0.00000000000E+00 0. -1.
         -5    1    3    3    0  503  0.19915797449E+02  0.48131758067E+02  0.16802480970E+02  0.54933764566E+02  0.47000000000E+01 0.  1.
         13    1    4    4    0    0 -0.66351155627E+01  0.31939420532E+02 -0.46135099652E+02  0.56503086308E+02  0.00000000000E+00 0. -1.
        -14    1    4    4    0    0 -0.13978756621E+03  0.11570942764E+03 -0.73698462587E+02  0.19585887445E+03  0.00000000000E+00 0.  1.
</event>
<event>
12    1  0.1050869E+000  0.2420289E+03  0.7818608E-02  0.1118580E+00
         21   -1    0    0  503  502  0.00000000000E+00  0.00000000000E+00  0.46985473797E+03  0.46985473797E+03  0.00000000000E+00 0. -1.
         21   -1    0    0  501  503 -0.00000000000E+00 -0.00000000000E+00 -0.19173117056E+03  0.19173117056E+03  0.00000000000E+00 0. -1.
          6    2    1    2  501    0  0.80021535732E+02  0.14924671830E+03  0.33543838005E+03  0.41363859350E+03  0.17291602042E+03 0.  0.
         24    2    3    3    0    0  0.11386074781E+03  0.12974742645E+03  0.31785230994E+03  0.37054944731E+03  0.80486877264E+02 0.  0.
         -6    2    1    2    0  502 -0.80021535732E+02 -0.14924671830E+03 -0.57314812628E+02  0.24794731503E+03  0.17179887712E+03 0.  0.
        -24    2    5    5    0    0 -0.32375675982E+02 -0.15477576688E+03 -0.64913616134E+02  0.19915663821E+03  0.10220502227E+03 0.  0.
          5    1    3    3  501    0 -0.33839212079E+02  0.19499291852E+02  0.17586070111E+02  0.43089146184E+02  0.47000000000E+01 0. -1.
        -11    1    4    4    0    0  0.74797990988E+02  0.12079751091E+03  0.19461605249E+03  0.24096096361E+03  0.00000000000E+00 0.  1.
         12    1    4    4    0    0  0.39062756824E+02  0.89499155352E+01  0.12323625745E+03  0.12958848370E+03  0.00000000000E+00 0. -1.
         -5    1    5    5    0  502 -0.47645859750E+02  0.55290485743E+01  0.75988035053E+01  0.48790676816E+02  0.47000000000E+01 0.  1.
         13    1    6    6    0    0 -0.37064635200E+02 -0.73772794769E+01  0.57630486750E+00  0.37796078663E+02  0.00000000000E+00 0. -1.
        -14    1    6    6    0    0  0.46889592181E+01 -0.14739848740E+03 -0.65489921001E+02  0.16136055955E+03  0.00000000000E+00 0.  1.
</event>
<event>
12    1  0.1050869E+000  0.2891037E+03  0.7818608E-02  0.1090877E+00
         21   -1    0    0  501  502  0.00000000000E+00  0.00000000000E+00  0.29188548191E+03  0.29188548191E+03  0.00000000000E+00 0. -1.
         21   -1    0    0  502  503 -0.00000000000E+00 -0.00000000000E+00 -0.31254025911E+03  0.31254025911E+03  0.00000000000E+00 0. -1.
         -6    2    1    2    0  503 -0.20186893852E+03  0.11328158822E+03  0.77887500257E+02  0.29941181272E+03  0.17319695243E+03 0.  0.
        -24    2    3    3    0    0 -0.11940255530E+03  0.74263858249E+02 -0.24195573697E+02  0.16242228173E+03  0.77611087879E+02 0.  0.
          6    2    1    2  501    0  0.20186893852E+03 -0.11328158822E+03 -0.98542277463E+02  0.30501392830E+03  0.17245036806E+03 0.  0.
         24    2    5    5    0    0  0.30238083399E+02 -0.60132114299E+02 -0.11188147094E+02  0.10517686693E+03  0.80042400285E+02 0.  0.
          5    1    5    5  501    0  0.17163085512E+03 -0.53149473919E+02 -0.87354130369E+02  0.19983706138E+03  0.47000000000E+01 0. -1.
        -11    1    6    6    0    0  0.38208085256E+02 -0.53773087827E+02 -0.38253714181E+02  0.76254504143E+02  0.00000000000E+00 0.  1.
         12    1    6    6    0    0 -0.79700018565E+01 -0.63590264716E+01  0.27065567087E+02  0.28922362784E+02  0.00000000000E+00 0. -1.
         -5    1    3    3    0  503 -0.82466383220E+02  0.39017729968E+02  0.10208307395E+03  0.13698953099E+03  0.47000000000E+01 0.  1.
         11    1    4    4    0    0 -0.28445046349E+02 -0.15303046770E+02 -0.10844909480E+02  0.34072216891E+02  0.00000000000E+00 0. -1.
        -12    1    4    4    0    0 -0.90957508950E+02  0.89566905019E+02 -0.13350664217E+02  0.12835006484E+03  0.00000000000E+00 0.  1.
</event>
<event>
12    1  0.1050869E+000  0.2297286E+03  0.7818608E-02  0.1127112E+00
         21   -1    0    0  501  502  0.00000000000E+00  0.00000000000E+00  0.35048763000E+03  0.35048763000E+03  0.00000000000E+00 0.  1.
         21   -1    0    0  502  503 -0.00000000000E+00 -0.00000000000E+00 -0.17289589958E+03  0.17289589958E+03  0.00000000000E+00 0.  1.
         -6    2    1    2    0  503 -0.38828672745E+02 -0.14510497633E+03 -0.71273383190E+01  0.22983916910E+03  0.17381635343E+03 0.  0.
        -24    2    3    3    0    0 -0.17686822691E+02 -0.32286730087E+02 -0.60253975454E+02  0.10327114754E+03  0.75360014069E+02 0.  0.
          6    2    1    2  501    0  0.38828672745E+02  0.14510497633E+03  0.18471906874E+03  0.29354436048E+03  0.17170916467E+03 0.  0.
         24    2    5    5    0    0 -0.24865868686E+02  0.12461976274E+03  0.80795447819E+02  0.16985585022E+03  0.78579315187E+02 0.  0.
          5    1    5    5  501    0  0.63694541432E+02  0.20485213583E+02  0.10392362092E+03  0.12368851025E+03  0.47000000000E+01 0. -1.
        -13    1    6    6    0    0 -0.28578006284E+02  0.90002972286E+02  0.93410041847E+02  0.13282572560E+03  0.00000000000E+00 0.  1.
         14    1    6    6    0    0  0.37121375981E+01  0.34616790457E+02 -0.12614594028E+02  0.37030124623E+02  0.00000000000E+00 0. -1.
         -5    1    3    3    0  503 -0.21141850054E+02 -0.11281824624E+03  0.53126637135E+02  0.12656802156E+03  0.47000000000E+01 0.  1.
         13    1    4    4    0    0 -0.18524025336E+01 -0.53238751529E+02 -0.23808949831E+02  0.58349482873E+02  0.00000000000E+00 0. -1.
        -14    1    4    4    0    0 -0.15834420157E+02  0.20952021441E+02 -0.36445025623E+02  0.44921664672E+02  0.00000000000E+00 0.  1.
</event>
<event>
12    1  0.1050869E+000  0.3633172E+03  0.7818608E-02  0.1057317E+00
         21   -1    0    0  501  502  0.00000000000E+00  0.00000000000E+00  0.34505687217E+03  0.34505687217E+03  0.00000000000E+00 0. -1.
         21   -1    0    0  502  503 -0.00000000000E+00 -0.00000000000E+00 -0.42744723472E+03  0.42744723472E+03  0.00000000000E+00 0.  1.
         -6    2    1    2    0  503  0.10788867093E+03  0.30192507418E+03 -0.16699375319E+03  0.39985781093E+03  0.17088194644E+03 0.  0.
        -24    2    3    3    0    0 -0.10207658421E+01  0.13901566305E+03 -0.36419456592E+02  0.16433184933E+03  0.79700585628E+02 0.  0.
          6    2    1    2  501    0 -0.10788867093E+03 -0.30192507418E+03  0.84603390638E+02  0.37264629597E+03  0.17002591702E+03 0.  0.
         24    2    5    5    0    0 -0.62629898774E+02 -0.64739216425E+02  0.14054128080E+02  0.12104189215E+03  0.79623807837E+02 0.  0.
          5    1    5    5  501    0 -0.45258772158E+02 -0.23718585776E+03  0.70549262557E+02  0.25160440383E+03  0.47000000000E+01 0. -1.
        -13    1    6    6    0    0 -0.18824621575E+01 -0.52366567785E+02 -0.12062263469E+02  0.53770803279E+02  0.00000000000E+00 0.  1.
         14    1    6    6    0    0 -0.60747436616E+02 -0.12372648641E+02  0.26116391549E+02  0.67271088867E+02  0.00000000000E+00 0. -1.
         -5    1    3    3    0  503  0.10890943677E+03  0.16290941114E+03 -0.13057429660E+03  0.23552596160E+03  0.47000000000E+01 0.  1.
         13    1    4    4    0    0  0.47986377231E+01 -0.55008468916E+01  0.10045621774E+02  0.12417759756E+02  0.00000000000E+00 0. -1.
        -14    1    4    4    0    0 -0.58194035651E+01  0.14451650994E+03 -0.46465078366E+02  0.15191408957E+03  0.00000000000E+00 0.  1.
</event>
<event>
12    1  0.1050869E+000  0.2657651E+03  0.7818608E-02  0.1103945E+00
         21   -1    0    0  501  502  0.00000000000E+00  0.00000000000E+00  0.13516668792E+03  0.13516668792E+03  0.00000000000E+00 0. -1.
         21   -1    0    0  502  503 -0.00000000000E+00 -0.00000000000E+00 -0.12063266538E+04  0.12063266538E+04  0.00000000000E+00 0. -1.
         -6    2    1    2    0  503 -0.12285601289E+03  0.15919045753E+03 -0.10422881983E+04  0.10756373850E+04  0.17376965759E+03 0.  0.
        -24    2    3    3    0    0 -0.72438695294E+02  0.15147388821E+03 -0.53962070145E+03  0.57036700807E+03  0.77047511818E+02 0.  0.
          6    2    1    2  501    0  0.12285601289E+03 -0.15919045753E+03 -0.28871767592E+02  0.26585595679E+03  0.17149521604E+03 0.  0.
         24    2    5    5    0    0  0.11469367428E+03 -0.17555522879E+03  0.75037543266E+01  0.22487183663E+03  0.80850227624E+02 0.  0.
          5    1    5    5  501    0  0.81623386156E+01  0.16364771259E+02 -0.36375521919E+02  0.40984120155E+02  0.47000000000E+01 0. -1.
        -13    1    6    6    0    0  0.72802779861E+02 -0.80518627006E+02 -0.32903228704E+02  0.11342890509E+03  0.00000000000E+00 0.  1.
         14    1    6    6    0    0  0.41890894418E+02 -0.95036601785E+02  0.40406983030E+02  0.11144293155E+03  0.00000000000E+00 0. -1.
         -5    1    3    3    0  503 -0.50417317600E+02  0.77165693268E+01 -0.50266749689E+03  0.50527037691E+03  0.47000000000E+01 0.  1.
         11    1    4    4    0    0 -0.53566275399E+02  0.62172168045E+02 -0.15869089948E+03  0.17865476741E+03  0.00000000000E+00 0. -1.
        -12    1    4    4    0    0 -0.18872419895E+02  0.89301720160E+02 -0.38092980197E+03  0.39171224066E+03  0.00000000000E+00 0.  1.
</event>
<event>
12    1  0.1050869E+000  0.2150426E+03  0.7818608E-02  0.1138404E+00
         21   -1    0    0  503  502  0.00000000000E+00  0.00000000000E+00  0.56859040844E+02  0.56859040844E+02  0.00000000000E+00 0.  1.
         21   -1    0    0  501  503 -0.00000000000E+00 -0.00000000000E+00 -0.10143856637E+04  0.10143856637E+04  0.00000000000E+00 0.  1.
          6    2    1    2  501    0 -0.12072309809E+03 -0.42864466853E+02 -0.72945314267E+03  0.76049010989E+03  0.17271910997E+03 0.  0.
         24    2    3    3    0    0 -0.25304173136E+02 -0.52117618132E+02 -0.21393763115E+03  0.23611550651E+03  0.81392107071E+02 0.  0.
         -6    2    1    2    0  502  0.12072309809E+03  0.42864466853E+02 -0.22807348015E+03  0.31075459462E+03  0.16774825424E+03 0.  0.
        -24    2    5    5    0    0  0.14578507957E+03  0.53903084758E+02 -0.22335058568E+03  0.28257038392E+03  0.76168929181E+02 0.  0.
          5    1    3    3  501    0 -0.95418924951E+02  0.92531512791E+01 -0.51551551153E+03  0.52437460338E+03  0.47000000000E+01 0. -1.
        -13    1    4    4    0    0  0.21567710314E+02 -0.23457455306E+02 -0.14236630457E+03  0.14588894069E+03  0.00000000000E+00 0.  1.
         14    1    4    4    0    0 -0.46871883450E+02 -0.28660162826E+02 -0.71571326576E+02  0.90226565818E+02  0.00000000000E+00 0. -1.
         -5    1    5    5    0  502 -0.25061981482E+02 -0.11038617905E+02 -0.47228944716E+01  0.28184210708E+02  0.47000000000E+01 0.  1.
         13    1    6    6    0    0  0.11316835696E+03  0.58594123762E+02 -0.21267214881E+03  0.24793102113E+03  0.00000000000E+00 0. -1.
        -14    1    6    6    0    0  0.32616722608E+02 -0.46910390048E+01 -0.10678436868E+02  0.34639362791E+02  0.00000000000E+00 0.  1.
</event>
<event>
12    1  0.1050869E+000  0.2497176E+03  0.7818608E-02  0.1113630E+00
         21   -1    0    0  501  502  0.00000000000E+00  0.00000000000E+00  0.21360559090E+03  0.21360559090E+03  0.00000000000E+00 0.  1.
         21   -1    0    0  502  503 -0.00000000000E+00 -0.00000000000E+00 -0.29133400246E+03  0.29133400246E+03  0.00000000000E+00 0.  1.
         -6    2    1    2    0  503  0.15715862710E+03 -0.91898341325E+02 -0.28664178114E+02  0.25135731402E+03  0.17092315523E+03 0.  0.
        -24    2    3    3    0    0  0.92967603125E+01 -0.11572437041E+02  0.18106288311E+01  0.80283685408E+02  0.78878645492E+02 0.  0.
          6    2    1    2  501    0 -0.15715862710E+03  0.91898341325E+02 -0.49064233439E+02  0.25358227934E+03  0.16956572231E+03 0.  0.
         24    2    5    5    0    0 -0.35598925592E+02 -0.60710741013E+01 -0.43407683940E+02  0.97284953892E+02  0.79221170054E+02 0.  0.
          5    1    5    5  501    0 -0.12155970151E+03  0.97969415427E+02 -0.56565494989E+01  0.15629732545E+03  0.47000000000E+01 0. -1.
        -11    1    6    6    0    0 -0.19367027443E+02 -0.20394163026E+02  0.17172604964E+02  0.32953027156E+02  0.00000000000E+00 0.  1.
         12    1    6    6    0    0 -0.16231898149E+02  0.14323088925E+02 -0.60580288904E+02  0.64331926736E+02  0.00000000000E+00 0. -1.
         -5    1    3    3    0  503  0.14786186679E+03 -0.80325904285E+02 -0.30474806945E+02  0.17107362861E+03  0.47000000000E+01 0.  1.
         13    1    4    4    0    0 -0.26502726386E+02 -0.29784501785E+02  0.39314518931E+01  0.40062043963E+02  0.00000000000E+00 0. -1.
        -14    1    4    4    0    0  0.35799486698E+02  0.18212064745E+02 -0.21208230620E+01  0.40221641446E+02  0.00000000000E+00 0.  1.
</event>
<event>
12    1  0.1050869E+000  0.5343392E+03  0.7818608E-02  0.1005230E+00
         21   -1    0    0  503  502  0.00000000000E+00  0.00000000000E+00  0.74548536036E+03  0.74548536036E+03  0.00000000000E+00 0. -1.
         21   -1    0    0  501  503 -0.00000000000E+00 -0.00000000000E+00 -0.48137282033E+03  0.48137282033E+03  0.00000000000E+00 0. -1.
          6    2    1    2  501    0 -0.67760394964E+02  0.50123000821E+03  0.41019279726E+03  0.67362938371E+03  0.17232360088E+03 0.  0.
         24    2    3    3    0    0 -0.64774240833E+02  0.14279544710E+03  0.12207342580E+03  0.21371731176E+03  0.78657015401E+02 0.  0.
         -6    2    1    2    0  502  0.67760394964E+02 -0.50123000821E+03 -0.14608025723E+03  0.55322879698E+03  0.16999902355E+03 0.  0.
        -24    2    5    5    0    0  0.50778688601E+02 -0.32698368509E+03 -0.28291513426E+02  0.34216852683E+03  0.82353418204E+02 0.  0.
          5    1    3    3  501    0 -0.29861541307E+01  0.35843456110E+03  0.28811937147E+03  0.45991207195E+03  0.47000000000E+01 0. -1.
        -13    1    4    4    0    0  0.74741878547E+01  0.71384964578E+02  0.66892195321E+02  0.98113416242E+02  0.00000000000E+00 0.  1.
         14    1    4    4    0    0 -0.72248428688E+02  0.71410482523E+02  0.55181230475E+02  0.11560389552E+03  0.00000000000E+00 0. -1.
         -5    1    5    5    0  502  0.16981706363E+02 -0.17424632312E+03 -0.11778874380E+03  0.21106027016E+03  0.47000000000E+01 0.  1.
         11    1    6    6    0    0  0.40134870663E+02 -0.10319792391E+03  0.21174008050E+02  0.11273401421E+03  0.00000000000E+00 0. -1.
        -12    1    6    6    0    0  0.10643817938E+02 -0.22378576118E+03 -0.49465521476E+02  0.22943451262E+03  0.00000000000E+00 0.  1.
</event>
<event>
12    1  0.1050869E+000  0.1839530E+03  0.7818608E-02  0.1165123E+00
         21   -1    0    0  503  502  0.00000000000E+00  0.00000000000E+00  0.84519479762E+03  0.84519479762E+03  0.00000000000E+00 0.  1.
         21   -1    0    0  501  503 -0.00000000000E+00 -0.00000000000E+00 -0.11006725569E+03  0.11006725569E+03  0.00000000000E+00 0.  1.
          6    2    1    2  501    0 -0.52072257847E+02  0.12096995899E+02  0.75286716782E+03  0.77501462142E+03  0.17601373151E+03 0.  0.
         24    2    3    3    0    0  0.25887974242E+02  0.30116422591E+01  0.57143489330E+03  0.57727716499E+03  0.77664861640E+02 0.  0.
         -6    2    1    2    0  502  0.52072257847E+02 -0.12096995899E+02 -0.17739625889E+02  0.18024743190E+03  0.17122086623E+03 0.  0.
        -24    2    5    5    0    0  0.64890918500E+02 -0.33679019900E+02 -0.65566539523E+02  0.12602930311E+03  0.78989280622E+02 0.  0.
          5    1    3    3  501    0 -0.77960232089E+02  0.90853536395E+01  0.18143227452E+03  0.19773745643E+03  0.47000000000E+01 0. -1.
        -11    1    4    4    0    0  0.44914132724E+02 -0.53900629934E+01  0.19138017575E+03  0.19665376622E+03  0.00000000000E+00 0.  1.
         12    1    4    4    0    0 -0.19026158482E+02  0.84017052526E+01  0.38005471755E+03  0.38062339877E+03  0.00000000000E+00 0. -1.
         -5    1    5    5    0  502 -0.12818660653E+02  0.21582024001E+02  0.47826913634E+02  0.54218128782E+02  0.47000000000E+01 0.  1.
         13    1    6    6    0    0  0.76433245398E+02 -0.51188402368E+01 -0.43043332599E+02  0.87869061727E+02  0.00000000000E+00 0. -1.
        -14    1    6    6    0    0 -0.11542326898E+02 -0.28560179663E+02 -0.22523206923E+02  0.38160241387E+02  0.00000000000E+00 0.  1.
</event>
<event>
12    1  0.1050869E+000  0.2542771E+03  0.7818608E-02  0.1111298E+00
         21   -1    0    0  503  502  0.00000000000E+00  0.00000000000E+00  0.90440442609E+03  0.90440442609E+03  0.00000000000E+00 0.  1.
         21   -1    0    0  501  503 -0.00000000000E+00 -0.00000000000E+00 -0.72840890159E+02  0.72840890159E+02  0.00000000000E+00 0.  1.
          6    2    1    2  501    0 -0.18244709387E+02 -0.18135453562E+03  0.50374269298E+03  0.56236779350E+03  0.17110960648E+03 0.  0.
         24    2    3    3    0    0  0.88924734153E+01 -0.58630151927E+02  0.11236978886E+03  0.15128076973E+03  0.82111698566E+02 0.  0.
         -6    2    1    2    0  502  0.18244709387E+02  0.18135453562E+03  0.32782084296E+03  0.41487752275E+03  0.17729781949E+03 0.  0.
        -24    2    5    5    0    0  0.73743095716E+02  0.72384146807E+02  0.16718705487E+03  0.21293713452E+03  0.81934138591E+02 0.  0.
          5    1    3    3  501    0 -0.27137182803E+02 -0.12272438369E+03  0.39137290411E+03  0.41108702378E+03  0.47000000000E+01 0. -1.
        -13    1    4    4    0    0 -0.28847354089E+02 -0.22111098041E+02  0.12483798112E+02  0.38430661064E+02  0.00000000000E+00 0.  1.
         14    1    4    4    0    0  0.37739827504E+02 -0.36519053886E+02  0.99885990751E+02  0.11285010866E+03  0.00000000000E+00 0. -1.
         -5    1    5    5    0  502 -0.55498386329E+02  0.10897038881E+03  0.16063378809E+03  0.20194038823E+03  0.47000000000E+01 0.  1.
         11    1    6    6    0    0  0.33036381573E+02  0.28220776434E+02  0.98861206791E+01  0.44559512026E+02  0.00000000000E+00 0. -1.
        -12    1    6    6    0    0  0.40706714143E+02  0.44163370373E+02  0.15730093419E+03  0.16837762250E+03  0.00000000000E+00 0.  1.
</event>
<event>
12    1  0.1050869E+000  0.2521284E+03  0.7818608E-02  0.1112032E+00
         21   -1    0    0  501  502  0.00000000000E+00  0.00000000000E+00  0.38129031201E+03  0.38129031201E+03  0.00000000000E+00 0.  1.
         21   -1    0    0  502  503 -0.00000000000E+00 -0.00000000000E+00 -0.17469822776E+03  0.17469822776E+03  0.00000000000E+00 0.  1.
         -6    2    1    2    0  503  0.14259406532E+02  0.18253541241E+03  0.16379754565E+03  0.30066324306E+03  0.17333851941E+03 0.  0.
        -24    2    3    3    0    0  0.16722563556E+02  0.26715817335E+02  0.10264103917E+03  0.13318780714E+03  0.78806281613E+02 0.  0.
          6    2    1    2  501    0 -0.14259406532E+02 -0.18253541241E+03  0.42794538598E+02  0.25532529672E+03  0.17273426745E+03 0.  0.
         24    2    5    5    0    0 -0.60579838875E+02 -0.14067310706E+03  0.71582083466E+02  0.18641341239E+03  0.78531049391E+02 0.  0.
          5    1    5    5  501    0  0.46320432342E+02 -0.41862305349E+02 -0.28787544867E+02  0.68911884323E+02  0.47000000000E+01 0. -1.
        -11    1    6    6    0    0  0.18498214525E+02 -0.23740588015E+02  0.56864706549E+01  0.30628996203E+02  0.00000000000E+00 0.  1.
         12    1    6    6    0    0 -0.79078053400E+02 -0.11693251904E+03  0.65895612811E+02  0.15578441619E+03  0.00000000000E+00 0. -1.
         -5    1    3    3    0  503 -0.24631570237E+01  0.15581959507E+03  0.61156506478E+02  0.16747543592E+03  0.47000000000E+01 0.  1.
         11    1    4    4    0    0  0.42614169185E+02  0.23263352928E+01  0.80990327163E+02  0.91546776814E+02  0.00000000000E+00 0. -1.
        -12    1    4    4    0    0 -0.25891605629E+02  0.24389482042E+02  0.21650712008E+02  0.41641030328E+02  0.00000000000E+00 0.  1.
</event>
<event>
12    1  0.1050869E+000  0.1804596E+03  0.7818608E-02  0.1167508E+00
         21   -1    0    0  503  502  0.00000000000E+00  0.00000000000E+00  0.96669512474E+03  0.96669512474E+03  0.00000000000E+00 0. -1.
         21   -1    0    0  501  503 -0.00000000000E+00 -0.00000000000E+00 -0.34612780688E+02  0.34612780688E+02  0.00000000000E+00 0. -1.
          6    2    1    2  501    0  0.21465774500E+02 -0.48937664002E+02  0.55207160186E+03  0.58062533371E+03  0.17171793771E+03 0.  0.
         24    2    3    3    0    0 -0.16499286691E+01  0.34161690013E+02  0.19068894209E+03  0.20906194053E+03  0.78580398393E+02 0.  0.
         -6    2    1    2    0  502 -0.21465774500E+02  0.48937664002E+02  0.38001074219E+03  0.42068257172E+03  0.17236585374E+03 0.  0.
        -24    2    5    5    0    0 -0.70495842437E+02  0.61550674236E+02  0.21348293125E+03  0.24656583672E+03  0.80384081785E+02 0.  0.
          5    1    3    3  501    0  0.23115703169E+02 -0.83099354015E+02  0.36138265977E+03  0.37156339318E+03  0.47000000000E+01 0. -1.
        -11    1    4    4    0    0  0.23167599385E+02  0.45400629315E+02  0.16049319981E+03  0.16839246417E+03  0.00000000000E+00 0.  1.
         12    1    4    4    0    0 -0.24817528054E+02 -0.11238939302E+02  0.30195742282E+02  0.40669476359E+02  0.00000000000E+00 0. -1.
         -5    1    5    5    0  502  0.49030067938E+02 -0.12613010235E+02  0.16652781094E+03  0.17411673500E+03  0.47000000000E+01 0.  1.
         13    1    6    6    0    0 -0.22496244522E+01  0.29501230485E+02  0.13313065004E+03  0.13637871311E+03  0.00000000000E+00 0. -1.
        -14    1    6    6    0    0 -0.68246217985E+02  0.32049443751E+02  0.80352281212E+02  0.11018712361E+03  0.00000000000E+00 0.  1.
</event>
<event>
12    1  0.1050869E+000  0.2529155E+03  0.7818608E-02  0.1111599E+00
         21   -1    0    0  503  502  0.00000000000E+00  0.00000000000E+00  0.29982974121E+04  0.29982974121E+04  0.00000000000E+00 0. -1.
         21   -1    0    0  501  503 -0.00000000000E+00 -0.00000000000E+00 -0.22747658843E+02  0.22747658843E+02  0.00000000000E+00 0. -1.
          6    2    1    2  501    0  0.93997114016E+02  0.15894437211E+03  0.11046616317E+04  0.11332447048E+04  0.17282207444E+03 0.  0.
         24    2    3    3    0    0  0.27416017206E+02  0.50054027798E+02  0.24138464736E+03  0.26057100213E+03  0.79835176922E+02 0.  0.
         -6    2    1    2    0  502 -0.93997114016E+02 -0.15894437211E+03  0.18708881216E+04  0.18878003662E+04  0.17166562954E+03 0.  0.
        -24    2    5    5    0    0 -0.64854936757E+01 -0.68348077436E+02  0.12410672541E+04  0.12454901706E+04  0.79273668442E+02 0.  0.
          5    1    3    3  501    0  0.66581096811E+02  0.10889034431E+03  0.86327698436E+03  0.87267370263E+03  0.47000000000E+01 0. -1.
        -13    1    4    4    0    0  0.52693627725E+02  0.28910463827E+02  0.19210573077E+03  0.20128846245E+03  0.00000000000E+00 0.  1.
         14    1    4    4    0    0 -0.25277610519E+02  0.21143563971E+02  0.49278916589E+02  0.59282539682E+02  0.00000000000E+00 0. -1.
         -5    1    5    5    0  502 -0.87511620340E+02 -0.90596294676E+02  0.62982086747E+03  0.64231019563E+03  0.47000000000E+01 0.  1.
         11    1    6    6    0    0 -0.22595138442E+02 -0.77684576119E+02  0.81234760669E+03  0.81636638083E+03  0.00000000000E+00 0. -1.
        -12    1    6    6    0    0  0.16109644766E+02  0.93364986834E+01  0.42871964739E+03  0.42912378974E+03  0.00000000000E+00 0.  1.
</event>
<event>
12    1  0.1050869E+000  0.1770431E+03  0.7818608E-02  0.1171339E+00
         21   -1    0    0  501  502  0.00000000000E+00  0.00000000000E+00  0.30370907849E+03  0.30370907849E+03  0.00000000000E+00 0.  1.
         21   -1    0    0  502  503 -0.00000000000E+00 -0.00000000000E+00 -0.10374315383E+03  0.10374315383E+03  0.00000000000E+00 0.  1.
         -6    2    1    2    0  503  0.13473792087E+02  0.24881296234E+02  0.12925242374E+03  0.21920414633E+03  0.17476740758E+03 0.  0.
        -24    2    3    3    0    0  0.22917706386E+02  0.59001710616E+02  0.14706158963E+03  0.17929616988E+03  0.80706767185E+02 0.  0.
          6    2    1    2  501    0 -0.13473792087E+02 -0.24881296234E+02  0.70713500928E+02  0.18824808599E+03  0.17215202784E+03 0.  0.
         24    2    5    5    0    0  0.29152586995E+01 -0.76596104440E+02  0.18033831090E+02  0.11248358250E+03  0.80323566409E+02 0.  0.
          5    1    5    5  501    0 -0.16389050787E+02  0.51714808206E+02  0.52679669838E+02  0.75764503481E+02  0.47000000000E+01 0. -1.
        -11    1    6    6    0    0 -0.70498693182E+01 -0.46401168921E+01  0.36555211167E+02  0.37516860285E+02  0.00000000000E+00 0.  1.
         12    1    6    6    0    0  0.99651280178E+01 -0.71955987548E+02 -0.18521380077E+02  0.74966722220E+02  0.00000000000E+00 0. -1.
         -5    1    3    3    0  503 -0.94439142993E+01 -0.34120414382E+02 -0.17809165888E+02  0.39907976452E+02  0.47000000000E+01 0.  1.
         13    1    4    4    0    0 -0.23148229788E+02  0.47810205456E+02  0.95316616143E+02  0.10911880498E+03  0.00000000000E+00 0. -1.
        -14    1    4    4    0    0  0.46065936174E+02  0.11191505160E+02  0.51744973483E+02  0.70177364898E+02  0.00000000000E+00 0.  1.
</event>
<event>
12    1  0.1050869E+000  0.7169094E+03  0.7818608E-02  0.9689056E-01
         21   -1    0    0  501  502  0.00000000000E+00  0.00000000000E+00  0.27398805873E+04  0.27398805873E+04  0.00000000000E+00 0.  1.
         21   -1    0    0  502  503 -0.00000000000E+00 -0.00000000000E+00 -0.19711319427E+03  0.19711319427E+03  0.00000000000E+00 0.  1.
         -6    2    1    2    0  503  0.29668587784E+03 -0.62827449570E+03  0.15982073946E+04  0.17516352214E+04  0.17665707130E+03 0.  0.
        -24    2    3    3    0    0  0.98122071252E+02 -0.24335444727E+03  0.48684741694E+03  0.55885103355E+03  0.80279153271E+02 0.  0.
          6    2    1    2  501    0 -0.29668587784E+03  0.62827449570E+03  0.94455999841E+03  0.11853585601E+04  0.17357987595E+03 0.  0.
         24    2    5    5    0    0 -0.14287626346E+03  0.19253062320E+03  0.37218697636E+03  0.44972068297E+03  0.79018224382E+02 0.  0.
          5    1    5    5  501    0 -0.15380961437E+03  0.43574387249E+03  0.57237302205E+03  0.73563787712E+03  0.47000000000E+01 0. -1.
        -11    1    6    6    0    0  0.27483466253E+01  0.31791623936E+02  0.77556517115E+02  0.83864617740E+02  0.00000000000E+00 0.  1.
         12    1    6    6    0    0 -0.14562461009E+03  0.16073899927E+03  0.29463045925E+03  0.36585606523E+03  0.00000000000E+00 0. -1.
         -5    1    3    3    0  503  0.19856380658E+03 -0.38492004843E+03  0.11113599777E+04  0.11927841879E+04  0.47000000000E+01 0.  1.
         13    1    4    4    0    0  0.11112950218E+02 -0.85415290133E+02  0.22497578747E+03  0.24090117143E+03  0.00000000000E+00 0. -1.
        -14    1    4    4    0    0  0.87009121034E+02 -0.15793915713E+03  0.26187162947E+03  0.31794986212E+03  0.00000000000E+00 0.  1.
</event>
<event>
12    1  0.1050869E+000  0.1771434E+03  0.7818608E-02  0.1170630E+00
         21   -1    0    0  503  502  0.00000000000E+00  0.00000000000E+00  0.77045036206E+02  0.77045036206E+02  0.00000000000E+00 0.  1.
         21   -1    0    0  501  503 -0.00000000000E+00 -0.00000000000E+00 -0.42796908140E+03  0.42796908140E+03  0.00000000000E+00 0.  1.
          6    2    1    2  501    0  0.42204035195E+02  0.19672631950E+02 -0.11960510539E+03  0.21374088395E+03  0.17091398773E+03 0.  0.
         24    2    3    3    0    0  0.56876955133E+02 -0.38224947470E+02 -0.10839570291E+03  0.15278873069E+03  0.83058010954E+02 0.  0.
         -6    2    1    2    0  502 -0.42204035195E+02 -0.19672631950E+02 -0.23131893981E+03  0.29127323366E+03  0.17077310004E+03 0.  0.
        -24    2    5    5    0    0  0.11065000174E+01 -0.49111418372E+02 -0.21825242788E+03  0.23709511686E+03  0.78529079980E+02 0.  0.
          5    1    3    3  501    0 -0.14672919938E+02  0.57897579421E+02 -0.11209402479E+02  0.60952153253E+02  0.47000000000E+01 0. -1.
        -11    1    4    4    0    0  0.35776150678E+02 -0.32578750196E+02 -0.67894287623E+01  0.48861071054E+02  0.00000000000E+00 0.  1.
         12    1    4    4    0    0  0.21100804455E+02 -0.56461972748E+01 -0.10160627415E+03  0.10392765964E+03  0.00000000000E+00 0. -1.
         -5    1    5    5    0  502 -0.43310535212E+02  0.29438786422E+02 -0.13066511921E+02  0.54178116801E+02  0.47000000000E+01 0.  1.
         13    1    6    6    0    0 -0.21568233631E+02 -0.26380451721E+02 -0.19370573015E+03  0.19668001126E+03  0.00000000000E+00 0. -1.
        -14    1    6    6    0    0  0.22674733649E+02 -0.22730966651E+02 -0.24546697736E+02  0.40415105600E+02  0.00000000000E+00 0.  1.
</event>
<event>
12    1  0.1050869E+000  0.2876475E+03  0.7818608E-02  0.1091595E+00
         21   -1    0    0  501  502  0.00000000000E+00  0.00000000000E+00  0.95034352062E+03  0.95034352062E+03  0.00000000000E+00 0.  1.
         21   -1    0    0  502  503 -0.00000000000E+00 -0.00000000000E+00 -0.10109765329E+03  0.10109765329E+03  0.00000000000E+00 0.  1.
         -6    2    1    2    0  503  0.22642541188E+03 -0.42934763439E+02  0.62071458717E+03  0.68412550145E+03  0.17213146704E+03 0.  0.
        -24    2    3    3    0    0  0.14526391275E+03  0.36012345106E+02  0.42863297410E+03  0.46110695745E+03  0.80590981948E+02 0.  0.
          6    2    1    2  501    0 -0.22642541188E+03  0.42934763439E+02  0.22853128015E+03  0.36731567246E+03  0.17199533764E+03 0.  0.
         24    2    5    5    0    0 -0.19508123784E+03 -0.22606488084E+02  0.14618173584E+03  0.25739911163E+03  0.79482451594E+02 0.  0.
          5    1    5    5  501    0 -0.31344174043E+02  0.65541251523E+02  0.82349544311E+02  0.10991656084E+03  0.47000000000E+01 0. -1.
        -11    1    6    6    0    0 -0.56470214289E+01 -0.11539010127E+02 -0.59785069850E+01  0.14169691298E+02  0.00000000000E+00 0.  1.
         12    1    6    6    0    0 -0.18943421641E+03 -0.11067477957E+02  0.15216024283E+03  0.24322942033E+03  0.00000000000E+00 0. -1.
         -5    1    3    3    0  503  0.81161499132E+02 -0.78947108545E+02  0.19208161307E+03  0.22301854400E+03  0.47000000000E+01 0.  1.
         11    1    4    4    0    0  0.29287158102E+02 -0.23870379319E+02  0.12558438227E+03  0.13114484248E+03  0.00000000000E+00 0. -1.
        -12    1    4    4    0    0  0.11597675465E+03  0.59882724425E+02  0.30304859183E+03  0.32996211497E+03  0.00000000000E+00 0.  1.
</event>
<event>
12    1  0.1050869E+000  0.1893927E+03  0.7818608E-02  0.1159990E+00
         21   -1    0    0  503  502  0.00000000000E+00  0.00000000000E+00  0.36329841142E+03  0.36329841142E+03  0.00000000000E+00 0. -1.
         21   -1    0    0  501  503 -0.00000000000E+00 -0.00000000000E+00 -0.10037392321E+03  0.10037392321E+03  0.00000000000E+00 0. -1.
          6    2    1    2  501    0 -0.20336879269E+02 -0.77639280409E+02  0.17545527523E+03  0.25505679327E+03  0.16681716837E+03 0.  0.
         24    2    3    3    0    0  0.29261971789E+01  0.35513863630E+01  0.14352668273E+03  0.16464318745E+03  0.80537541213E+02 0.  0.
         -6    2    1    2    0  502  0.20336879269E+02  0.77639280409E+02  0.87469212977E+02  0.20861554137E+03  0.17154630384E+03 0.  0.
        -24    2    5    5    0    0 -0.17616430468E+02  0.80779091789E+02  0.39789063329E+01  0.11672956072E+03  0.82306490379E+02 0.  0.
          5    1    3    3  501    0 -0.23263076448E+02 -0.81190666772E+02  0.31928592500E+02  0.90413605811E+02  0.47000000000E+01 0. -1.
        -13    1    4    4    0    0 -0.20518931859E+02 -0.30997432172E+02  0.50786544499E+02  0.62937591852E+02  0.00000000000E+00 0.  1.
         14    1    4    4    0    0  0.23445129038E+02  0.34548818535E+02  0.92740138231E+02  0.10170559560E+03  0.00000000000E+00 0. -1.
         -5    1    5    5    0  502  0.37953309737E+02 -0.31398113797E+01  0.83490306644E+02  0.91885980644E+02  0.47000000000E+01 0.  1.
         13    1    6    6    0    0 -0.50417572070E+02  0.40331898330E+02  0.10943996492E+01  0.64573921260E+02  0.00000000000E+00 0. -1.
        -14    1    6    6    0    0  0.32801141602E+02  0.40447193459E+02  0.28845066837E+01  0.52155639464E+02  0.00000000000E+00 0.  1.
</event>
<event>
12    1  0.1050869E+000  0.2696225E+03  0.7818608E-02  0.1101503E+00
         21   -1    0    0  503  502  0.00000000000E+00  0.00000000000E+00  0.84099294215E+02  0.84099294215E+02  0.00000000000E+00 0. -1.
         21   -1    0    0  501  503 -0.00000000000E+00 -0.00000000000E+00 -0.86568061005E+03  0.86568061005E+03  0.00000000000E+00 0. -1.
          6    2    1    2  501    0 -0.56816597060E+02  0.19932565315E+03 -0.41013342709E+03  0.49082149905E+03  0.17244556882E+03 0.  0.
         24    2    3    3    0    0  0.17773076792E+02  0.17240174470E+03 -0.29825151416E+03  0.35360572469E+03  0.77748305449E+02 0.  0.
         -6    2    1    2    0  502  0.56816597060E+02 -0.19932565315E+03 -0.37144788875E+03  0.45895840522E+03  0.17236717194E+03 0.  0.
        -24    2    5    5    0    0 -0.10412505109E+02 -0.99242721623E+02 -0.28883991737E+03  0.31273080079E+03  0.66441838027E+02 0.  0.
          5    1    3    3  501    0 -0.74589673852E+02  0.26923908446E+02 -0.11188191293E+03  0.13721577436E+03  0.47000000000E+01 0. -1.
        -13    1    4    4    0    0  0.45760303754E+02  0.87280478166E+02 -0.18035132083E+03  0.20552003843E+03  0.00000000000E+00 0.  1.
         14    1    4    4    0    0 -0.27987226963E+02  0.85121266537E+02 -0.11790019333E+03  0.14808568627E+03  0.00000000000E+00 0. -1.
         -5    1    5    5    0  502  0.67229102169E+02 -0.10008293153E+03 -0.82607971378E+02  0.14622760443E+03  0.47000000000E+01 0.  1.
         13    1    6    6    0    0 -0.32354997778E+02 -0.30926488149E+02 -0.14869195449E+03  0.15528229416E+03  0.00000000000E+00 0. -1.
        -14    1    6    6    0    0  0.21942492669E+02 -0.68316233473E+02 -0.14014796288E+03  0.15744850663E+03  0.00000000000E+00 0.  1.
</event>
<event>
12    1  0.1050869E+000  0.2111573E+03  0.7818608E-02  0.1141034E+00
         21   -1    0    0  501  502  0.00000000000E+00  0.00000000000E+00  0.15099775537E+03  0.15099775537E+03  0.00000000000E+00 0.  1.
         21   -1    0    0  502  503 -0.00000000000E+00 -0.00000000000E+00 -0.35941171969E+03  0.35941171969E+03  0.00000000000E+00 0.  1.
         -6    2    1    2    0  503 -0.10552886938E+03  0.58961669797E+02  0.54400028913E+01  0.21122736888E+03  0.17313170408E+03 0.  0.
        -24    2    3    3    0    0  0.12482959065E+02  0.10537025543E+02  0.18388437157E+02  0.82925031514E+02  0.79193263957E+02 0.  0.
          6    2    1    2  501    0  0.10552886938E+03 -0.58961669797E+02 -0.21385396721E+03  0.29918210617E+03  0.17077351252E+03 0.  0.
         24    2    5    5    0    0  0.71478179180E+02 -0.97089377415E+02 -0.10408395630E+03  0.17800159252E+03  0.79470873130E+02 0.  0.
          5    1    5    5  501    0  0.34050690203E+02  0.38127707618E+02 -0.10977001091E+03  0.12118051364E+03  0.47000000000E+01 0. -1.
        -13    1    6    6    0    0 -0.60569099910E+01  0.74772275936E+01  0.22891863044E+01  0.98911811763E+01  0.00000000000E+00 0.  1.
         14    1    6    6    0    0  0.77535089171E+02 -0.10456660501E+03 -0.10637314260E+03  0.16811041135E+03  0.00000000000E+00 0. -1.
         -5    1    3    3    0  503 -0.11801182845E+03  0.48424644254E+02 -0.12948434266E+02  0.12830233737E+03  0.47000000000E+01 0.  1.
         11    1    4    4    0    0 -0.25039726402E+02  0.29551822645E+02  0.10427887307E+02  0.40112827794E+02  0.00000000000E+00 0. -1.
        -12    1    4    4    0    0  0.37522685467E+02 -0.19014797102E+02  0.79605498498E+01  0.42812203720E+02  0.00000000000E+00 0.  1.
</event>
<event>
12    1  0.1050869E+000  0.1996330E+03  0.7818608E-02  0.1154134E+00
         21   -1    0    0  501  502  0.00000000000E+00  0.00000000000E+00  0.82705783037E+02  0.82705783037E+02  0.00000000000E+00 0. -1.
         21   -1    0    0  502  503 -0.00000000000E+00 -0.00000000000E+00 -0.44568858215E+03  0.44568858215E+03  0.00000000000E+00 0. -1.
         -6    2    1    2    0  503  0.19653175635E+02 -0.53352573050E+02 -0.13957686582E+03  0.22878874255E+03  0.17213321261E+03 0.  0.
        -24    2    3    3    0    0  0.27134260727E+02  0.16282857527E+02 -0.13591331930E+03  0.15849954424E+03  0.75155010536E+02 0.  0.
          6    2    1    2  501    0 -0.19653175635E+02  0.53352573050E+02 -0.22340593330E+03  0.29960562264E+03  0.19136502742E+03 0.  0.
         24    2    5    5    0    0 -0.55167543775E+02  0.10073943584E+03 -0.15458625197E+03  0.20869344717E+03  0.80399961292E+02 0.  0.
          5    1    5    5  501    0  0.35514368140E+02 -0.47386862790E+02 -0.68819681333E+02  0.90912175468E+02  0.47000000000E+01 0. -1.
        -13    1    6    6    0    0 -0.13128749044E+02  0.55041186488E+02 -0.19211758238E+02  0.59757743565E+02  0.00000000000E+00 0.  1.
         14    1    6    6    0    0 -0.42038794731E+02  0.45698249352E+02 -0.13537449373E+03  0.14893570361E+03  0.00000000000E+00 0. -1.
         -5    1    3    3    0  503 -0.74810850919E+01 -0.69635430577E+02 -0.36635465200E+01  0.70289198309E+02  0.47000000000E+01 0.  1.
         13    1    4    4    0    0  0.11009826078E+02  0.47429941109E+01  0.72233309374E+01  0.13996027052E+02  0.00000000000E+00 0. -1.
        -14    1    4    4    0    0  0.16124434649E+02  0.11539863416E+02 -0.14313665023E+03  0.14450351719E+03  0.00000000000E+00 0.  1.
</event>
<event>
12    1  0.1050869E+000  0.3230711E+03  0.7818608E-02  0.1074311E+00
         21   -1    0    0  501  502  0.00000000000E+00  0.00000000000E+00  0.12604353627E+03  0.12604353627E+03  0.00000000000E+00 0.  1.
         21   -1    0    0  502  503 -0.00000000000E+00 -0.00000000000E+00 -0.84859320454E+03  0.84859320454E+03  0.00000000000E+00 0.  1.
         -6    2    1    2    0  503  0.64705742371E+02  0.26493986389E+03 -0.43942302360E+03  0.54506059695E+03  0.17210025016E+03 0.  0.
        -24    2    3    3    0    0  0.51001912178E+02  0.66407589726E+02 -0.22176703644E+03  0.25010453651E+03  0.79752728549E+02 0.  0.
          6    2    1    2  501    0 -0.64705742371E+02 -0.26493986389E+03 -0.28312664466E+03  0.42957614386E+03  0.17319065184E+03 0.  0.
         24    2    5    5    0    0 -0.78623833862E+02 -0.12049732611E+03 -0.21061695705E+03  0.26728903782E+03  0.79891265404E+02 0.  0.
          5    1    5    5  501    0  0.13918091491E+02 -0.14444253778E+03 -0.72509687608E+02  0.16228710604E+03  0.47000000000E+01 0. -1.
        -13    1    6    6    0    0 -0.23479981485E+02 -0.10456903811E+03 -0.13671185552E+03  0.17371276494E+03  0.00000000000E+00 0.  1.
         14    1    6    6    0    0 -0.55143852377E+02 -0.15928287997E+02 -0.73905101532E+02  0.93576272879E+02  0.00000000000E+00 0. -1.
         -5    1    3    3    0  503  0.13703830193E+02  0.19853227416E+03 -0.21765598716E+03  0.29495606045E+03  0.47000000000E+01 0.  1.
         11    1    4    4    0    0  0.19173739135E+02  0.17894869453E+02 -0.17102679953E+03  0.17302608122E+03  0.00000000000E+00 0. -1.
        -12    1    4    4    0    0  0.31828173043E+02  0.48512720273E+02 -0.50740236908E+02  0.77078455284E+02  0.00000000000E+00 0.  1.
</event>
<event>
12    1  0.1050869E+000  0.1790523E+03  0.7818608E-02  0.1168758E+00
         21   -1    0    0  501  502  0.00000000000E+00  0.00000000000E+00  0.39839918314E+03  0.39839918314E+03  0.00000000000E+00 0.  1.
         21   -1    0    0  502  503 -0.00000000000E+00 -0.00000000000E+00 -0.13495377289E+03  0.13495377289E+03  0.00000000000E+00 0.  1.
         -6    2    1    2    0  503  0.49000794614E+02  0.62236712596E+01 -0.37786916870E+02  0.18299612084E+03  0.17210437879E+03 0.  0.
        -24    2    3    3    0    0 -0.37568194926E+02  0.40425688651E+00 -0.31643854896E+02  0.95887666922E+02  0.82350339534E+02 0.  0.
          6    2    1    2  501    0 -0.49000794614E+02 -0.62236712596E+01  0.30123232712E+03  0.35035683520E+03  0.17195692807E+03 0.  0.
         24    2    5    5    0    0 -0.38797262625E+02 -0.58976906133E+02  0.11691374549E+03  0.15830880634E+03  0.80058423886E+02 0.  0.
          5    1    5    5  501    0 -0.10203531989E+02  0.52753234873E+02  0.18431858163E+03  0.19204802886E+03  0.47000000000E+01 0. -1.
        -11    1    6    6    0    0  0.15969007353E+02 -0.38475404819E+02  0.76878026792E+02  0.87439104383E+02  0.00000000000E+00 0.  1.
         12    1    6    6    0    0 -0.54766269977E+02 -0.20501501314E+02  0.40035718695E+02  0.70869701952E+02  0.00000000000E+00 0. -1.
         -5    1    3    3    0  503  0.86568989541E+02  0.58194143731E+01 -0.61430619738E+01  0.87108453919E+02  0.47000000000E+01 0.  1.
         11    1    4    4    0    0  0.45890206680E+01 -0.34579971943E+02 -0.59811446603E+01  0.35392197752E+02  0.00000000000E+00 0. -1.
        -12    1    4    4    0    0 -0.42157215594E+02  0.34984228829E+02 -0.25662710236E+02  0.60495469170E+02  0.00000000000E+00 0.  1.
</event>
<event>
12    1  0.1050869E+000  0.2867007E+03  0.7818608E-02  0.1092219E+00
         21   -1    0    0  501  502  0.00000000000E+00  0.00000000000E+00  0.13364551912E+03  0.13364551912E+03  0.00000000000E+00 0. -1.
         21   -1    0    0  502  503 -0.00000000000E+00 -0.00000000000E+00 -0.67756975358E+03  0.67756975358E+03  0.00000000000E+00 0. -1.
         -6    2    1    2    0  503 -0.34196784540E+02  0.22358876386E+03 -0.14706062258E+03  0.32221746279E+03  0.17617012010E+03 0.  0.
        -24    2    3    3    0    0 -0.16863094402E+02  0.22075760301E+02 -0.37778011577E+02  0.92276760687E+02  0.79474016247E+02 0.  0.
          6    2    1    2  501    0  0.34196784540E+02 -0.22358876386E+03 -0.39686361189E+03  0.48899780991E+03  0.17451869887E+03 0.  0.
         24    2    5    5    0    0  0.85446523755E+02 -0.12776969317E+03 -0.22092922415E+03  0.28215770531E+03  0.84717446086E+02 0.  0.
          5    1    5    5  501    0 -0.51249739215E+02 -0.95819070696E+02 -0.17593438774E+03  0.20684010459E+03  0.47000000000E+01 0. -1.
        -11    1    6    6    0    0  0.31443952834E+02 -0.63770073461E+02 -0.16969543912E+03  0.18398882167E+03  0.00000000000E+00 0.  1.
         12    1    6    6    0    0  0.54002570920E+02 -0.63999619704E+02 -0.51233785025E+02  0.98168883646E+02  0.00000000000E+00 0. -1.
         -5    1    3    3    0  503 -0.17333690137E+02  0.20151300356E+03 -0.10928261100E+03  0.22994070211E+03  0.47000000000E+01 0.  1.
         11    1    4    4    0    0  0.12962625777E+02 -0.24331812818E+02 -0.20871499412E+02  0.34578696762E+02  0.00000000000E+00 0. -1.
        -12    1    4    4    0    0 -0.29825720180E+02  0.46407573120E+02 -0.16906512164E+02  0.57698063925E+02  0.00000000000E+00 0.  1.
</event>
<event>
12    1  0.1050869E+000  0.2342993E+03  0.7818608E-02  0.1123962E+00
         21   -1    0    0  501  502  0.00000000000E+00  0.00000000000E+00  0.26917551649E+03  0.26917551649E+03  0.00000000000E+00 0.  1.
         21   -1    0    0  502  503 -0.00000000000E+00 -0.00000000000E+00 -0.26678893004E+03  0.26678893004E+03  0.00000000000E+00 0.  1.
         -6    2    1    2    0  503 -0.14531542705E+03 -0.58676942995E+02  0.13287128290E+03  0.26778091708E+03  0.17173317896E+03 0.  0.
        -24    2    3    3    0    0 -0.79507684773E+02  0.33613318018E+02  0.61176084156E+02  0.13357792626E+03  0.81542761946E+02 0.  0.
          6    2    1    2  501    0  0.14531542705E+03  0.58676942995E+02 -0.13048469645E+03  0.26818352945E+03  0.17417402930E+03 0.  0.
         24    2    5    5    0    0  0.38572648445E+02 -0.20513346606E+02 -0.27332591045E+02  0.99875568854E+02  0.85553562892E+02 0.  0.
          5    1    5    5  501    0  0.10674277860E+03  0.79190289602E+02 -0.10315210541E+03  0.16830796060E+03  0.47000000000E+01 0. -1.
        -13    1    6    6    0    0 -0.53728882065E+01  0.71144428209E+01  0.24771714794E+02  0.26327192752E+02  0.00000000000E+00 0.  1.
         14    1    6    6    0    0  0.43945536652E+02 -0.27627789427E+02 -0.52104305840E+02  0.73548376102E+02  0.00000000000E+00 0. -1.
         -5    1    3    3    0  503 -0.65807742277E+02 -0.92290261014E+02  0.71695198745E+02  0.13420299082E+03  0.47000000000E+01 0.  1.
         13    1    4    4    0    0 -0.84441124084E+02  0.13646451672E+02  0.70642702443E+02  0.11093656065E+03  0.00000000000E+00 0. -1.
        -14    1    4    4    0    0  0.49334393115E+01  0.19966866346E+02 -0.94666182869E+01  0.22641365615E+02  0.00000000000E+00 0.  1.
</event>
<event>
12    1  0.1050869E+000  0.2881037E+03  0.7818608E-02  0.1091362E+00
         21   -1    0    0  501  502  0.00000000000E+00  0.00000000000E+00  0.11505412199E+04  0.11505412199E+04  0.00000000000E+00 0.  1.
         21   -1    0    0  502  503 -0.00000000000E+00 -0.00000000000E+00 -0.10424445333E+03  0.10424445333E+03  0.00000000000E+00 0.  1.
         -6    2    1    2    0  503 -0.17131114909E+03 -0.15395948474E+03  0.17488802086E+03  0.33703047673E+03  0.17306845368E+03 0.  0.
        -24    2    3    3    0    0 -0.19448265627E+03 -0.15074860981E+03  0.17622682185E+03  0.31313255107E+03  0.80296045033E+02 0.  0.
          6    2    1    2  501    0  0.17131114909E+03  0.15395948474E+03  0.87140874576E+03  0.91775519655E+03  0.17283045409E+03 0.  0.
         24    2    5    5    0    0  0.71314554198E+02  0.53894113843E+01  0.27413467686E+03  0.29419221732E+03  0.79274386010E+02 0.  0.
          5    1    5    5  501    0  0.99996594893E+02  0.14857007336E+03  0.59727406890E+03  0.62356297923E+03  0.47000000000E+01 0. -1.
        -11    1    6    6    0    0  0.80983220797E+02  0.12682945887E+02  0.16350590875E+03  0.18290249141E+03  0.00000000000E+00 0.  1.
         12    1    6    6    0    0 -0.96686665990E+01 -0.72935345030E+01  0.11062876811E+03  0.11128972591E+03  0.00000000000E+00 0. -1.
         -5    1    3    3    0  503  0.23171507179E+02 -0.32108749294E+01 -0.13388009929E+01  0.23897925660E+02  0.47000000000E+01 0.  1.
         13    1    4    4    0    0 -0.28891462382E+02 -0.32474253745E+01  0.50342808676E+02  0.58134849751E+02  0.00000000000E+00 0. -1.
        -14    1    4    4    0    0 -0.16559119389E+03 -0.14750118444E+03  0.12588401318E+03  0.25499770132E+03  0.00000000000E+00 0.  1.
</event>
<event>
12    1  0.1050869E+000  0.2129922E+03  0.7818608E-02  0.1139685E+00
         21   -1    0    0  503  502  0.00000000000E+00  0.00000000000E+00  0.10584298228E+03  0.10584298228E+03  0.00000000000E+00 0.  1.
         21   -1    0    0  501  503 -0.00000000000E+00 -0.00000000000E+00 -0.44761275862E+03  0.44761275862E+03  0.00000000000E+00 0.  1.
          6    2    1    2  501    0 -0.99532594965E+02 -0.69182118537E+02 -0.10800601030E+03  0.23881162384E+03  0.17513649088E+03 0.  0.
         24    2    3    3    0    0 -0.99073542855E+02  0.84804573151E+01 -0.35719311432E+02  0.13260831293E+03  0.80134951166E+02 0.  0.
         -6    2    1    2    0  502  0.99532594965E+02  0.69182118537E+02 -0.23376376605E+03  0.31464411706E+03  0.17222810193E+03 0.  0.
        -24    2    5    5    0    0  0.61662291252E+02  0.94842681205E+02 -0.22975377269E+03  0.26848358818E+03  0.80618042117E+02 0.  0.
          5    1    3    3  501    0 -0.45905210952E+00 -0.77662575852E+02 -0.72286698865E+02  0.10620331092E+03  0.47000000000E+01 0. -1.
        -11    1    4    4    0    0 -0.45508313634E+02  0.40961068300E+02 -0.33795091424E+02  0.69935140884E+02  0.00000000000E+00 0.  1.
         12    1    4    4    0    0 -0.53565229221E+02 -0.32480610985E+02 -0.19242200077E+01  0.62673172044E+02  0.00000000000E+00 0. -1.
         -5    1    5    5    0  502  0.37870303713E+02 -0.25660562668E+02 -0.40099933616E+01  0.46160528880E+02  0.47000000000E+01 0.  1.
         11    1    6    6    0    0  0.59520379631E+02  0.77838537527E+02 -0.10920112594E+03  0.14671877666E+03  0.00000000000E+00 0. -1.
        -12    1    6    6    0    0  0.21419116207E+01  0.17004143678E+02 -0.12055264674E+03  0.12176481152E+03  0.00000000000E+00 0.  1.
</event>
<event>
12    1  0.1050869E+000  0.1964184E+03  0.7818608E-02  0.1154313E+00
         21   -1    0    0  501  502  0.00000000000E+00  0.00000000000E+00  0.71476857674E+03  0.71476857674E+03  0.00000000000E+00 0. -1.
         21   -1    0    0  502  503 -0.00000000000E+00 -0.00000000000E+00 -0.53332016667E+02  0.53332016667E+02  0.00000000000E+00 0. -1.
         -6    2    1    2    0  503 -0.75031166337E+02 -0.30768364692E+02  0.26655868540E+03  0.32706914063E+03  0.17130184413E+03 0.  0.
        -24    2    3    3    0    0  0.10410978308E+02 -0.47952570549E+02  0.18997542065E+03  0.21095392435E+03  0.77479418272E+02 0.  0.
          6    2    1    2  501    0  0.75031166337E+02  0.30768364692E+02  0.39487787467E+03  0.44103145277E+03  0.17889616610E+03 0.  0.
         24    2    5    5    0    0  0.10160888884E+03 -0.71103816248E+01  0.36107458515E+03  0.38353426034E+03  0.79679037354E+02 0.  0.
          5    1    5    5  501    0 -0.26577722500E+02  0.37878746317E+02  0.33803289521E+02  0.57497192438E+02  0.47000000000E+01 0. -1.
        -11    1    6    6    0    0  0.57844319136E+02 -0.42686484450E+02  0.22597231134E+03  0.23713200270E+03  0.00000000000E+00 0.  1.
         12    1    6    6    0    0  0.43764569701E+02  0.35576102825E+02  0.13510227381E+03  0.14640225764E+03  0.00000000000E+00 0. -1.
         -5    1    3    3    0  503 -0.85442144645E+02  0.17184205857E+02  0.76583264757E+02  0.11611521629E+03  0.47000000000E+01 0.  1.
         11    1    4    4    0    0  0.23075452141E+02 -0.63018403266E+02  0.11230767610E+03  0.13083122621E+03  0.00000000000E+00 0. -1.
        -12    1    4    4    0    0 -0.12664473834E+02  0.15065832718E+02  0.77667744549E+02  0.80122698134E+02  0.00000000000E+00 0.  1.
</event>
<event>
12    1  0.1050869E+000  0.1887664E+03  0.7818608E-02  0.1159898E+00
         21   -1    0    0  501  502  0.00000000000E+00  0.00000000000E+00  0.14755257045E+04  0.14755257045E+04  0.00000000000E+00 0. -1.
         21   -1    0    0  502  503 -0.00000000000E+00 -0.00000000000E+00 -0.35738494583E+02  0.35738494583E+02  0.00000000000E+00 0. -1.
         -6    2    1    2    0  503 -0.74989446852E+02  0.25128081634E+02  0.11516999268E+04  0.11668414174E+04  0.16985680527E+03 0.  0.
        -24    2    3    3    0    0  0.15224838148E+02 -0.22489537932E+02  0.44750568493E+03  0.45528138815E+03  0.79260515647E+02 0.  0.
          6    2    1    2  501    0  0.74989446852E+02 -0.25128081634E+02  0.28808728305E+03  0.34442278163E+03  0.17139991899E+03 0.  0.
         24    2    5    5    0    0  0.91692831393E+02 -0.58910141667E+02  0.15248748284E+03  0.20360507518E+03  0.79527442403E+02 0.  0.
          5    1    5    5  501    0 -0.16703384541E+02  0.33782060033E+02  0.13559980021E+03  0.14081770646E+03  0.47000000000E+01 0. -1.
        -11    1    6    6    0    0  0.27117985975E+02 -0.64230069755E+02  0.86879894905E+02  0.11139570532E+03  0.00000000000E+00 0.  1.
         12    1    6    6    0    0  0.64574845419E+02  0.53199280883E+01  0.65607587934E+02  0.92209369861E+02  0.00000000000E+00 0. -1.
         -5    1    3    3    0  503 -0.90214285001E+02  0.47617619566E+02  0.70419424191E+03  0.71156002926E+03  0.47000000000E+01 0.  1.
         13    1    4    4    0    0 -0.27735125177E+02 -0.15797453558E+02  0.29430110589E+03  0.29602692045E+03  0.00000000000E+00 0. -1.
        -14    1    4    4    0    0  0.42959963325E+02 -0.66920843748E+01  0.15320457905E+03  0.15925446770E+03  0.00000000000E+00 0.  1.
</event>
<event>
12    1  0.1050869E+000  0.3302206E+03  0.7818608E-02  0.1071211E+00
         21   -1    0    0  503  502  0.00000000000E+00  0.00000000000E+00  0.79745722692E+03  0.79745722692E+03  0.00000000000E+00 0. -1.
         21   -1    0    0  501  503 -0.00000000000E+00 -0.00000000000E+00 -0.16606746453E+03  0.16606746453E+03  0.00000000000E+00 0.  1.
          6    2    1    2  501    0  0.65873273849E+02  0.27209614055E+03  0.51973379457E+03  0.61493794719E+03  0.17219135799E+03 0.  0.
         24    2    3    3    0    0  0.61922616374E+02  0.18976347025E+03  0.23428386188E+03  0.31778810222E+03  0.79093393622E+02 0.  0.
         -6    2    1    2    0  502 -0.65873273849E+02 -0.27209614055E+03  0.11165596782E+03  0.34858674426E+03  0.17512871041E+03 0.  0.
        -24    2    5    5    0    0 -0.76740226328E+02 -0.82448812434E+02  0.25852651228E+02  0.14009574000E+03  0.79193356928E+02 0.  0.
          5    1    3    3  501    0  0.39506574751E+01  0.82332670301E+02  0.28544993269E+03  0.29714984497E+03  0.47000000000E+01 0. -1.
        -13    1    4    4    0    0  0.45530550463E+02  0.17610722162E+03  0.23408753205E+03  0.29645194753E+03  0.00000000000E+00 0.  1.
         14    1    4    4    0    0  0.16392065912E+02  0.13656248637E+02  0.19632982791E+00  0.21336154693E+02  0.00000000000E+00 0. -1.
         -5    1    5    5    0  502  0.10866952479E+02 -0.18964732812E+03  0.85803316592E+02  0.20849100426E+03  0.47000000000E+01 0.  1.
         13    1    6    6    0    0 -0.29166522604E+02 -0.48005172630E+02  0.51313948227E+02  0.76080903797E+02  0.00000000000E+00 0. -1.
        -14    1    6    6    0    0 -0.47573703724E+02 -0.34443639804E+02 -0.25461296998E+02  0.64014836201E+02  0.00000000000E+00 0.  1.
</event>
<event>
12    1  0.1050869E+000  0.2522018E+03  0.7818608E-02  0.1112048E+00
         21   -1    0    0  501  502  0.00000000000E+00  0.00000000000E+00  0.96417832714E+03  0.96417832714E+03  0.00000000000E+00 0.  1.
         21   -1    0    0  502  503 -0.00000000000E+00 -0.00000000000E+00 -0.82579911950E+02  0.82579911950E+02  0.00000000000E+00 0.  1.
         -6    2    1    2    0  503 -0.12460218688E+03 -0.13484331126E+03  0.20513409298E+03  0.32509345742E+03  0.17290846247E+03 0.  0.
        -24    2    3    3    0    0 -0.12109029733E+03 -0.16476697017E+03  0.19412724413E+03  0.29267433571E+03  0.78497549658E+02 0.  0.
          6    2    1    2  501    0  0.12460218688E+03  0.13484331126E+03  0.67646432221E+03  0.72166478166E+03  0.17171969691E+03 0.  0.
         24    2    5    5    0    0  0.93426502139E+02  0.20675637026E+02  0.25353322956E+03  0.28246211741E+03  0.79685356323E+02 0.  0.
          5    1    5    5  501    0  0.31175684741E+02  0.11416767423E+03  0.42293109265E+03  0.43920266425E+03  0.47000000000E+01 0. -1.
        -11    1    6    6    0    0  0.18573884582E+02 -0.17278444790E+02  0.14715527407E+02  0.29327130607E+02  0.00000000000E+00 0.  1.
         12    1    6    6    0    0  0.74852617557E+02  0.37954081816E+02  0.23881770216E+03  0.25313498680E+03  0.00000000000E+00 0. -1.
         -5    1    3    3    0  503 -0.35118895503E+01  0.29923658916E+02  0.11006848847E+02  0.32419121714E+02  0.47000000000E+01 0.  1.
         13    1    4    4    0    0 -0.37254681140E+02 -0.19348174007E+02  0.92902161272E+01  0.42995013897E+02  0.00000000000E+00 0. -1.
        -14    1    4    4    0    0 -0.83835616189E+02 -0.14541879617E+03  0.18483702800E+03  0.24967932181E+03  0.00000000000E+00 0.  1.
</event>
<event>
12    1  0.1050869E+000  0.1731103E+03  0.7818608E-02  0.1175085E+00
         21   -1    0    0  503  502  0.00000000000E+00  0.00000000000E+00  0.25658347365E+03  0.25658347365E+03  0.00000000000E+00 0.  1.
         21   -1    0    0  501  503 -0.00000000000E+00 -0.00000000000E+00 -0.12195137514E+03  0.12195137514E+03  0.00000000000E+00 0.  1.
          6    2    1    2  501    0 -0.28950847926E+01 -0.18211804423E+02  0.11072913830E+03  0.20549485065E+03  0.17212536199E+03 0.  0.
         24    2    3    3    0    0  0.43397158878E+02  0.32523558038E+02  0.93002270276E+02  0.13440771625E+03  0.80466866999E+02 0.  0.
         -6    2    1    2    0  502  0.28950847926E+01  0.18211804423E+02  0.23902960210E+02  0.17303999814E+03  0.17038614414E+03 0.  0.
        -24    2    5    5    0    0  0.25151900724E+02 -0.31355255529E+02  0.60538573946E+02  0.10733978900E+03  0.79000893715E+02 0.  0.
          5    1    3    3  501    0 -0.46292243670E+02 -0.50735362461E+02  0.17726868026E+02  0.71087134406E+02  0.47000000000E+01 0. -1.
        -13    1    4    4    0    0 -0.11379297511E+02 -0.45775115151E+00  0.62565781324E+02  0.63593827851E+02  0.00000000000E+00 0.  1.
         14    1    4    4    0    0  0.54776456389E+02  0.32981309190E+02  0.30436488951E+02  0.70813888398E+02  0.00000000000E+00 0. -1.
         -5    1    5    5    0  502 -0.22256815931E+02  0.49567059952E+02 -0.36635613736E+02  0.65700209143E+02  0.47000000000E+01 0.  1.
         11    1    6    6    0    0 -0.25941182163E+02 -0.16525043710E+02  0.39657063409E+02  0.50186698236E+02  0.00000000000E+00 0. -1.
        -12    1    6    6    0    0  0.51093082887E+02 -0.14830211819E+02  0.20881510537E+02  0.57153090763E+02  0.00000000000E+00 0.  1.
</event>
<event>
12    1  0.1050869E+000  0.2323155E+03  0.7818608E-02  0.1125026E+00
         21   -1    0    0  503  502  0.00000000000E+00  0.00000000000E+00  0.20838679058E+03  0.20838679058E+03  0.00000000000E+00 0.  1.
         21   -1    0    0  501  503 -0.00000000000E+00 -0.00000000000E+00 -0.29509654006E+03  0.29509654006E+03  0.00000000000E+00 0.  1.
          6    2    1    2  501    0 -0.96765719488E+02  0.12185891801E+03  0.44739017713E+02  0.23658413997E+03  0.17250297161E+03 0.  0.
         24    2    3    3    0    0 -0.12056713274E+03  0.11489135479E+03  0.73135749979E+02  0.19859047454E+03  0.79704966912E+02 0.  0.
         -6    2    1    2    0  502  0.96765719488E+02 -0.12185891801E+03 -0.13144876719E+03  0.26689919066E+03  0.17246216749E+03 0.  0.
        -24    2    5    5    0    0  0.31013784535E+02 -0.31055431250E+02  0.38065155832E+01  0.91158837657E+02  0.79806951331E+02 0.  0.
          5    1    3    3  501    0  0.23801413249E+02  0.69675632240E+01 -0.28396732267E+02  0.37993665437E+02  0.47000000000E+01 0. -1.
        -11    1    4    4    0    0 -0.95699667439E+02  0.70329178217E+02  0.85187121255E+02  0.14615562009E+03  0.00000000000E+00 0.  1.
         12    1    4    4    0    0 -0.24867465298E+02  0.44562176571E+02 -0.12051371276E+02  0.52434854445E+02  0.00000000000E+00 0. -1.
         -5    1    5    5    0  502  0.65751934953E+02 -0.90803486761E+02 -0.13525528277E+03  0.17574035301E+03  0.47000000000E+01 0.  1.
         13    1    6    6    0    0  0.74379910890E+01 -0.53336200228E+02  0.16502911402E+02  0.56324240349E+02  0.00000000000E+00 0. -1.
        -14    1    6    6    0    0  0.23575793446E+02  0.22280768977E+02 -0.12696395819E+02  0.34834597308E+02  0.00000000000E+00 0.  1.
</event>
<event>
12    1  0.1050869E+000  0.2565002E+03  0.7818608E-02  0.1109269E+00
         21   -1    0    0  503  502  0.00000000000E+00  0.00000000000E+00  0.30207192132E+03  0.30207192132E+03  0.00000000000E+00 0. -1.
         21   -1    0    0  501  503 -0.00000000000E+00 -0.00000000000E+00 -0.22464201944E+03  0.22464201944E+03  0.00000000000E+00 0. -1.
          6    2    1    2  501    0  0.13423494807E+03  0.13556154351E+03  0.84753179963E+02  0.27010925813E+03  0.17140582386E+03 0.  0.
         24    2    3    3    0    0  0.37843028237E+02  0.47229833697E+01  0.54525623424E+02  0.10474322110E+03  0.80893123314E+02 0.  0.
         -6    2    1    2    0  502 -0.13423494807E+03 -0.13556154351E+03 -0.73232780825E+01  0.25660468263E+03  0.17145372375E+03 0.  0.
        -24    2    5    5    0    0 -0.49692933447E+01 -0.83106330890E+02  0.10790205830E+02  0.11585189538E+03  0.79836564367E+02 0.  0.
          5    1    3    3  501    0  0.96391919832E+02  0.13083856014E+03  0.30227556539E+02  0.16536603703E+03  0.47000000000E+01 0. -1.
        -11    1    4    4    0    0  0.59641594216E+02  0.60098453758E+01  0.18709984824E+02  0.62795712705E+02  0.00000000000E+00 0.  1.
         12    1    4    4    0    0 -0.21798565979E+02 -0.12868620061E+01  0.35815638600E+02  0.41947508399E+02  0.00000000000E+00 0. -1.
         -5    1    5    5    0  502 -0.12926565472E+03 -0.52455212616E+02 -0.18113483912E+02  0.14075278726E+03  0.47000000000E+01 0.  1.
         11    1    6    6    0    0 -0.16401681223E+02  0.10954230773E+02  0.73126270923E+01  0.21035323476E+02  0.00000000000E+00 0. -1.
        -12    1    6    6    0    0  0.11432387878E+02 -0.94060561663E+02  0.34775787373E+01  0.94816571900E+02  0.00000000000E+00 0.  1.
</event>
<event>
12    1  0.1050869E+000  0.1766751E+03  0.7818608E-02  0.1174021E+00
         21   -1    0    0  501  502  0.00000000000E+00  0.00000000000E+00  0.21684205927E+03  0.21684205927E+03  0.00000000000E+00 0.  1.
         21   -1    0    0  502  503 -0.00000000000E+00 -0.00000000000E+00 -0.16896695454E+03  0.16896695454E+03  0.00000000000E+00 0.  1.
         -6    2    1    2    0  503 -0.15622931509E+02  0.37482362958E+02 -0.62231550092E+02  0.18731488567E+03  0.17194504076E+03 0.  0.
        -24    2    3    3    0    0 -0.53692526780E+02  0.25522113922E+02  0.14015108943E+02  0.10112912898E+03  0.80600320838E+02 0.  0.
          6    2    1    2  501    0  0.15622931509E+02 -0.37482362958E+02  0.11010665483E+03  0.19849412815E+03  0.16008572688E+03 0.  0.
         24    2    5    5    0    0  0.54637613407E+02 -0.62442249876E+02  0.31030965248E+02  0.10673250196E+03  0.59536566928E+02 0.  0.
          5    1    5    5  501    0 -0.39014681899E+02  0.24959886918E+02  0.79075689578E+02  0.91761626189E+02  0.47000000000E+01 0. -1.
        -13    1    6    6    0    0  0.36516794531E+02 -0.22077532353E+02 -0.12700889273E+02  0.44521975540E+02  0.00000000000E+00 0.  1.
         14    1    6    6    0    0  0.18120818876E+02 -0.40364717524E+02  0.43731854520E+02  0.62210526419E+02  0.00000000000E+00 0. -1.
         -5    1    3    3    0  503  0.38069595271E+02  0.11960249036E+02 -0.76246659035E+02  0.86185756683E+02  0.47000000000E+01 0.  1.
         11    1    4    4    0    0 -0.38658068366E+02  0.54847035786E+02  0.11488507460E+02  0.68078112400E+02  0.00000000000E+00 0. -1.
        -12    1    4    4    0    0 -0.15034458413E+02 -0.29324921864E+02  0.25266014834E+01  0.33051016583E+02  0.00000000000E+00 0.  1.
</event>
<event>
12    1  0.1050869E+000  0.2505379E+03  0.7818608E-02  0.1113065E+00
         21   -1    0    0  503  502  0.00000000000E+00  0.00000000000E+00  0.49330355525E+03  0.49330355525E+03  0.00000000000E+00 0. -1.
         21   -1    0    0  501  503 -0.00000000000E+00 -0.00000000000E+00 -0.19529377321E+03  0.19529377321E+03  0.00000000000E+00 0. -1.
          6    2    1    2  501    0  0.18207564975E+03  0.95964402575E+01  0.35260147880E+03  0.43218067500E+03  0.17090552681E+03 0.  0.
         24    2    3    3    0    0  0.18768131579E+03  0.39275855929E+02  0.24822293907E+03  0.32341826990E+03  0.78853539363E+02 0.  0.
         -6    2    1    2    0  502 -0.18207564975E+03 -0.95964402575E+01 -0.54591696762E+02  0.25641665346E+03  0.17183018628E+03 0.  0.
        -24    2    5    5    0    0 -0.12479565778E+03  0.43115221581E+02  0.11448899637E+02  0.15422581656E+03  0.78877415377E+02 0.  0.
          5    1    3    3  501    0 -0.56056660403E+01 -0.29679415672E+02  0.10437853974E+03  0.10876240510E+03  0.47000000000E+01 0. -1.
        -13    1    4    4    0    0  0.68707582847E+02  0.53892424245E+02  0.98827161197E+02  0.13187847862E+03  0.00000000000E+00 0.  1.
         14    1    4    4    0    0  0.11897373294E+03 -0.14616568316E+02  0.14939577787E+03  0.19153979128E+03  0.00000000000E+00 0. -1.
         -5    1    5    5    0  502 -0.57279991968E+02 -0.52711661839E+02 -0.66040596399E+02  0.10219083690E+03  0.47000000000E+01 0.  1.
         11    1    6    6    0    0 -0.50322578597E+02  0.13992974037E+02 -0.33927594625E+02  0.62283600700E+02  0.00000000000E+00 0. -1.
        -12    1    6    6    0    0 -0.74473079185E+02  0.29122247544E+02  0.45376494262E+02  0.91942215858E+02  0.00000000000E+00 0.  1.
</event>
<event>
12    1  0.1050869E+000  0.2966477E+03  0.7818608E-02  0.1087004E+00
         21   -1    0    0  501  502  0.00000000000E+00  0.00000000000E+00  0.15044601271E+03  0.15044601271E+03  0.00000000000E+00 0.  1.
         21   -1    0    0  502  503 -0.00000000000E+00 -0.00000000000E+00 -0.83953059356E+03  0.83953059356E+03  0.00000000000E+00 0.  1.
         -6    2    1    2    0  503 -0.23744682412E+03 -0.42095637243E+02 -0.61751992062E+03  0.68481865818E+03  0.17173440329E+03 0.  0.
        -24    2    3    3    0    0 -0.54999237140E+02  0.66376150307E+01 -0.29906158823E+03  0.31454868730E+03  0.80212649289E+02 0.  0.
          6    2    1    2  501    0  0.23744682412E+03  0.42095637243E+02 -0.71564660230E+02  0.30515794808E+03  0.17276236778E+03 0.  0.
         24    2    5    5    0    0  0.53782510947E+02  0.55862921327E+01  0.17279479500E+02  0.97839633938E+02  0.79688445924E+02 0.  0.
          5    1    5    5  501    0  0.18366431318E+03  0.36509345110E+02 -0.88844139729E+02  0.20731831414E+03  0.47000000000E+01 0. -1.
        -11    1    6    6    0    0  0.59274976071E+01  0.28554122472E+02  0.31459224975E+02  0.42897039223E+02  0.00000000000E+00 0.  1.
         12    1    6    6    0    0  0.47855013340E+02 -0.22967830340E+02 -0.14179745475E+02  0.54942594715E+02  0.00000000000E+00 0. -1.
         -5    1    3    3    0  503 -0.18244758698E+03 -0.48733252274E+02 -0.31845833239E+03  0.37026997088E+03  0.47000000000E+01 0.  1.
         11    1    4    4    0    0 -0.30021589711E+02 -0.17173129521E+02 -0.38670084639E+02  0.51880513416E+02  0.00000000000E+00 0. -1.
        -12    1    4    4    0    0 -0.24977647429E+02  0.23810744551E+02 -0.26039150359E+03  0.26266817388E+03  0.00000000000E+00 0.  1.
</event>
<event>
12    1  0.1078486E+000  0.7846074E+03  0.7818608E-02  0.9582610E-01
         21   -1    0    0  501  502  0.00000000000E+00  0.00000000000E+00  0.18559654659E+04  0.18559654659E+04  0.00000000000E+00 0. -1.
         21   -1    0    0  502  503 -0.00000000000E+00 -0.00000000000E+00 -0.85146846945E+03  0.85146846945E+03  0.00000000000E+00 0.  1.
         -6    2    1    2    0  503 -0.22434437337E+03  0.73198213476E+03  0.15599849323E+04  0.17461849227E+04  0.17169901524E+03 0.  0.
        -24    2    3    3    0    0 -0.30144781472E+02  0.18583881136E+03  0.38517164813E+03  0.43614891029E+03  0.80149246809E+02 0.  0.
          6    2    1    2  501    0  0.22434437337E+03 -0.73198213476E+03 -0.55548793580E+03  0.96124901268E+03  0.17118578823E+03 0.  0.
         24    2    5    5    0    0  0.14130298027E+03 -0.57241530425E+03 -0.48793143095E+03  0.76904230698E+03  0.75651674470E+02 0.  0.
          5    1    5    5  501    0  0.83041393103E+02 -0.15956683051E+03 -0.67556504851E+02  0.19220670570E+03  0.47000000000E+01 0. -1.
        -13    1    6    6    0    0  0.20295211737E+02 -0.23422469311E+03 -0.20126073791E+03  0.30948180416E+03  0.00000000000E+00 0.  1.
         14    1    6    6    0    0  0.12100776853E+03 -0.33819061114E+03 -0.28667069304E+03  0.45956050282E+03  0.00000000000E+00 0. -1.
         -5    1    3    3    0  503 -0.19419959190E+03  0.54614332339E+03  0.11748132841E+04  0.13100360124E+04  0.47000000000E+01 0.  1.
         13    1    4    4    0    0 -0.46186151821E+02  0.13043755504E+03  0.20797195144E+03  0.24979881699E+03  0.00000000000E+00 0. -1.
        -14    1    4    4    0    0  0.16041370349E+02  0.55401256325E+02  0.17719969669E+03  0.18635009330E+03  0.00000000000E+00 0.  1.
</event>
<event>
12    1  0.1050869E+000  0.2236002E+03  0.7818608E-02  0.1131612E+00
         21   -1    0    0  503  502  0.00000000000E+00  0.00000000000E+00  0.20564150102E+03  0.20564150102E+03  0.00000000000E+00 0. -1.
         21   -1    0    0  501  503 -0.00000000000E+00 -0.00000000000E+00 -0.28763258836E+03  0.28763258836E+03  0.00000000000E+00 0. -1.
          6    2    1    2  501    0 -0.85132828938E+02 -0.11076321779E+03  0.58629857129E+02  0.22913151244E+03  0.17189444687E+03 0.  0.
         24    2    3    3    0    0 -0.87993529749E+02 -0.36039918122E+02 -0.11677649152E+02  0.12638429562E+03  0.82431096771E+02 0.  0.
         -6    2    1    2    0  502  0.85132828938E+02  0.11076321779E+03 -0.14062094447E+03  0.26414257694E+03  0.17458797768E+03 0.  0.
        -24    2    5    5    0    0  0.76263661312E+02  0.46574675233E+02 -0.15651375137E+03  0.19725833035E+03  0.80180721608E+02 0.  0.
          5    1    3    3  501    0  0.28607008112E+01 -0.74723299672E+02  0.70307506281E+02  0.10274721681E+03  0.47000000000E+01 0. -1.
        -13    1    4    4    0    0 -0.18740805401E+02 -0.19347592358E+02 -0.41240331551E+02  0.49257609194E+02  0.00000000000E+00 0.  1.
         14    1    4    4    0    0 -0.69252724349E+02 -0.16692325764E+02  0.29562682399E+02  0.77126686431E+02  0.00000000000E+00 0. -1.
         -5    1    5    5    0  502  0.88691676259E+01  0.64188542561E+02  0.15892806899E+02  0.66884246588E+02  0.47000000000E+01 0.  1.
         11    1    6    6    0    0  0.76543455027E+02  0.53859258264E+02 -0.16269871549E+03  0.18769814125E+03  0.00000000000E+00 0. -1.
        -12    1    6    6    0    0 -0.27979371485E+00 -0.72845830309E+01  0.61849641223E+01  0.95601891012E+01  0.00000000000E+00 0.  1.
</event>
<event>
12    1  0.1050869E+000  0.2894368E+03  0.7818608E-02  0.1090655E+00
         21   -1    0    0  501  502  0.00000000000E+00  0.00000000000E+00  0.29693805820E+03  0.29693805820E+03  0.00000000000E+00 0.  1.
         21   -1    0    0  502  503 -0.00000000000E+00 -0.00000000000E+00 -0.36652938010E+03  0.36652938010E+03  0.00000000000E+00 0.  1.
         -6    2    1    2    0  503 -0.16142871481E+03 -0.16831939550E+03 -0.19406360602E+03  0.34840072565E+03  0.17126509739E+03 0.  0.
        -24    2    3    3    0    0 -0.18902426840E+03 -0.13913851992E+03 -0.17129722730E+03  0.30199559579E+03  0.82273312952E+02 0.  0.
          6    2    1    2  501    0  0.16142871481E+03  0.16831939550E+03  0.12447228412E+03  0.31506671266E+03  0.17141480404E+03 0.  0.
         24    2    5    5    0    0  0.77855804729E+02  0.79267470809E+02  0.13532510616E+03  0.19236972681E+03  0.79676653911E+02 0.  0.
          5    1    5    5  501    0  0.83572910083E+02  0.89051924688E+02 -0.10852822034E+02  0.12269698585E+03  0.47000000000E+01 0. -1.
        -11    1    6    6    0    0  0.48657587711E+02  0.89287918534E+02  0.81478927943E+02  0.13030237502E+03  0.00000000000E+00 0.  1.
         12    1    6    6    0    0  0.29198217018E+02 -0.10020447726E+02  0.53846178212E+02  0.62067351786E+02  0.00000000000E+00 0. -1.
         -5    1    3    3    0  503  0.27595553591E+02 -0.29180875575E+02 -0.22766378723E+02  0.46405129862E+02  0.47000000000E+01 0.  1.
         11    1    4    4    0    0 -0.88852132208E+02 -0.11555056127E+03 -0.10306303951E+03  0.17851785267E+03  0.00000000000E+00 0. -1.
        -12    1    4    4    0    0 -0.10017213620E+03 -0.23587958652E+02 -0.68234187785E+02  0.12347774312E+03  0.00000000000E+00 0.  1.
</event>
<event>
12    1  0.1050869E+000  0.1917618E+03  0.7818608E-02  0.1156926E+00
         21   -1    0    0  501  502  0.00000000000E+00  0.00000000000E+00  0.32352355550E+02  0.32352355550E+02  0.00000000000E+00 0.  1.
         21   -1    0    0  502  503 -0.00000000000E+00 -0.00000000000E+00 -0.16670330769E+04  0.16670330769E+04  0.00000000000E+00 0.  1.
         -6    2    1    2    0  503  0.40550737561E+02  0.79758081309E+02 -0.33781070826E+03  0.38844392167E+03  0.16960805351E+03 0.  0.
        -24    2    3    3    0    0 -0.27831824174E+02  0.77429938003E+02 -0.26464044274E+03  0.28815647102E+03  0.78927701879E+02 0.  0.
          6    2    1    2  501    0 -0.40550737561E+02 -0.79758081309E+02 -0.12968700131E+04  0.13109415108E+04  0.16938152196E+03 0.  0.
         24    2    5    5    0    0 -0.86363324425E+02 -0.65432385644E+02 -0.75865944395E+03  0.77057429729E+03  0.80502017769E+02 0.  0.
          5    1    5    5  501    0  0.45812586864E+02 -0.14325695665E+02 -0.53821056918E+03  0.54036721352E+03  0.47000000000E+01 0. -1.
        -11    1    6    6    0    0 -0.52129851227E+02  0.58353185553E+01 -0.22144174456E+03  0.22756981031E+03  0.00000000000E+00 0.  1.
         12    1    6    6    0    0 -0.34233473198E+02 -0.71267704199E+02 -0.53721769939E+03  0.54300448699E+03  0.00000000000E+00 0. -1.
         -5    1    3    3    0  503  0.68382561736E+02  0.23281433057E+01 -0.73170265522E+02  0.10028745065E+03  0.47000000000E+01 0.  1.
         11    1    4    4    0    0 -0.38497570394E+02  0.43646314718E+02 -0.23458866627E+03  0.24170003322E+03  0.00000000000E+00 0. -1.
        -12    1    4    4    0    0  0.10665746220E+02  0.33783623286E+02 -0.30051776466E+02  0.46456437804E+02  0.00000000000E+00 0.  1.
</event>
<event>
12    1  0.1050869E+000  0.3638349E+03  0.7818608E-02  0.1057156E+00
         21   -1    0    0  501  502  0.00000000000E+00  0.00000000000E+00  0.14642741266E+04  0.14642741266E+04  0.00000000000E+00 0. -1.
         21   -1    0    0  502  503 -0.00000000000E+00 -0.00000000000E+00 -0.91946087242E+02  0.91946087242E+02  0.00000000000E+00 0. -1.
         -6    2    1    2    0  503 -0.13080482166E+03  0.29169081271E+03  0.57815311534E+03  0.68267018872E+03  0.17200037848E+03 0.  0.
        -24    2    3    3    0    0 -0.96707945338E+02  0.18665288891E+03  0.49701562929E+03  0.54555365414E+03  0.80078250253E+02 0.  0.
          6    2    1    2  501    0  0.13080482166E+03 -0.29169081271E+03  0.79417492401E+03  0.87355002512E+03  0.17373084030E+03 0.  0.
         24    2    5    5    0    0  0.91710520974E+02 -0.17291558698E+03  0.64550558034E+03  0.67922920188E+03  0.79776152901E+02 0.  0.
          5    1    5    5  501    0  0.39094300685E+02 -0.11877522573E+03  0.14866934367E+03  0.19432082323E+03  0.47000000000E+01 0. -1.
        -11    1    6    6    0    0  0.71010566178E+02 -0.61642605264E+02  0.36076942557E+03  0.37282286641E+03  0.00000000000E+00 0.  1.
         12    1    6    6    0    0  0.20699954796E+02 -0.11127298171E+03  0.28473615476E+03  0.30640633547E+03  0.00000000000E+00 0. -1.
         -5    1    3    3    0  503 -0.34096876320E+02  0.10503792380E+03  0.81137486058E+02  0.13711653458E+03  0.47000000000E+01 0.  1.
         13    1    4    4    0    0  0.10257033449E+02  0.27243642400E+02  0.36927743502E+02  0.47022133369E+02  0.00000000000E+00 0. -1.
        -14    1    4    4    0    0 -0.10696497879E+03  0.15940924651E+03  0.46008788578E+03  0.49853152077E+03  0.00000000000E+00 0.  1.
</event>
<event>
12    1  0.1050869E+000  0.3019682E+03  0.7818608E-02  0.1084281E+00
         21   -1    0    0  503  502  0.00000000000E+00  0.00000000000E+00  0.13775923804E+03  0.13775923804E+03  0.00000000000E+00 0. -1.
         21   -1    0    0  501  503 -0.00000000000E+00 -0.00000000000E+00 -0.86152010677E+03  0.86152010677E+03  0.00000000000E+00 0. -1.
          6    2    1    2  501    0  0.24766801054E+03 -0.16893864351E+02 -0.12124174156E+03  0.32539878290E+03  0.17193010767E+03 0.  0.
         24    2    3    3    0    0  0.90241704631E+02  0.42217263134E+02 -0.20441930404E+02  0.12928692933E+03  0.79820893352E+02 0.  0.
         -6    2    1    2    0  502 -0.24766801054E+03  0.16893864351E+02 -0.60251912716E+03  0.67388056191E+03  0.17164168207E+03 0.  0.
        -24    2    5    5    0    0 -0.10916977221E+03  0.18538683785E+02 -0.15992249166E+03  0.21009360736E+03  0.79387647362E+02 0.  0.
          5    1    3    3  501    0  0.15742630590E+03 -0.59111127484E+02 -0.10079981116E+03  0.19611185358E+03  0.47000000000E+01 0. -1.
        -13    1    4    4    0    0  0.86285374416E+02  0.42740390841E+01 -0.27141116900E+02  0.90554257077E+02  0.00000000000E+00 0.  1.
         14    1    4    4    0    0  0.39563302146E+01  0.37943224049E+02  0.66991864968E+01  0.38732672252E+02  0.00000000000E+00 0. -1.
         -5    1    5    5    0  502 -0.13849823833E+03 -0.16448194345E+01 -0.44259663550E+03  0.46378695454E+03  0.47000000000E+01 0.  1.
         13    1    6    6    0    0 -0.63859425961E+02 -0.28544038620E+02 -0.95072268533E+02  0.11803187988E+03  0.00000000000E+00 0. -1.
        -14    1    6    6    0    0 -0.45310346248E+02  0.47082722405E+02 -0.64850223131E+02  0.92061727478E+02  0.00000000000E+00 0.  1.
</event>
<event>
12    1  0.1050869E+000  0.2208531E+03  0.7818608E-02  0.1133319E+00
         21   -1    0    0  501  502  0.00000000000E+00  0.00000000000E+00  0.63304571689E+02  0.63304571689E+02  0.00000000000E+00 0.  1.
         21   -1    0    0  502  503 -0.00000000000E+00 -0.00000000000E+00 -0.10068774864E+04  0.10068774864E+04  0.00000000000E+00 0.  1.
         -6    2    1    2    0  503 -0.90988082904E+02  0.10364185907E+03 -0.21210625102E+03  0.30621096403E+03  0.17249819301E+03 0.  0.
        -24    2    3    3    0    0 -0.77861875313E+02  0.20546770381E+01 -0.81316957139E+02  0.14001775637E+03  0.83221579274E+02 0.  0.
          6    2    1    2  501    0  0.90988082904E+02 -0.10364185907E+03 -0.73146666365E+03  0.76397109401E+03  0.17201129694E+03 0.  0.
         24    2    5    5    0    0  0.10573065941E+03 -0.52661249925E+02 -0.65935968114E+03  0.67431690841E+03  0.77433353676E+02 0.  0.
          5    1    5    5  501    0 -0.14742576510E+02 -0.50980609141E+02 -0.72106982508E+02  0.89654185608E+02  0.47000000000E+01 0. -1.
        -13    1    6    6    0    0 -0.47922106377E+01 -0.26429493831E+02 -0.10034971969E+03  0.10388238382E+03  0.00000000000E+00 0.  1.
         14    1    6    6    0    0  0.11052287005E+03 -0.26231756094E+02 -0.55900996146E+03  0.57043452459E+03  0.00000000000E+00 0. -1.
         -5    1    3    3    0  503 -0.13126207591E+02  0.10158718203E+03 -0.13078929388E+03  0.16619320766E+03  0.47000000000E+01 0.  1.
         13    1    4    4    0    0 -0.64688929161E+02 -0.35320926563E+02 -0.45607618441E+02  0.86673411546E+02  0.00000000000E+00 0. -1.
        -14    1    4    4    0    0 -0.13172946153E+02  0.37375603601E+02 -0.35709338698E+02  0.53344344828E+02  0.00000000000E+00 0.  1.
</event>
<event>
12    1  0.1050869E+000  0.2575627E+03  0.7818608E-02  0.1108673E+00
         21   -1    0    0  503  502  0.00000000000E+00  0.00000000000E+00  0.10064687084E+04  0.10064687084E+04  0.00000000000E+00 0. -1.
         21   -1    0    0  501  503 -0.00000000000E+00 -0.00000000000E+00 -0.67119876074E+02  0.67119876074E+02  0.00000000000E+00 0. -1.
          6    2    1    2  501    0 -0.18086377157E+03 -0.63247477822E+02  0.39455696046E+03  0.47098031106E+03  0.17156722017E+03 0.  0.
         24    2    3    3    0    0 -0.17827340710E+03 -0.77767100174E+02  0.25218174209E+03  0.32776605818E+03  0.77497279307E+02 0.  0.
         -6    2    1    2    0  502  0.18086377157E+03  0.63247477822E+02  0.54479187190E+03  0.60260827345E+03  0.17212379333E+03 0.  0.
        -24    2    5    5    0    0  0.76773882144E+02  0.96851699106E+02  0.28129858114E+03  0.31727556758E+03  0.79122774407E+02 0.  0.
          5    1    3    3  501    0 -0.25903644618E+01  0.14519622351E+02  0.14237521837E+03  0.14321425288E+03  0.47000000000E+01 0. -1.
        -11    1    4    4    0    0 -0.61809151264E+02 -0.52837101822E+01  0.13009327690E+03  0.14412685200E+03  0.00000000000E+00 0.  1.
         12    1    4    4    0    0 -0.11646425584E+03 -0.72483389991E+02  0.12208846520E+03  0.18363920618E+03  0.00000000000E+00 0. -1.
         -5    1    5    5    0  502  0.10408988942E+03 -0.33604221284E+02  0.26349329076E+03  0.28533270588E+03  0.47000000000E+01 0.  1.
         11    1    6    6    0    0 -0.42938668956E+01  0.11750062578E+02  0.10920754564E+00  0.12510523162E+02  0.00000000000E+00 0. -1.
        -12    1    6    6    0    0  0.81067749040E+02  0.85101636529E+02  0.28118937359E+03  0.30476504441E+03  0.00000000000E+00 0.  1.
</event>
<event>
12    1  0.1050869E+000  0.4218652E+03  0.7818608E-02  0.1036606E+00
         21   -1    0    0  501  502  0.00000000000E+00  0.00000000000E+00  0.21371793139E+04  0.21371793139E+04  0.00000000000E+00 0. -1.
         21   -1    0    0  502  503 -0.00000000000E+00 -0.00000000000E+00 -0.82967107386E+02  0.82967107386E+02  0.00000000000E+00 0. -1.
         -6    2    1    2    0  503  0.27584487903E+03 -0.26592655609E+03  0.10028282567E+04  0.10879498060E+04  0.17653027319E+03 0.  0.
        -24    2    3    3    0    0  0.25623742975E+03 -0.17202229081E+03  0.84857536996E+03  0.90623985530E+03  0.77079361007E+02 0.  0.
          6    2    1    2  501    0 -0.27584487903E+03  0.26592655609E+03  0.10513839498E+04  0.11321966153E+04  0.17220230916E+03 0.  0.
         24    2    5    5    0    0 -0.28045701388E+03  0.28000509793E+03  0.10095751907E+04  0.10875923614E+04  0.80969669689E+02 0.  0.
          5    1    5    5  501    0  0.46121348426E+01 -0.14078541841E+02  0.41808759168E+02  0.44604253961E+02  0.47000000000E+01 0. -1.
        -11    1    6    6    0    0 -0.10583051641E+03  0.54279489912E+02  0.28291779874E+03  0.30690200728E+03  0.00000000000E+00 0.  1.
         12    1    6    6    0    0 -0.17462649746E+03  0.22572560802E+03  0.72665739192E+03  0.78069035408E+03  0.00000000000E+00 0. -1.
         -5    1    3    3    0  503  0.19607449285E+02 -0.93904265275E+02  0.15425288672E+03  0.18170995065E+03  0.47000000000E+01 0.  1.
         11    1    4    4    0    0  0.38950002371E+02 -0.22954657314E+02  0.22120338821E+03  0.22577634494E+03  0.00000000000E+00 0. -1.
        -12    1    4    4    0    0  0.21728742738E+03 -0.14906763350E+03  0.62737198174E+03  0.68046351036E+03  0.00000000000E+00 0.  1.
</event>
<event>
12    1  0.1050869E+000  0.4480429E+03  0.7818608E-02  0.1028379E+00
         21   -1    0    0  501  502  0.00000000000E+00  0.00000000000E+00  0.44751104761E+03  0.44751104761E+03  0.00000000000E+00 0. -1.
         21   -1    0    0  502  503 -0.00000000000E+00 -0.00000000000E+00 -0.71926818643E+03  0.71926818643E+03  0.00000000000E+00 0. -1.
         -6    2    1    2    0  503 -0.40828463303E+03 -0.65896650080E+02  0.22255213725E+03  0.50027185440E+03  0.17234780083E+03 0.  0.
        -24    2    3    3    0    0 -0.11336807069E+03 -0.14234719529E+02  0.26266701745E+02  0.14222884581E+03  0.80524271295E+02 0.  0.
          6    2    1    2  501    0  0.40828463303E+03  0.65896650080E+02 -0.49430927607E+03  0.66650737964E+03  0.16985793077E+03 0.  0.
         24    2    5    5    0    0  0.33859959744E+03  0.76331375291E+02 -0.47495742148E+03  0.59328530679E+03  0.76985302472E+02 0.  0.
          5    1    5    5  501    0  0.69685035594E+02 -0.10434725212E+02 -0.19351854585E+02  0.73222072846E+02  0.47000000000E+01 0. -1.
        -13    1    6    6    0    0  0.18366234917E+03  0.31220285783E+02 -0.31565357042E+03  0.36652931843E+03  0.00000000000E+00 0.  1.
         14    1    6    6    0    0  0.15493724827E+03  0.45111089508E+02 -0.15930385107E+03  0.22675598837E+03  0.00000000000E+00 0. -1.
         -5    1    3    3    0  503 -0.29491656234E+03 -0.51661930551E+02  0.19628543551E+03  0.35804300860E+03  0.47000000000E+01 0.  1.
         13    1    4    4    0    0 -0.81638147077E+02  0.56978116201E+01 -0.18447032438E+02  0.83890077609E+02  0.00000000000E+00 0. -1.
        -14    1    4    4    0    0 -0.31729923611E+02 -0.19932531149E+02  0.44713734183E+02  0.58338768199E+02  0.00000000000E+00 0.  1.
</event>
<event>
12    1  0.1050869E+000  0.7174607E+03  0.7818608E-02  0.9687863E-01
         21   -1    0    0  501  502  0.00000000000E+00  0.00000000000E+00  0.23483017053E+04  0.23483017053E+04  0.00000000000E+00 0.  1.
         21   -1    0    0  502  503 -0.00000000000E+00 -0.00000000000E+00 -0.21982351687E+03  0.21982351687E+03  0.00000000000E+00 0.  1.
         -6    2    1    2    0  503 -0.37756314638E+03  0.58525756240E+03  0.99463020707E+03  0.12263927370E+04  0.17224852047E+03 0.  0.
        -24    2    3    3    0    0 -0.24208626578E+03  0.27638416031E+03  0.59082402956E+03  0.70023849854E+03  0.79164112995E+02 0.  0.
          6    2    1    2  501    0  0.37756314638E+03 -0.58525756240E+03  0.11338479814E+04  0.13417324851E+04  0.17191414416E+03 0.  0.
         24    2    5    5    0    0  0.13859349017E+03 -0.15614402744E+03  0.32653872116E+03  0.39673764171E+03  0.84759112274E+02 0.  0.
          5    1    5    5  501    0  0.23896965621E+03 -0.42911353496E+03  0.80730926020E+03  0.94499484342E+03  0.47000000000E+01 0. -1.
        -11    1    6    6    0    0  0.12929444607E+03 -0.12905713221E+03  0.21769804720E+03  0.28419225344E+03  0.00000000000E+00 0.  1.
         12    1    6    6    0    0  0.92990440944E+01 -0.27086895232E+02  0.10884067395E+03  0.11254538827E+03  0.00000000000E+00 0. -1.
         -5    1    3    3    0  503 -0.13547688060E+03  0.30887340209E+03  0.40380617752E+03  0.52615423850E+03  0.47000000000E+01 0.  1.
         11    1    4    4    0    0 -0.23720443336E+03  0.27713651746E+03  0.59180696265E+03  0.69520218178E+03  0.00000000000E+00 0. -1.
        -12    1    4    4    0    0 -0.48818324211E+01 -0.75235714977E+00 -0.98293308772E+00  0.50363167617E+01  0.00000000000E+00 0.  1.
</event>
<event>
12    1  0.1050869E+000  0.2130720E+03  0.7818608E-02  0.1139222E+00
         21   -1    0    0  503  502  0.00000000000E+00  0.00000000000E+00  0.28500757485E+03  0.28500757485E+03  0.00000000000E+00 0. -1.
         21   -1    0    0  501  503 -0.00000000000E+00 -0.00000000000E+00 -0.16194810006E+03  0.16194810006E+03  0.00000000000E+00 0. -1.
          6    2    1    2  501    0 -0.69404397366E+02 -0.10441421889E+03  0.91435433661E+02  0.23154960951E+03  0.17185890624E+03 0.  0.
         24    2    3    3    0    0 -0.93713644779E+01 -0.12137962837E+03  0.85795929083E+02  0.16873492835E+03  0.79307615913E+02 0.  0.
         -6    2    1    2    0  502  0.69404397366E+02  0.10441421889E+03  0.31624041135E+02  0.21540606540E+03  0.17227998594E+03 0.  0.
        -24    2    5    5    0    0  0.75895705766E+02  0.33575587494E+02 -0.32362139699E+02  0.11961164949E+03  0.79825812732E+02 0.  0.
          5    1    3    3  501    0 -0.60033032888E+02  0.16965409484E+02  0.56395045779E+01  0.62814681155E+02  0.47000000000E+01 0. -1.
        -11    1    4    4    0    0 -0.24458700779E+02 -0.46129419026E+02 -0.18379968897E+01  0.52244900000E+02  0.00000000000E+00 0.  1.
         12    1    4    4    0    0  0.15087336301E+02 -0.75250209349E+02  0.87633925973E+02  0.11649002835E+03  0.00000000000E+00 0. -1.
         -5    1    5    5    0  502 -0.64913083994E+01  0.70838631396E+02  0.63986180833E+02  0.95794415915E+02  0.47000000000E+01 0.  1.
         11    1    6    6    0    0 -0.78018597640E+01  0.80993380336E+01 -0.30057420763E+02  0.32092317387E+02  0.00000000000E+00 0. -1.
        -12    1    6    6    0    0  0.83697565530E+02  0.25476249460E+02 -0.23047189358E+01  0.87519332102E+02  0.00000000000E+00 0.  1.
</event>
<event>
12    1  0.1050869E+000  0.2593613E+03  0.7818608E-02  0.1107800E+00
         21   -1    0    0  503  502  0.00000000000E+00  0.00000000000E+00  0.73469557827E+03  0.73469557827E+03  0.00000000000E+00 0. -1.
         21   -1    0    0  501  503 -0.00000000000E+00 -0.00000000000E+00 -0.10553793440E+03  0.10553793440E+03  0.00000000000E+00 0. -1.
          6    2    1    2  501    0 -0.14222167851E+03 -0.13197395076E+03  0.46996636579E+03  0.53591434722E+03  0.16938616551E+03 0.  0.
         24    2    3    3    0    0 -0.68075823097E+02 -0.81826595365E+02  0.40019888000E+03  0.42232756453E+03  0.82894624746E+02 0.  0.
         -6    2    1    2    0  502  0.14222167851E+03  0.13197395076E+03  0.15919127808E+03  0.30431916545E+03  0.17211671018E+03 0.  0.
        -24    2    5    5    0    0  0.82597034643E+02  0.46734005682E+01  0.50188295673E+02  0.12637459990E+03  0.81286921900E+02 0.  0.
          5    1    3    3  501    0 -0.74145855414E+02 -0.50147355391E+02  0.69767485786E+02  0.11358678268E+03  0.47000000000E+01 0. -1.
        -13    1    4    4    0    0 -0.54468253703E+02 -0.96951317990E+02  0.29686184985E+03  0.31700679270E+03  0.00000000000E+00 0.  1.
         14    1    4    4    0    0 -0.13607569394E+02  0.15124722625E+02  0.10333703016E+03  0.10532077184E+03  0.00000000000E+00 0. -1.
         -5    1    5    5    0  502  0.59624643868E+02  0.12730055019E+03  0.10900298241E+03  0.17794456555E+03  0.47000000000E+01 0.  1.
         13    1    6    6    0    0 -0.64214554193E+01 -0.14340383170E+02  0.28895054249E+02  0.32890816944E+02  0.00000000000E+00 0. -1.
        -14    1    6    6    0    0  0.89018490063E+02  0.19013783738E+02  0.21293241424E+02  0.93483782954E+02  0.00000000000E+00 0.  1.
</event>
<event>
12    1  0.1050869E+000  0.4021266E+03  0.7818608E-02  0.1043122E+00
         21   -1    0    0  501  502  0.00000000000E+00  0.00000000000E+00  0.95328973027E+03  0.95328973027E+03  0.00000000000E+00 0. -1.
         21   -1    0    0  502  503 -0.00000000000E+00 -0.00000000000E+00 -0.17118163444E+03  0.17118163444E+03  0.00000000000E+00 0. -1.
         -6    2    1    2    0  503 -0.34713090474E+03 -0.10498522164E+03  0.33185153494E+03  0.52137435304E+03  0.17373546842E+03 0.  0.
        -24    2    3    3    0    0 -0.22275267090E+03  0.36464698709E+01  0.19934400044E+03  0.30959350841E+03  0.80486401381E+02 0.  0.
          6    2    1    2  501    0  0.34713090474E+03  0.10498522164E+03  0.45025656090E+03  0.60309701167E+03  0.17167781762E+03 0.  0.
         24    2    5    5    0    0  0.81327395168E+02  0.11924942897E+02  0.17357549720E+03  0.20827271887E+03  0.80577433108E+02 0.  0.
          5    1    5    5  501    0  0.26580350957E+03  0.93060278743E+02  0.27668106369E+03  0.39482429280E+03  0.47000000000E+01 0. -1.
        -11    1    6    6    0    0  0.71688676498E+02  0.31416370258E+02  0.78918485193E+02  0.11115026749E+03  0.00000000000E+00 0.  1.
         12    1    6    6    0    0  0.96387186697E+01 -0.19491427361E+02  0.94657012011E+02  0.97122451374E+02  0.00000000000E+00 0. -1.
         -5    1    3    3    0  503 -0.12437823384E+03 -0.10863169151E+03  0.13250753450E+03  0.21178084463E+03  0.47000000000E+01 0.  1.
         13    1    4    4    0    0 -0.62480804396E+02 -0.29182325634E+02  0.33608873166E+02  0.76713854048E+02  0.00000000000E+00 0. -1.
        -14    1    4    4    0    0 -0.16027186650E+03  0.32828795505E+02  0.16573512727E+03  0.23287965437E+03  0.00000000000E+00 0.  1.
</event>
<event>
12    1  0.1050869E+000  0.2917147E+03  0.7818608E-02  0.1089843E+00
         21   -1    0    0  501  502  0.00000000000E+00  0.00000000000E+00  0.13176648874E+04  0.13176648874E+04  0.00000000000E+00 0.  1.
         21   -1    0    0  502  503 -0.00000000000E+00 -0.00000000000E+00 -0.66446573485E+02  0.66446573485E+02  0.00000000000E+00 0.  1.
         -6    2    1    2    0  503 -0.14482973549E+03 -0.18503792570E+03  0.49393674058E+03  0.57364707393E+03  0.17286635159E+03 0.  0.
        -24    2    3    3    0    0 -0.58191583670E+02 -0.17825067451E+03  0.32350958858E+03  0.38228422418E+03  0.79518619060E+02 0.  0.
          6    2    1    2  501    0  0.14482973549E+03  0.18503792570E+03  0.75728157334E+03  0.81046438695E+03  0.16781673029E+03 0.  0.
         24    2    5    5    0    0  0.43969398766E+02  0.15163704086E+03  0.39524427685E+03  0.43312962751E+03  0.80350081873E+02 0.  0.
          5    1    5    5  501    0  0.10086033673E+03  0.33400884846E+02  0.36203729648E+03  0.37733475943E+03  0.47000000000E+01 0. -1.
        -11    1    6    6    0    0  0.59999308530E+02  0.63110945703E+02  0.18686094175E+03  0.20615508735E+03  0.00000000000E+00 0.  1.
         12    1    6    6    0    0 -0.16029909765E+02  0.88526095153E+02  0.20838333511E+03  0.22697454016E+03  0.00000000000E+00 0. -1.
         -5    1    3    3    0  503 -0.86638151821E+02 -0.67872511899E+01  0.17042715199E+03  0.19136284976E+03  0.47000000000E+01 0.  1.
         11    1    4    4    0    0 -0.57196132798E-01 -0.38812480276E+02  0.20950774733E+02  0.44106086411E+02  0.00000000000E+00 0. -1.
        -12    1    4    4    0    0 -0.58134387537E+02 -0.13943819424E+03  0.30255881385E+03  0.33817813777E+03  0.00000000000E+00 0.  1.
</event>
<event>
12    1  0.1050869E+000  0.2167645E+03  0.7818608E-02  0.1136427E+00
         21   -1    0    0  503  502  0.00000000000E+00  0.00000000000E+00  0.45642998786E+03  0.45642998786E+03  0.00000000000E+00 0. -1.
         21   -1    0    0  501  503 -0.00000000000E+00 -0.00000000000E+00 -0.13919117910E+03  0.13919117910E+03  0.00000000000E+00 0. -1.
          6    2    1    2  501    0  0.47925684514E+01 -0.13192852118E+03  0.62320891247E+01  0.21685402216E+03  0.17192650924E+03 0.  0.
         24    2    3    3    0    0  0.80188265647E+01 -0.15182613161E+03  0.40858733901E+02  0.17651275085E+03  0.79823801325E+02 0.  0.
         -6    2    1    2    0  502 -0.47925684514E+01  0.13192852118E+03  0.31100671963E+03  0.37876714480E+03  0.17120533552E+03 0.  0.
        -24    2    5    5    0    0  0.27328904216E+01  0.61801650455E+02  0.57947959869E+02  0.11602157125E+03  0.79222006114E+02 0.  0.
          5    1    3    3  501    0 -0.32262581133E+01  0.19897610434E+02 -0.34626644776E+02  0.40341271309E+02  0.47000000000E+01 0. -1.
        -11    1    4    4    0    0  0.27023181899E+02 -0.11385641217E+02  0.13017898416E+02  0.32083498329E+02  0.00000000000E+00 0.  1.
         12    1    4    4    0    0 -0.19004355334E+02 -0.14044049040E+03  0.27840835485E+02  0.14442925253E+03  0.00000000000E+00 0. -1.
         -5    1    5    5    0  502 -0.75254588731E+01  0.70126870725E+02  0.25305875976E+03  0.26274557355E+03  0.47000000000E+01 0.  1.
         13    1    6    6    0    0 -0.77604912151E+01 -0.12321423145E+02  0.34701921993E+02  0.37633310806E+02  0.00000000000E+00 0. -1.
        -14    1    6    6    0    0  0.10493381637E+02  0.74123073600E+02  0.23246037876E+02  0.78388260441E+02  0.00000000000E+00 0.  1.
</event>
<event>
12    1  0.1050869E+000  0.2362595E+03  0.7818608E-02  0.1122451E+00
         21   -1    0    0  503  502  0.00000000000E+00  0.00000000000E+00  0.65312955781E+03  0.65312955781E+03  0.00000000000E+00 0. -1.
         21   -1    0    0  501  503 -0.00000000000E+00 -0.00000000000E+00 -0.85235114370E+02  0.85235114370E+02  0.00000000000E+00 0. -1.
          6    2    1    2  501    0 -0.16038548530E+03 -0.46907000517E+01  0.27280559521E+03  0.36034882387E+03  0.17228718908E+03 0.  0.
         24    2    3    3    0    0 -0.17910069613E+03 -0.31619087525E+02  0.25020688169E+03  0.32024659174E+03  0.82931114930E+02 0.  0.
         -6    2    1    2    0  502  0.16038548530E+03  0.46907000517E+01  0.29508884823E+03  0.37801584831E+03  0.17341582012E+03 0.  0.
        -24    2    5    5    0    0  0.77789805710E+02 -0.25616132393E+02  0.25756889041E+03  0.28225370750E+03  0.81350980198E+02 0.  0.
          5    1    3    3  501    0  0.18715210838E+02  0.26928387473E+02  0.22598713522E+02  0.40102232126E+02  0.47000000000E+01 0. -1.
        -11    1    4    4    0    0 -0.61317389088E+02  0.28248745401E+02  0.77150053056E+02  0.10251802041E+03  0.00000000000E+00 0.  1.
         12    1    4    4    0    0 -0.11778330705E+03 -0.59867832926E+02  0.17305682864E+03  0.21772857134E+03  0.00000000000E+00 0. -1.
         -5    1    5    5    0  502  0.82595679586E+02  0.30306832444E+02  0.37519957818E+02  0.95762140816E+02  0.47000000000E+01 0.  1.
         11    1    6    6    0    0  0.26883834078E+02 -0.36173222976E+02  0.46032460409E+02  0.64422278805E+02  0.00000000000E+00 0. -1.
        -12    1    6    6    0    0  0.50905971632E+02  0.10557090583E+02  0.21153643000E+03  0.21783142869E+03  0.00000000000E+00 0.  1.
</event>
<event>
12    1  0.1050869E+000  0.2073542E+03  0.7818608E-02  0.1144299E+00
         21   -1    0    0  503  502  0.00000000000E+00  0.00000000000E+00  0.12718013243E+03  0.12718013243E+03  0.00000000000E+00 0.  1.
         21   -1    0    0  501  503 -0.00000000000E+00 -0.00000000000E+00 -0.34223967827E+03  0.34223967827E+03  0.00000000000E+00 0.  1.
          6    2    1    2  501    0 -0.11054380409E+03  0.10834838820E+02 -0.14666693669E+03  0.25398216021E+03  0.17509546264E+03 0.  0.
         24    2    3    3    0    0 -0.11597110067E+03  0.11120383728E+02 -0.38883618575E+02  0.14595961281E+03  0.78862625205E+02 0.  0.
         -6    2    1    2    0  502  0.11054380409E+03 -0.10834838820E+02 -0.68392609156E+02  0.21543765048E+03  0.17145992506E+03 0.  0.
        -24    2    5    5    0    0 -0.32628954366E+01 -0.14542079349E+01 -0.63551348779E+02  0.10104582868E+03  0.78477540446E+02 0.  0.
          5    1    3    3  501    0  0.54272965833E+01 -0.28554490753E+00 -0.10778331811E+03  0.10802254740E+03  0.47000000000E+01 0. -1.
        -13    1    4    4    0    0  0.11772522983E+02 -0.27254369538E+01 -0.17520231270E+01  0.12210237058E+02  0.00000000000E+00 0.  1.
         14    1    4    4    0    0 -0.12774362365E+03  0.13845820681E+02 -0.37131595448E+02  0.13374937576E+03  0.00000000000E+00 0. -1.
         -5    1    5    5    0  502  0.11380669952E+03 -0.93806308852E+01 -0.48412603770E+01  0.11439182180E+03  0.47000000000E+01 0.  1.
         13    1    6    6    0    0 -0.37568270374E+02  0.64330515081E+01 -0.14739977720E+02  0.40865952011E+02  0.00000000000E+00 0. -1.
        -14    1    6    6    0    0  0.34305374937E+02 -0.78872594429E+01 -0.48811371060E+02  0.60179876668E+02  0.00000000000E+00 0.  1.
</event>
<event>
12    1  0.1050869E+000  0.1973201E+03  0.7818608E-02  0.1152497E+00
         21   -1    0    0  503  502  0.00000000000E+00  0.00000000000E+00  0.82611663700E+03  0.82611663700E+03  0.00000000000E+00 0. -1.
         21   -1    0    0  501  503 -0.00000000000E+00 -0.00000000000E+00 -0.68374972836E+02  0.68374972836E+02  0.00000000000E+00 0. -1.
          6    2    1    2  501    0 -0.53033857471E+01 -0.94582538322E+02  0.62978231365E+03  0.65931332067E+03  0.17057054193E+03 0.  0.
         24    2    3    3    0    0 -0.33607548312E+01  0.18255234416E+02  0.29688073635E+03  0.30777144985E+03  0.78997123181E+02 0.  0.
         -6    2    1    2    0  502  0.53033857471E+01  0.94582538322E+02  0.12795935052E+03  0.23517828917E+03  0.17309318258E+03 0.  0.
        -24    2    5    5    0    0 -0.55888835392E+02  0.87907376504E+02  0.62859221274E+02  0.14546116404E+03  0.79727032933E+02 0.  0.
          5    1    3    3  501    0 -0.19426309159E+01 -0.11283777274E+03  0.33290157730E+03  0.35154187082E+03  0.47000000000E+01 0. -1.
        -13    1    4    4    0    0 -0.39566954879E+02  0.25204500357E+01  0.18289736511E+03  0.18714524507E+03  0.00000000000E+00 0.  1.
         14    1    4    4    0    0  0.36206200048E+02  0.15734784381E+02  0.11398337124E+03  0.12062620478E+03  0.00000000000E+00 0. -1.
         -5    1    5    5    0  502  0.61192221139E+02  0.66751618174E+01  0.65100129242E+02  0.89717125124E+02  0.47000000000E+01 0.  1.
         13    1    6    6    0    0 -0.60331317036E+02  0.89876806734E+02  0.75461063770E+02  0.13195484208E+03  0.00000000000E+00 0. -1.
        -14    1    6    6    0    0  0.44424816439E+01 -0.19694302302E+01 -0.12601842496E+02  0.13506321959E+02  0.00000000000E+00 0.  1.
</event>
<event>
12    1  0.1050869E+000  0.2570929E+03  0.7818608E-02  0.1109156E+00
         21   -1    0    0  503  502  0.00000000000E+00  0.00000000000E+00  0.47486826068E+02  0.47486826068E+02  0.00000000000E+00 0.  1.
         21   -1    0    0  501  503 -0.00000000000E+00 -0.00000000000E+00 -0.16041751091E+04  0.16041751091E+04  0.00000000000E+00 0.  1.
          6    2    1    2  501    0  0.18362105624E+03  0.40389484954E+02 -0.47383378439E+03  0.53908739372E+03  0.17535324362E+03 0.  0.
         24    2    3    3    0    0  0.10195830353E+03 -0.34975321208E+02 -0.17104141704E+03  0.21651342249E+03  0.77486302166E+02 0.  0.
         -6    2    1    2    0  502 -0.18362105624E+03 -0.40389484954E+02 -0.10828544987E+04  0.11125745415E+04  0.17291686516E+03 0.  0.
        -24    2    5    5    0    0 -0.14936492843E+03  0.12024368338E+02 -0.95648438607E+03  0.97146398316E+03  0.80158733175E+02 0.  0.
          5    1    3    3  501    0  0.81662752711E+02  0.75364806161E+02 -0.30279236735E+03  0.32257397123E+03  0.47000000000E+01 0. -1.
        -13    1    4    4    0    0  0.23543881715E+02 -0.20680378082E+02 -0.11470187525E+03  0.11890547754E+03  0.00000000000E+00 0.  1.
         14    1    4    4    0    0  0.78414421819E+02 -0.14294943125E+02 -0.56339541788E+02  0.97607944948E+02  0.00000000000E+00 0. -1.
         -5    1    5    5    0  502 -0.34256127817E+02 -0.52413853292E+02 -0.12637011262E+03  0.14111055834E+03  0.47000000000E+01 0.  1.
         11    1    6    6    0    0 -0.78631936410E+02 -0.33485139340E+02 -0.51396885702E+03  0.52102612407E+03  0.00000000000E+00 0. -1.
        -12    1    6    6    0    0 -0.70732992018E+02  0.45509507678E+02 -0.44251552905E+03  0.45043785908E+03  0.00000000000E+00 0.  1.
</event>
<event>
12    1  0.1050869E+000  0.1849308E+03  0.7818608E-02  0.1163323E+00
         21   -1    0    0  503  502  0.00000000000E+00  0.00000000000E+00  0.55092541240E+03  0.55092541240E+03  0.00000000000E+00 0.  1.
         21   -1    0    0  501  503 -0.00000000000E+00 -0.00000000000E+00 -0.71345076759E+02  0.71345076759E+02  0.00000000000E+00 0.  1.
          6    2    1    2  501    0 -0.54238448444E+02 -0.33963820822E+02  0.35422757073E+03  0.39959549161E+03  0.17350514296E+03 0.  0.
         24    2    3    3    0    0 -0.58964072651E+02 -0.18602807077E+02  0.89984146684E+02  0.13482206126E+03  0.79101297419E+02 0.  0.
         -6    2    1    2    0  502  0.54238448444E+02  0.33963820822E+02  0.12535276491E+03  0.22267499755E+03  0.17255575461E+03 0.  0.
        -24    2    5    5    0    0 -0.23612755235E+02  0.47562975757E+02  0.10270377414E+03  0.14032930117E+03  0.79526402362E+02 0.  0.
          5    1    3    3  501    0  0.47256242068E+01 -0.15361013745E+02  0.26424342404E+03  0.26477343035E+03  0.47000000000E+01 0. -1.
        -13    1    4    4    0    0  0.10940564314E+02  0.88902948934E+01 -0.38607949288E+01  0.14616395872E+02  0.00000000000E+00 0.  1.
         14    1    4    4    0    0 -0.69904636965E+02 -0.27493101970E+02  0.93844941613E+02  0.12020566539E+03  0.00000000000E+00 0. -1.
         -5    1    5    5    0  502  0.77851203680E+02 -0.13599154936E+02  0.22648990776E+02  0.82345696381E+02  0.47000000000E+01 0.  1.
         11    1    6    6    0    0  0.16363399108E+02  0.50014207244E+02  0.75041794011E+02  0.91653983028E+02  0.00000000000E+00 0. -1.
        -12    1    6    6    0    0 -0.39976154343E+02 -0.24512314862E+01  0.27661980127E+02  0.48675318144E+02  0.00000000000E+00 0.  1.
</event>
<event>
12    1  0.1050869E+000  0.2389002E+03  0.7818608E-02  0.1120840E+00
         21   -1    0    0  503  502  0.00000000000E+00  0.00000000000E+00  0.15120238446E+03  0.15120238446E+03  0.00000000000E+00 0.  1.
         21   -1    0    0  501  503 -0.00000000000E+00 -0.00000000000E+00 -0.49561500808E+03  0.49561500808E+03  0.00000000000E+00 0.  1.
          6    2    1    2  501    0 -0.72205847040E+02 -0.14623905894E+03 -0.12865178074E+02  0.23924635540E+03  0.17456734820E+03 0.  0.
         24    2    3    3    0    0 -0.70602884679E+02 -0.65486340377E+02  0.52615064063E+02  0.13516310433E+03  0.78914458140E+02 0.  0.
         -6    2    1    2    0  502  0.72205847040E+02  0.14623905894E+03 -0.33154744555E+03  0.40757103715E+03  0.17202004233E+03 0.  0.
        -24    2    5    5    0    0  0.13247451580E+02  0.59493094497E+02 -0.60802679670E+02  0.11718203427E+03  0.79496792601E+02 0.  0.
          5    1    3    3  501    0 -0.16029623609E+01 -0.80752718560E+02 -0.65480242137E+02  0.10408325107E+03  0.47000000000E+01 0. -1.
        -11    1    4    4    0    0 -0.43451214352E+02 -0.80293030239E+02  0.27572509143E+02  0.95368873298E+02  0.00000000000E+00 0.  1.
         12    1    4    4    0    0 -0.27151670326E+02  0.14806689861E+02  0.25042554920E+02  0.39794231028E+02  0.00000000000E+00 0. -1.
         -5    1    5    5    0  502  0.58958395459E+02  0.86745964441E+02 -0.27074476588E+03  0.29038900288E+03  0.47000000000E+01 0.  1.
         11    1    6    6    0    0 -0.19301761597E+02  0.58543569764E+02 -0.19639758339E+02  0.64696427019E+02  0.00000000000E+00 0. -1.
        -12    1    6    6    0    0  0.32549213177E+02  0.94952473289E+00 -0.41162921331E+02  0.52485607248E+02  0.00000000000E+00 0.  1.
</event>
<event>
12    1  0.1050869E+000  0.3374914E+03  0.7818608E-02  0.1067913E+00
         21   -1    0    0  503  502  0.00000000000E+00  0.00000000000E+00  0.87452047445E+03  0.87452047445E+03  0.00000000000E+00 0.  1.
         21   -1    0    0  501  503 -0.00000000000E+00 -0.00000000000E+00 -0.13948160115E+03  0.13948160115E+03  0.00000000000E+00 0.  1.
          6    2    1    2  501    0  0.46938351599E+02  0.28518466520E+03  0.23614834716E+03  0.41190594658E+03  0.17426119719E+03 0.  0.
         24    2    3    3    0    0  0.89292665878E+02  0.21951735197E+03  0.13490666487E+03  0.28392918228E+03  0.79088079595E+02 0.  0.
         -6    2    1    2    0  502 -0.46938351599E+02 -0.28518466520E+03  0.49889052614E+03  0.60209612902E+03  0.17347763368E+03 0.  0.
        -24    2    5    5    0    0 -0.46076290612E+02 -0.20810719348E+03  0.46595721487E+03  0.51814154137E+03  0.76960394157E+02 0.  0.
          5    1    3    3  501    0 -0.42354314280E+02  0.65667313238E+02  0.10124168229E+03  0.12797676430E+03  0.47000000000E+01 0. -1.
        -13    1    4    4    0    0  0.44676907296E+02  0.63920514058E+02  0.83126167011E+02  0.11398165556E+03  0.00000000000E+00 0.  1.
         14    1    4    4    0    0  0.44615758582E+02  0.15559683791E+03  0.51780497855E+02  0.16994752672E+03  0.00000000000E+00 0. -1.
         -5    1    5    5    0  502 -0.86206098679E+00 -0.77077471720E+02  0.32933311274E+02  0.83954587649E+02  0.47000000000E+01 0.  1.
         11    1    6    6    0    0 -0.46883214636E+01 -0.38816534681E+02  0.17215763379E+03  0.17654165116E+03  0.00000000000E+00 0. -1.
        -12    1    6    6    0    0 -0.41387969148E+02 -0.16929065880E+03  0.29379958108E+03  0.34159989021E+03  0.00000000000E+00 0.  1.
</event>
<event>
12    1  0.1050869E+000  0.4990238E+03  0.7818608E-02  0.1014157E+00
         21   -1    0    0  501  502  0.00000000000E+00  0.00000000000E+00  0.48261308482E+03  0.48261308482E+03  0.00000000000E+00 0. -1.
         21   -1    0    0  502  503 -0.00000000000E+00 -0.00000000000E+00 -0.54409569725E+03  0.54409569725E+03  0.00000000000E+00 0.  1.
         -6    2    1    2    0  503  0.15469579973E+03  0.44036374815E+03  0.89934414820E+02  0.50521871435E+03  0.17119208282E+03 0.  0.
        -24    2    3    3    0    0  0.15517656754E+03  0.25084476821E+03  0.35168725874E+02  0.30788892546E+03  0.80968427755E+02 0.  0.
          6    2    1    2  501    0 -0.15469579973E+03 -0.44036374815E+03 -0.15141702725E+03  0.52149006772E+03  0.17656090579E+03 0.  0.
         24    2    5    5    0    0 -0.15911615215E+03 -0.27664448475E+03 -0.61253222041E+02  0.33447365536E+03  0.79186792456E+02 0.  0.
          5    1    5    5  501    0  0.44203524255E+01 -0.16371926340E+03 -0.90163805210E+02  0.18701641236E+03  0.47000000000E+01 0. -1.
        -13    1    6    6    0    0 -0.15958523594E+03 -0.28125320221E+03 -0.57359017080E+02  0.32842178387E+03  0.00000000000E+00 0.  1.
         14    1    6    6    0    0  0.46908378609E+00  0.46087174572E+01 -0.38942049611E+01  0.60518714856E+01  0.00000000000E+00 0. -1.
         -5    1    3    3    0  503 -0.48076780957E+00  0.18951897994E+03  0.54765688946E+02  0.19732978888E+03  0.47000000000E+01 0.  1.
         11    1    4    4    0    0  0.72310377683E+02  0.10638431331E+03 -0.24570395412E+02  0.13095845589E+03  0.00000000000E+00 0. -1.
        -12    1    4    4    0    0  0.82866189853E+02  0.14446045490E+03  0.59739121286E+02  0.17693046957E+03  0.00000000000E+00 0.  1.
</event>
<event>
12    1  0.1050869E+000  0.2490409E+03  0.7818608E-02  0.1114251E+00
         21   -1    0    0  501  502  0.00000000000E+00  0.00000000000E+00  0.25757995427E+03  0.25757995427E+03  0.00000000000E+00 0. -1.
         21   -1    0    0  502  503 -0.00000000000E+00 -0.00000000000E+00 -0.26340644300E+03  0.26340644300E+03  0.00000000000E+00 0. -1.
         -6    2    1    2    0  503  0.17243230548E+03 -0.49336097803E+02  0.76811554775E+02  0.25859279228E+03  0.16971525197E+03 0.  0.
        -24    2    3    3    0    0  0.97688242481E+02  0.36679315290E+02  0.35954516948E+02  0.13744530455E+03  0.81915319476E+02 0.  0.
          6    2    1    2  501    0 -0.17243230548E+03  0.49336097803E+02 -0.82638043510E+02  0.26239360500E+03  0.17278427935E+03 0.  0.
         24    2    5    5    0    0 -0.12812425904E+03  0.96978340827E+02 -0.40131573571E+02  0.18453555283E+03  0.81376917608E+02 0.  0.
          5    1    5    5  501    0 -0.44308046439E+02 -0.47642243024E+02 -0.42506469939E+02  0.77858052160E+02  0.47000000000E+01 0. -1.
        -11    1    6    6    0    0 -0.13910883754E+03  0.81817538854E+02 -0.35330342944E+02  0.16520778274E+03  0.00000000000E+00 0.  1.
         12    1    6    6    0    0  0.10984578501E+02  0.15160801973E+02 -0.48012306271E+01  0.19327770095E+02  0.00000000000E+00 0. -1.
         -5    1    3    3    0  503  0.74744062995E+02 -0.86015413093E+02  0.40857037827E+02  0.12114748773E+03  0.47000000000E+01 0.  1.
         11    1    4    4    0    0 -0.22678287690E+01  0.13537966067E+02  0.31942521514E+02  0.34766999486E+02  0.00000000000E+00 0. -1.
        -12    1    4    4    0    0  0.99956071250E+02  0.23141349223E+02  0.40119954338E+01  0.10267830506E+03  0.00000000000E+00 0.  1.
</event>
<event>
12    1  0.1050869E+000  0.1938482E+03  0.7818608E-02  0.1155325E+00
         21   -1    0    0  501  502  0.00000000000E+00  0.00000000000E+00  0.91461254528E+02  0.91461254528E+02  0.00000000000E+00 0.  1.
         21   -1    0    0  502  503 -0.00000000000E+00 -0.00000000000E+00 -0.41367235275E+03  0.41367235275E+03  0.00000000000E+00 0. -1.
         -6    2    1    2    0  503 -0.68641478250E+02  0.56115851794E+02 -0.13226207651E+03  0.23467079913E+03  0.17238470268E+03 0.  0.
        -24    2    3    3    0    0 -0.64456476484E+00 -0.29557318025E+02 -0.54879819725E+02  0.10060523332E+03  0.78965611786E+02 0.  0.
          6    2    1    2  501    0  0.68641478250E+02 -0.56115851794E+02 -0.18994902171E+03  0.27046280816E+03  0.17090599284E+03 0.  0.
         24    2    5    5    0    0  0.28608407693E+02  0.19076613229E+02 -0.37055788096E+02  0.95377159344E+02  0.80878383577E+02 0.  0.
          5    1    5    5  501    0  0.40033070558E+02 -0.75192465023E+02 -0.15289323362E+03  0.17508564881E+03  0.47000000000E+01 0. -1.
        -13    1    6    6    0    0  0.52969246508E+02  0.28084834962E+02 -0.34762259991E+02  0.69303057293E+02  0.00000000000E+00 0.  1.
         14    1    6    6    0    0 -0.24360838815E+02 -0.90082217328E+01 -0.22935281050E+01  0.26074102051E+02  0.00000000000E+00 0. -1.
         -5    1    3    3    0  503 -0.67996913486E+02  0.85673169819E+02 -0.77382256789E+02  0.13406556581E+03  0.47000000000E+01 0.  1.
         11    1    4    4    0    0  0.80891904701E+01  0.23144033239E+02 -0.36779452029E+02  0.44201915893E+02  0.00000000000E+00 0. -1.
        -12    1    4    4    0    0 -0.87337552350E+01 -0.52701351264E+02 -0.18100367696E+02  0.56403317423E+02  0.00000000000E+00 0.  1.
</event>
<event>
12    1  0.1050869E+000  0.2505868E+03  0.7818608E-02  0.1113102E+00
         21   -1    0    0  503  502  0.00000000000E+00  0.00000000000E+00  0.10554723858E+03  0.10554723858E+03  0.00000000000E+00 0. -1.
         21   -1    0    0  501  503 -0.00000000000E+00 -0.00000000000E+00 -0.11171612646E+04  0.11171612646E+04  0.00000000000E+00 0. -1.
          6    2    1    2  501    0  0.22123334788E+02  0.18104049828E+03 -0.86246525175E+02  0.26401211102E+03  0.17029042163E+03 0.  0.
         24    2    3    3    0    0  0.67876093961E+01  0.14920224924E+03 -0.12533280900E+03  0.21110950088E+03  0.80941494496E+02 0.  0.
         -6    2    1    2    0  502 -0.22123334788E+02 -0.18104049828E+03 -0.92536750087E+03  0.95869639219E+03  0.17183904319E+03 0.  0.
        -24    2    5    5    0    0  0.18400801284E+02 -0.11835538201E+03 -0.79780407439E+03  0.81082432863E+03  0.81229088638E+02 0.  0.
          5    1    3    3  501    0  0.15335725391E+02  0.31838249042E+02  0.39086283830E+02  0.52902610134E+02  0.47000000000E+01 0. -1.
        -13    1    4    4    0    0  0.25548039943E+02  0.14872745369E+03 -0.11462447404E+03  0.18950284398E+03  0.00000000000E+00 0.  1.
         14    1    4    4    0    0 -0.18760430547E+02  0.47479555245E+00 -0.10708334962E+02  0.21606656909E+02  0.00000000000E+00 0. -1.
         -5    1    5    5    0  502 -0.40524136072E+02 -0.62685116267E+02 -0.12756342648E+03  0.14787206356E+03  0.47000000000E+01 0.  1.
         11    1    6    6    0    0  0.36841626437E+02 -0.19853748137E+02 -0.17020008951E+03  0.17526992675E+03  0.00000000000E+00 0. -1.
        -12    1    6    6    0    0 -0.18440825153E+02 -0.98501633877E+02 -0.62760398488E+03  0.63555440188E+03  0.00000000000E+00 0.  1.
</event>
<event>
12    1  0.1050869E+000  0.2062788E+03  0.7818608E-02  0.1144656E+00
         21   -1    0    0  503  502  0.00000000000E+00  0.00000000000E+00  0.17473107040E+03  0.17473107040E+03  0.00000000000E+00 0. -1.
         21   -1    0    0  501  503 -0.00000000000E+00 -0.00000000000E+00 -0.43443256285E+03  0.43443256285E+03  0.00000000000E+00 0. -1.
          6    2    1    2  501    0  0.78606025700E+02  0.82161534218E+02  0.72489321068E+02  0.21813720385E+03  0.17146344524E+03 0.  0.
         24    2    3    3    0    0  0.25175676699E+02  0.92923375987E+02  0.98132061255E+02  0.15771982592E+03  0.77311535612E+02 0.  0.
         -6    2    1    2    0  502 -0.78606025700E+02 -0.82161534218E+02 -0.33219081352E+03  0.39102642939E+03  0.17210899719E+03 0.  0.
        -24    2    5    5    0    0 -0.11079940537E+03 -0.99441859919E+02 -0.28238567104E+03  0.32907753458E+03  0.79907226333E+02 0.  0.
          5    1    3    3  501    0  0.53430349001E+02 -0.10761841769E+02 -0.25642740187E+02  0.60417377938E+02  0.47000000000E+01 0. -1.
        -11    1    4    4    0    0  0.18876528308E+02  0.62184094366E+02  0.10693259628E+03  0.12513099161E+03  0.00000000000E+00 0.  1.
         12    1    4    4    0    0  0.62991483910E+01  0.30739281621E+02 -0.88005350242E+01  0.32588834311E+02  0.00000000000E+00 0. -1.
         -5    1    5    5    0  502  0.32193379674E+02  0.17280325701E+02 -0.49805142481E+02  0.61948894814E+02  0.47000000000E+01 0.  1.
         11    1    6    6    0    0 -0.44768461327E+02  0.25018996855E+01 -0.52211526483E+02  0.68822366490E+02  0.00000000000E+00 0. -1.
        -12    1    6    6    0    0 -0.66030944046E+02 -0.10194375960E+03 -0.23017414456E+03  0.26025516809E+03  0.00000000000E+00 0.  1.
</event>
<event>
12    1  0.1050869E+000  0.2104625E+03  0.7818608E-02  0.1141504E+00
         21   -1    0    0  501  502  0.00000000000E+00  0.00000000000E+00  0.62724488427E+03  0.62724488427E+03  0.00000000000E+00 0. -1.
         21   -1    0    0  502  503 -0.00000000000E+00 -0.00000000000E+00 -0.14646219008E+03  0.14646219008E+03  0.00000000000E+00 0.  1.
         -6    2    1    2    0  503  0.20044564463E+02 -0.11924008249E+03  0.52013525665E+03  0.56110172519E+03  0.17226281947E+03 0.  0.
        -24    2    3    3    0    0  0.54076438826E+02 -0.89297744066E+02  0.48942929431E+03  0.50615030823E+03  0.75820525344E+02 0.  0.
          6    2    1    2  501    0 -0.20044564463E+02  0.11924008249E+03 -0.39352562455E+02  0.21260534916E+03  0.17038905036E+03 0.  0.
         24    2    5    5    0    0 -0.30858830469E+02  0.45925319378E+02 -0.81111311872E+02  0.12741212177E+03  0.81199762831E+02 0.  0.
          5    1    5    5  501    0  0.10814266006E+02  0.73314763114E+02  0.41758749417E+02  0.85193227387E+02  0.47000000000E+01 0. -1.
        -11    1    6    6    0    0 -0.38942524549E+02  0.65960437024E+02 -0.61457016647E+02  0.98205215573E+02  0.00000000000E+00 0.  1.
         12    1    6    6    0    0  0.80836940795E+01 -0.20035117647E+02 -0.19654295225E+02  0.29206906202E+02  0.00000000000E+00 0. -1.
         -5    1    3    3    0  503 -0.34031874363E+02 -0.29942338426E+02  0.30705962339E+02  0.54951416963E+02  0.47000000000E+01 0.  1.
         11    1    4    4    0    0  0.81634560576E+01 -0.57109167451E+02  0.12803207602E+03  0.14042902660E+03  0.00000000000E+00 0. -1.
        -12    1    4    4    0    0  0.45912982768E+02 -0.32188576615E+02  0.36139721829E+03  0.36572128163E+03  0.00000000000E+00 0.  1.
</event>
<event>
12    1  0.1050869E+000  0.3582617E+03  0.7818608E-02  0.1059337E+00
         21   -1    0    0  501  502  0.00000000000E+00  0.00000000000E+00  0.94667416021E+03  0.94667416021E+03  0.00000000000E+00 0.  1.
         21   -1    0    0  502  503 -0.00000000000E+00 -0.00000000000E+00 -0.13931633132E+03  0.13931633132E+03  0.00000000000E+00 0.  1.
         -6    2    1    2    0  503 -0.24114589773E+03 -0.20170040489E+03  0.31231409815E+03  0.47528051444E+03  0.17180533806E+03 0.  0.
        -24    2    3    3    0    0 -0.16073541527E+03 -0.21018502135E+03  0.25993830958E+03  0.37882768850E+03  0.76999193916E+02 0.  0.
          6    2    1    2  501    0  0.24114589773E+03  0.20170040489E+03  0.49504373074E+03  0.61070997708E+03  0.17048162199E+03 0.  0.
         24    2    5    5    0    0  0.18197747716E+03  0.13386940932E+03  0.24162665131E+03  0.34174110881E+03  0.85829632890E+02 0.  0.
          5    1    5    5  501    0  0.59168420566E+02  0.67830995575E+02  0.25341707943E+03  0.26896886827E+03  0.47000000000E+01 0. -1.
        -13    1    6    6    0    0  0.87624466313E+01  0.11513310161E+02 -0.60447279413E+01  0.15680418289E+02  0.00000000000E+00 0.  1.
         14    1    6    6    0    0  0.17321503053E+03  0.12235609915E+03  0.24767137926E+03  0.32606069052E+03  0.00000000000E+00 0. -1.
         -5    1    3    3    0  503 -0.80410482456E+02  0.84846164557E+01  0.52375788565E+02  0.96452825946E+02  0.47000000000E+01 0.  1.
         11    1    4    4    0    0 -0.50686976998E+02 -0.35426550599E+02  0.26873383011E+02  0.67426914796E+02  0.00000000000E+00 0. -1.
        -12    1    4    4    0    0 -0.11004843827E+03 -0.17475847075E+03  0.23306492657E+03  0.31140077370E+03  0.00000000000E+00 0.  1.
</event>
<event>
12    1  0.1050869E+000  0.1777959E+03  0.7818608E-02  0.1170685E+00
         21   -1    0    0  503  502  0.00000000000E+00  0.00000000000E+00  0.57599791549E+03  0.57599791549E+03  0.00000000000E+00 0. -1.
         21   -1    0    0  501  503 -0.00000000000E+00 -0.00000000000E+00 -0.60314381509E+02  0.60314381509E+02  0.00000000000E+00 0. -1.
          6    2    1    2  501    0  0.24562146131E+02  0.33083468492E+02  0.36292108459E+03  0.40413250799E+03  0.17295535685E+03 0.  0.
         24    2    3    3    0    0  0.44577743024E+02  0.80073989218E+02  0.20352780123E+03  0.23668985531E+03  0.78736921508E+02 0.  0.
         -6    2    1    2    0  502 -0.24562146131E+02 -0.33083468492E+02  0.15276244939E+03  0.23217978901E+03  0.16992137467E+03 0.  0.
        -24    2    5    5    0    0 -0.59768227961E+02 -0.70118606891E+02  0.12004346151E+03  0.17132182452E+03  0.80323563167E+02 0.  0.
          5    1    3    3  501    0 -0.20015596894E+02 -0.46990520726E+02  0.15939328335E+03  0.16744265268E+03  0.47000000000E+01 0. -1.
        -13    1    4    4    0    0  0.51727649826E+02  0.35192942393E+02  0.16715457819E+03  0.17847953933E+03  0.00000000000E+00 0.  1.
         14    1    4    4    0    0 -0.71499068014E+01  0.44881046824E+02  0.36373223044E+02  0.58210315975E+02  0.00000000000E+00 0. -1.
         -5    1    5    5    0  502  0.35206081830E+02  0.37035138399E+02  0.32718987879E+02  0.60857964490E+02  0.47000000000E+01 0.  1.
         13    1    6    6    0    0 -0.56305620483E+02 -0.16472857475E+02  0.95833700735E+02  0.11236447894E+03  0.00000000000E+00 0. -1.
        -14    1    6    6    0    0 -0.34626074774E+01 -0.53645749415E+02  0.24209760777E+02  0.58957345579E+02  0.00000000000E+00 0.  1.
</event>
<event>
12    1  0.1050869E+000  0.1789544E+03  0.7818608E-02  0.1171793E+00
         21   -1    0    0  503  502  0.00000000000E+00  0.00000000000E+00  0.13428824734E+03  0.13428824734E+03  0.00000000000E+00 0. -1.
         21   -1    0    0  501  503 -0.00000000000E+00 -0.00000000000E+00 -0.27284893701E+03  0.27284893701E+03  0.00000000000E+00 0. -1.
          6    2    1    2  501    0  0.76524482935E+01 -0.43343139911E+02  0.15713810040E+02  0.17964298930E+03  0.17345746463E+03 0.  0.
         24    2    3    3    0    0  0.30295412445E+02 -0.90804571939E+02 -0.31030112482E+00  0.12446914138E+03  0.79556197551E+02 0.  0.
         -6    2    1    2    0  502 -0.76524482935E+01  0.43343139911E+02 -0.15427449971E+03  0.22749419506E+03  0.16129414057E+03 0.  0.
        -24    2    5    5    0    0 -0.17871845848E+02  0.20644437652E+02 -0.13727483427E+02  0.84682357464E+02  0.78975073184E+02 0.  0.
          5    1    3    3  501    0 -0.22642964152E+02  0.47461432028E+02  0.16024111165E+02  0.55173847920E+02  0.47000000000E+01 0. -1.
        -13    1    4    4    0    0 -0.12095931983E+02 -0.17539819168E+02  0.28027692367E+02  0.35206652303E+02  0.00000000000E+00 0.  1.
         14    1    4    4    0    0  0.42391344428E+02 -0.73264752770E+02 -0.28337993492E+02  0.89262489076E+02  0.00000000000E+00 0. -1.
         -5    1    5    5    0  502  0.10219397554E+02  0.22698702259E+02 -0.14054701628E+03  0.14281183759E+03  0.47000000000E+01 0.  1.
         13    1    6    6    0    0  0.30385550844E+02  0.16799947007E+02 -0.15062342041E+01  0.34753253963E+02  0.00000000000E+00 0. -1.
        -14    1    6    6    0    0 -0.48257396692E+02  0.38444906453E+01 -0.12221249223E+02  0.49929103501E+02  0.00000000000E+00 0.  1.
</event>
<event>
12    1  0.1050869E+000  0.1809058E+03  0.7818608E-02  0.1167200E+00
         21   -1    0    0  503  502  0.00000000000E+00  0.00000000000E+00  0.13755624892E+03  0.13755624892E+03  0.00000000000E+00 0.  1.
         21   -1    0    0  501  503 -0.00000000000E+00 -0.00000000000E+00 -0.40239666906E+03  0.40239666906E+03  0.00000000000E+00 0.  1.
          6    2    1    2  501    0  0.18286442858E+02 -0.49948451439E+02 -0.30604007244E+03  0.35551010285E+03  0.17290941413E+03 0.  0.
         24    2    3    3    0    0 -0.19080079488E+02 -0.90439053779E+02 -0.18750909224E+03  0.22471473161E+03  0.82424383823E+02 0.  0.
         -6    2    1    2    0  502 -0.18286442858E+02  0.49948451439E+02  0.41199652301E+02  0.18444281513E+03  0.17173380247E+03 0.  0.
        -24    2    5    5    0    0 -0.37600052008E+02  0.40743777028E+02  0.88945932816E+02  0.13191150226E+03  0.80096480484E+02 0.  0.
          5    1    3    3  501    0  0.37366522346E+02  0.40490602340E+02 -0.11853098019E+03  0.13079537123E+03  0.47000000000E+01 0. -1.
        -13    1    4    4    0    0 -0.89125432510E+01 -0.62706658983E+02 -0.18444738591E+03  0.19501896491E+03  0.00000000000E+00 0.  1.
         14    1    4    4    0    0 -0.10167536237E+02 -0.27732394795E+02 -0.30617063367E+01  0.29695766700E+02  0.00000000000E+00 0. -1.
         -5    1    5    5    0  502  0.19313609150E+02  0.92046744111E+01 -0.47746280516E+02  0.52531312876E+02  0.47000000000E+01 0.  1.
         13    1    6    6    0    0 -0.34247212358E+02  0.57188659859E+02  0.34743116270E+02  0.75169797784E+02  0.00000000000E+00 0. -1.
        -14    1    6    6    0    0 -0.33528396501E+01 -0.16444882831E+02  0.54202816546E+02  0.56741704474E+02  0.00000000000E+00 0.  1.
</event>
<event>
12    1  0.1050869E+000  0.2222063E+03  0.7818608E-02  0.1133003E+00
         21   -1    0    0  501  502  0.00000000000E+00  0.00000000000E+00  0.92418048255E+02  0.92418048255E+02  0.00000000000E+00 0. -1.
         21   -1    0    0  502  503 -0.00000000000E+00 -0.00000000000E+00 -0.56773916992E+03  0.56773916992E+03  0.00000000000E+00 0.  1.
         -6    2    1    2    0  503  0.10463075844E+03 -0.93645930593E+02 -0.33072838434E+03  0.39844312069E+03  0.17221643442E+03 0.  0.
        -24    2    3    3    0    0  0.10082688047E+02 -0.98882103004E+02 -0.16967700713E+03  0.21155708264E+03  0.78017828546E+02 0.  0.
          6    2    1    2  501    0 -0.10463075844E+03  0.93645930593E+02 -0.14459273732E+03  0.26171409749E+03  0.16694326344E+03 0.  0.
         24    2    5    5    0    0 -0.39441162641E+02  0.73629085187E+01 -0.12335586336E+03  0.15140753324E+03  0.78088119232E+02 0.  0.
          5    1    5    5  501    0 -0.65189595802E+02  0.86283022075E+02 -0.21236873957E+02  0.11030656424E+03  0.47000000000E+01 0. -1.
        -13    1    6    6    0    0 -0.21455501279E+02  0.25707997947E+02 -0.96675380621E+01  0.34852560677E+02  0.00000000000E+00 0.  1.
         14    1    6    6    0    0 -0.17985661362E+02 -0.18345089429E+02 -0.11368832530E+03  0.11655497257E+03  0.00000000000E+00 0. -1.
         -5    1    3    3    0  503  0.94548070396E+02  0.52361724105E+01 -0.16105137721E+03  0.18688603805E+03  0.47000000000E+01 0.  1.
         11    1    4    4    0    0  0.25126705152E+02 -0.52438929743E+02 -0.33986993785E+02  0.67352122542E+02  0.00000000000E+00 0. -1.
        -12    1    4    4    0    0 -0.15044017105E+02 -0.46443173260E+02 -0.13569001335E+03  0.14420496009E+03  0.00000000000E+00 0.  1.
</event>
<event>
12    1  0.1050869E+000  0.1976337E+03  0.7818608E-02  0.1152212E+00
         21   -1    0    0  501  502  0.00000000000E+00  0.00000000000E+00  0.15673782263E+04  0.15673782263E+04  0.00000000000E+00 0.  1.
         21   -1    0    0  502  503 -0.00000000000E+00 -0.00000000000E+00 -0.25909462355E+02  0.25909462355E+02  0.00000000000E+00 0.  1.
         -6    2    1    2    0  503 -0.16992228425E+02 -0.97453323788E+02  0.59914692638E+03  0.63090102653E+03  0.17109406695E+03 0.  0.
        -24    2    3    3    0    0 -0.14248377019E+02 -0.57769651741E+01  0.44261842895E+03  0.44942005244E+03  0.76360463046E+02 0.  0.
          6    2    1    2  501    0  0.16992228425E+02  0.97453323788E+02  0.94232183754E+03  0.96238666210E+03  0.16861718694E+03 0.  0.
         24    2    5    5    0    0 -0.36427801087E+02  0.26968590315E+02  0.66753947261E+03  0.67368398583E+03  0.78656695320E+02 0.  0.
          5    1    5    5  501    0  0.53420029512E+02  0.70484733472E+02  0.27478236493E+03  0.28870267627E+03  0.47000000000E+01 0. -1.
        -11    1    6    6    0    0 -0.24617867097E+02 -0.25536704622E+02  0.32701234518E+03  0.32893044335E+03  0.00000000000E+00 0.  1.
         12    1    6    6    0    0 -0.11809933990E+02  0.52505294937E+02  0.34052712743E+03  0.34475354248E+03  0.00000000000E+00 0. -1.
         -5    1    3    3    0  503 -0.27438514058E+01 -0.91676358613E+02  0.15652849743E+03  0.18148097409E+03  0.47000000000E+01 0.  1.
         13    1    4    4    0    0  0.22351678220E+02 -0.26513744929E+02  0.23889817839E+03  0.24140197975E+03  0.00000000000E+00 0. -1.
        -14    1    4    4    0    0 -0.36600055239E+02  0.20736779755E+02  0.20372025056E+03  0.20801807269E+03  0.00000000000E+00 0.  1.
</event>
<event>
12    1  0.1050869E+000  0.3984669E+03  0.7818608E-02  0.1044334E+00
         21   -1    0    0  501  502  0.00000000000E+00  0.00000000000E+00  0.29876410428E+03  0.29876410428E+03  0.00000000000E+00 0.  1.
         21   -1    0    0  502  503 -0.00000000000E+00 -0.00000000000E+00 -0.54360137265E+03  0.54360137265E+03  0.00000000000E+00 0.  1.
         -6    2    1    2    0  503  0.30372571327E+03  0.19185926701E+03 -0.58508486298E+02  0.40248558870E+03  0.17179091624E+03 0.  0.
        -24    2    3    3    0    0  0.25115559212E+03  0.10830602727E+03  0.54755928288E+01  0.28475363089E+03  0.79027344573E+02 0.  0.
          6    2    1    2  501    0 -0.30372571327E+03 -0.19185926701E+03 -0.18632878207E+03  0.43987988823E+03  0.17238507419E+03 0.  0.
         24    2    5    5    0    0 -0.73889656320E+02 -0.47903130176E+02 -0.99468533353E+02  0.15507333070E+03  0.79995984737E+02 0.  0.
          5    1    5    5  501    0 -0.22983605695E+03 -0.14395613684E+03 -0.86860248717E+02  0.28480655754E+03  0.47000000000E+01 0. -1.
        -13    1    6    6    0    0  0.27732141626E+00 -0.33143802471E+02 -0.62846089329E+02  0.71050823312E+02  0.00000000000E+00 0.  1.
         14    1    6    6    0    0 -0.74166977736E+02 -0.14759327704E+02 -0.36622444024E+02  0.84022507384E+02  0.00000000000E+00 0. -1.
         -5    1    3    3    0  503  0.52570121155E+02  0.83553239739E+02 -0.63984079127E+02  0.11773195782E+03  0.47000000000E+01 0.  1.
         13    1    4    4    0    0  0.15211457595E+03  0.50994992753E+02 -0.33453056663E+02  0.16388544933E+03  0.00000000000E+00 0. -1.
        -14    1    4    4    0    0  0.99041016173E+02  0.57311034519E+02  0.38928649492E+02  0.12086818156E+03  0.00000000000E+00 0.  1.
</event>
<event>
12    1  0.1050869E+000  0.1776857E+03  0.7818608E-02  0.1171479E+00
         21   -1    0    0  501  502  0.00000000000E+00  0.00000000000E+00  0.18336749223E+03  0.18336749223E+03  0.00000000000E+00 0. -1.
         21   -1    0    0  502  503 -0.00000000000E+00 -0.00000000000E+00 -0.23116194082E+03  0.23116194082E+03  0.00000000000E+00 0. -1.
         -6    2    1    2    0  503 -0.46013832449E+02  0.32825977603E+00  0.85789748752E+02  0.19223018632E+03  0.16575639659E+03 0.  0.
        -24    2    3    3    0    0 -0.74511137434E+02 -0.34915152495E+02  0.89974629350E+02  0.14647215177E+03  0.81164523301E+02 0.  0.
          6    2    1    2  501    0  0.46013832449E+02 -0.32825977603E+00 -0.13358419734E+03  0.22229924673E+03  0.17162411482E+03 0.  0.
         24    2    5    5    0    0 -0.22832156674E+01 -0.90857720901E+01 -0.15013457882E+03  0.17028670972E+03  0.79808567344E+02 0.  0.
          5    1    5    5  501    0  0.48297048117E+02  0.87575123141E+01  0.16550381483E+02  0.52012537007E+02  0.47000000000E+01 0. -1.
        -13    1    6    6    0    0 -0.97515186690E+01 -0.41631824587E+02 -0.11035914183E+03  0.11835303596E+03  0.00000000000E+00 0.  1.
         14    1    6    6    0    0  0.74683030016E+01  0.32546052497E+02 -0.39775436995E+02  0.51933673767E+02  0.00000000000E+00 0. -1.
         -5    1    3    3    0  503  0.28497304985E+02  0.35243412271E+02 -0.41848805983E+01  0.45758034546E+02  0.47000000000E+01 0.  1.
         11    1    4    4    0    0  0.30963296466E-02  0.62040960219E+01 -0.12084551183E+02  0.13584078707E+02  0.00000000000E+00 0. -1.
        -12    1    4    4    0    0 -0.74514233764E+02 -0.41119248517E+02  0.10205918053E+03  0.13288807306E+03  0.00000000000E+00 0.  1.
</event>
<event>
12    1  0.1050869E+000  0.1897089E+03  0.7818608E-02  0.1159283E+00
         21   -1    0    0  503  502  0.00000000000E+00  0.00000000000E+00  0.24963664126E+03  0.24963664126E+03  0.00000000000E+00 0. -1.
         21   -1    0    0  501  503 -0.00000000000E+00 -0.00000000000E+00 -0.14368831537E+03  0.14368831537E+03  0.00000000000E+00 0. -1.
          6    2    1    2  501    0  0.23177282565E-01  0.77036062388E+02  0.71921619399E+02  0.20058864325E+03  0.17067082064E+03 0.  0.
         24    2    3    3    0    0  0.27059267200E+02 -0.23363038725E+00  0.82104092277E+02  0.11796099453E+03  0.80258680130E+02 0.  0.
         -6    2    1    2    0  502 -0.23177282565E-01 -0.77036062388E+02  0.34026706492E+02  0.19273631338E+03  0.17336353220E+03 0.  0.
        -24    2    5    5    0    0 -0.50242473384E+02 -0.75484174630E+02 -0.14704310962E+02  0.12258513293E+03  0.81171000386E+02 0.  0.
          5    1    3    3  501    0 -0.27036089917E+02  0.77269692775E+02 -0.10182472878E+02  0.82627648723E+02  0.47000000000E+01 0. -1.
        -13    1    4    4    0    0  0.13110356337E+02 -0.52624317781E+01 -0.14489118743E+02  0.20236333498E+02  0.00000000000E+00 0.  1.
         14    1    4    4    0    0  0.13948910863E+02  0.50288013908E+01  0.96593211020E+02  0.97724661027E+02  0.00000000000E+00 0. -1.
         -5    1    5    5    0  502  0.50219296101E+02 -0.15518877579E+01  0.48731017454E+02  0.70151180451E+02  0.47000000000E+01 0.  1.
         11    1    6    6    0    0  0.91084807270E+01 -0.30647632070E+01 -0.26522013980E+02  0.28209473944E+02  0.00000000000E+00 0. -1.
        -12    1    6    6    0    0 -0.59350954111E+02 -0.72419411423E+02  0.11817703017E+02  0.94375658987E+02  0.00000000000E+00 0.  1.
</event>
<event>
12    1  0.1050869E+000  0.1811283E+03  0.7818608E-02  0.1167260E+00
         21   -1    0    0  501  502  0.00000000000E+00  0.00000000000E+00  0.90915746360E+02  0.90915746360E+02  0.00000000000E+00 0. -1.
         21   -1    0    0  502  503 -0.00000000000E+00 -0.00000000000E+00 -0.36153533035E+03  0.36153533035E+03  0.00000000000E+00 0. -1.
         -6    2    1    2    0  503  0.44032206931E+02 -0.27755459230E+02 -0.16149667294E+03  0.24099120082E+03  0.17113264662E+03 0.  0.
        -24    2    3    3    0    0  0.48892981471E+02 -0.42906632940E+02 -0.18705420091E+03  0.21052051934E+03  0.71401065810E+02 0.  0.
          6    2    1    2  501    0 -0.44032206931E+02  0.27755459230E+02 -0.10912291105E+03  0.21145987589E+03  0.17348852593E+03 0.  0.
         24    2    5    5    0    0  0.20332823911E+02 -0.29160570143E+02 -0.85717213585E+02  0.12228472089E+03  0.79638870408E+02 0.  0.
          5    1    5    5  501    0 -0.64365030841E+02  0.56916029373E+02 -0.23405697469E+02  0.89175154997E+02  0.47000000000E+01 0. -1.
        -13    1    6    6    0    0 -0.47875284137E+01 -0.48130462229E+02 -0.74586027810E+02  0.88896216832E+02  0.00000000000E+00 0.  1.
         14    1    6    6    0    0  0.25120352324E+02  0.18969892086E+02 -0.11131185775E+02  0.33388504061E+02  0.00000000000E+00 0. -1.
         -5    1    3    3    0  503 -0.48607745405E+01  0.15151173711E+02  0.25557527970E+02  0.30470681480E+02  0.47000000000E+01 0.  1.
         13    1    4    4    0    0  0.45900412265E+02  0.13520642393E+01 -0.13235530506E+03  0.14009497743E+03  0.00000000000E+00 0. -1.
        -14    1    4    4    0    0  0.29925692065E+01 -0.44258697180E+02 -0.54698895854E+02  0.70425541916E+02  0.00000000000E+00 0.  1.
</event>
<event>
12    1  0.1050869E+000  0.1873716E+03  0.7818608E-02  0.1161546E+00
         21   -1    0    0  501  502  0.00000000000E+00  0.00000000000E+00  0.25858781838E+02  0.25858781838E+02  0.00000000000E+00 0.  1.
         21   -1    0    0  502  503 -0.00000000000E+00 -0.00000000000E+00 -0.13647116519E+04  0.13647116519E+04  0.00000000000E+00 0.  1.
         -6    2    1    2    0  503 -0.65626289674E+02  0.16015151641E+02 -0.56349901801E+03  0.59289774588E+03  0.17156135577E+03 0.  0.
        -24    2    3    3    0    0 -0.31822460025E+02 -0.56281888701E+02 -0.35633430208E+03  0.37084173838E+03  0.79806892733E+02 0.  0.
          6    2    1    2  501    0  0.65626289674E+02 -0.16015151641E+02 -0.77535385206E+03  0.79767268787E+03  0.17477078154E+03 0.  0.
         24    2    5    5    0    0  0.71443513719E+02  0.45364465903E+02 -0.61486136584E+03  0.62568075294E+03  0.79118866144E+02 0.  0.
          5    1    5    5  501    0 -0.58172240448E+01 -0.61379617543E+02 -0.16049248622E+03  0.17199193492E+03  0.47000000000E+01 0. -1.
        -11    1    6    6    0    0  0.53280990746E+02 -0.99797823394E+01 -0.37217901958E+03  0.37610594604E+03  0.00000000000E+00 0.  1.
         12    1    6    6    0    0  0.18162522973E+02  0.55344248242E+02 -0.24268234626E+03  0.24957480691E+03  0.00000000000E+00 0. -1.
         -5    1    3    3    0  503 -0.33803829649E+02  0.72297040341E+02 -0.20716471592E+03  0.22205600749E+03  0.47000000000E+01 0.  1.
         11    1    4    4    0    0  0.18051658346E+01 -0.65086373269E+01 -0.23835788072E+03  0.23845356002E+03  0.00000000000E+00 0. -1.
        -12    1    4    4    0    0 -0.33627625860E+02 -0.49773251374E+02 -0.11797642137E+03  0.13238817837E+03  0.00000000000E+00 0.  1.
</event>
<event>
12    1  0.1050869E+000  0.2112905E+03  0.7818608E-02  0.1141072E+00
         21   -1    0    0  503  502  0.00000000000E+00  0.00000000000E+00  0.27031450008E+02  0.27031450008E+02  0.00000000000E+00 0. -1.
         21   -1    0    0  501  503 -0.00000000000E+00 -0.00000000000E+00 -0.21909887024E+04  0.21909887024E+04  0.00000000000E+00 0. -1.
          6    2    1    2  501    0 -0.49349912050E+02  0.11153874655E+03 -0.52635586459E+03  0.56718088192E+03  0.17253217329E+03 0.  0.
         24    2    3    3    0    0 -0.46372563739E+02  0.14466425591E+03 -0.40748087921E+03  0.44365146792E+03  0.87794057079E+02 0.  0.
         -6    2    1    2    0  502  0.49349912050E+02 -0.11153874655E+03 -0.16376013878E+04  0.16508392705E+04  0.16927990392E+03 0.  0.
        -24    2    5    5    0    0 -0.98773897302E+01 -0.10827916581E+03 -0.13771610387E+04  0.13836880706E+04  0.78728709772E+02 0.  0.
          5    1    3    3  501    0 -0.29773483119E+01 -0.33125509357E+02 -0.11887498538E+03  0.12352941400E+03  0.47000000000E+01 0. -1.
        -11    1    4    4    0    0  0.69869977278E+01  0.11308260390E+03 -0.25430938231E+03  0.27840573875E+03  0.00000000000E+00 0.  1.
         12    1    4    4    0    0 -0.53359561466E+02  0.31581652014E+02 -0.15317149690E+03  0.16524572916E+03  0.00000000000E+00 0. -1.
         -5    1    5    5    0  502  0.59227301781E+02 -0.32595807460E+01 -0.26044034911E+03  0.26715119986E+03  0.47000000000E+01 0.  1.
         13    1    6    6    0    0  0.89319521395E+01  0.10071079596E+02 -0.96849890973E+02  0.97780917335E+02  0.00000000000E+00 0. -1.
        -14    1    6    6    0    0 -0.18809341870E+02 -0.11835024540E+03 -0.12803111477E+04  0.12859071533E+04  0.00000000000E+00 0.  1.
</event>
<event>
12    1  0.1050869E+000  0.1957707E+03  0.7818608E-02  0.1153413E+00
         21   -1    0    0  503  502  0.00000000000E+00  0.00000000000E+00  0.10599382767E+04  0.10599382767E+04  0.00000000000E+00 0. -1.
         21   -1    0    0  501  503 -0.00000000000E+00 -0.00000000000E+00 -0.36655790311E+02  0.36655790311E+02  0.00000000000E+00 0. -1.
          6    2    1    2  501    0  0.69855359746E+02  0.61179886864E+02  0.57882249059E+03  0.61103325640E+03  0.17234678695E+03 0.  0.
         24    2    3    3    0    0  0.79793713837E+02  0.19285850889E+02  0.54371959683E+03  0.55528216419E+03  0.77254780289E+02 0.  0.
         -6    2    1    2    0  502 -0.69855359746E+02 -0.61179886864E+02  0.44445999581E+03  0.48556081062E+03  0.17205191976E+03 0.  0.
        -24    2    5    5    0    0 -0.76280847536E+01  0.79325491129E+01  0.33004741142E+03  0.33804439788E+03  0.72260695715E+02 0.  0.
          5    1    3    3  501    0 -0.99383540914E+01  0.41894035975E+02  0.35102893761E+02  0.55751092211E+02  0.47000000000E+01 0. -1.
        -13    1    4    4    0    0  0.30593040157E+02  0.42653567873E+02  0.35499592954E+03  0.35885564082E+03  0.00000000000E+00 0.  1.
         14    1    4    4    0    0  0.49200673680E+02 -0.23367716984E+02  0.18872366729E+03  0.19642652337E+03  0.00000000000E+00 0. -1.
         -5    1    5    5    0  502 -0.62227274992E+02 -0.69112435977E+02  0.11441258439E+03  0.14751641274E+03  0.47000000000E+01 0.  1.
         13    1    6    6    0    0 -0.37060429194E+02  0.17700062110E+02  0.21519413646E+03  0.21907825994E+03  0.00000000000E+00 0. -1.
        -14    1    6    6    0    0  0.29432344440E+02 -0.97675129974E+01  0.11485327496E+03  0.11896613794E+03  0.00000000000E+00 0.  1.
</event>
<event>
12    1  0.1050869E+000  0.2067682E+03  0.7818608E-02  0.1144557E+00
         21   -1    0    0  503  502  0.00000000000E+00  0.00000000000E+00  0.22614177523E+03  0.22614177523E+03  0.00000000000E+00 0. -1.
         21   -1    0    0  501  503 -0.00000000000E+00 -0.00000000000E+00 -0.20834306051E+03  0.20834306051E+03  0.00000000000E+00 0. -1.
          6    2    1    2  501    0  0.68473689182E+02  0.85263821608E+02 -0.60289738229E+02  0.21346247711E+03  0.17312657569E+03 0.  0.
         24    2    3    3    0    0  0.45625735417E+02 -0.62096747451E+01  0.15169802639E+02  0.92608590805E+02  0.78904755154E+02 0.  0.
         -6    2    1    2    0  502 -0.68473689182E+02 -0.85263821608E+02  0.78088452946E+02  0.22102235863E+03  0.17548364922E+03 0.  0.
        -24    2    5    5    0    0 -0.88476127760E+02 -0.41422769296E-02  0.34670467160E+02  0.12316265314E+03  0.78351596250E+02 0.  0.
          5    1    3    3  501    0  0.22847953765E+02  0.91473496353E+02 -0.75459540867E+02  0.12085388630E+03  0.47000000000E+01 0. -1.
        -13    1    4    4    0    0  0.21458731808E+01 -0.15829344798E+02  0.38969463260E+02  0.42116410047E+02  0.00000000000E+00 0.  1.
         14    1    4    4    0    0  0.43479862236E+02  0.96196700531E+01 -0.23799660621E+02  0.50492180758E+02  0.00000000000E+00 0. -1.
         -5    1    5    5    0  502  0.20002438578E+02 -0.85259679331E+02  0.43417985786E+02  0.97859705489E+02  0.47000000000E+01 0.  1.
         13    1    6    6    0    0 -0.14175040520E+02 -0.29074228137E+02  0.28549082234E+02  0.43142700563E+02  0.00000000000E+00 0. -1.
        -14    1    6    6    0    0 -0.74301087241E+02  0.29070085860E+02  0.61213849259E+01  0.80019952577E+02  0.00000000000E+00 0.  1.
</event>
<event>
12    1  0.1050869E+000  0.1805737E+03  0.7818608E-02  0.1167316E+00
         21   -1    0    0  501  502  0.00000000000E+00  0.00000000000E+00  0.75579180368E+02  0.75579180368E+02  0.00000000000E+00 0. -1.
         21   -1    0    0  502  503 -0.00000000000E+00 -0.00000000000E+00 -0.43182646464E+03  0.43182646464E+03  0.00000000000E+00 0. -1.
         -6    2    1    2    0  503  0.15484424513E+02  0.50928136701E+02 -0.16566862140E+03  0.24505700719E+03  0.17254970919E+03 0.  0.
        -24    2    3    3    0    0  0.38668883394E+02  0.31147741944E+02 -0.18584864331E+03  0.20820451155E+03  0.79648829488E+02 0.  0.
          6    2    1    2  501    0 -0.15484424513E+02 -0.50928136701E+02 -0.19057866287E+03  0.26234863783E+03  0.17225892870E+03 0.  0.
         24    2    5    5    0    0 -0.29111809323E+02 -0.50604645402E+02 -0.21222655688E+03  0.23633841717E+03  0.86066302384E+02 0.  0.
          5    1    5    5  501    0  0.13627384810E+02 -0.32349129904E+00  0.21647894012E+02  0.26010220655E+02  0.47000000000E+01 0. -1.
        -13    1    6    6    0    0 -0.31457862963E+02 -0.59197988062E+02 -0.82483044671E+02  0.10628947074E+03  0.00000000000E+00 0.  1.
         14    1    6    6    0    0  0.23460536399E+01  0.85933426600E+01 -0.12974351221E+03  0.13004894643E+03  0.00000000000E+00 0. -1.
         -5    1    3    3    0  503 -0.23184458882E+02  0.19780394757E+02  0.20180021906E+02  0.36852495635E+02  0.47000000000E+01 0.  1.
         11    1    4    4    0    0  0.16957135141E+02  0.13252077461E+02 -0.13399822913E+01  0.21562874153E+02  0.00000000000E+00 0. -1.
        -12    1    4    4    0    0  0.21711748253E+02  0.17895664483E+02 -0.18450866102E+03  0.18664163740E+03  0.00000000000E+00 0.  1.
</event>
<event>
12    1  0.1050869E+000  0.2155422E+03  0.7818608E-02  0.1137269E+00
         21   -1    0    0  501  502  0.00000000000E+00  0.00000000000E+00  0.40409631753E+03  0.40409631753E+03  0.00000000000E+00 0. -1.
         21   -1    0    0  502  503 -0.00000000000E+00 -0.00000000000E+00 -0.11516273445E+03  0.11516273445E+03  0.00000000000E+00 0. -1.
         -6    2    1    2    0  503  0.75129091401E+02 -0.10614482398E+03  0.15649975218E+03  0.26636556988E+03  0.17189339824E+03 0.  0.
        -24    2    3    3    0    0  0.89262631815E+01  0.56141133340E+01  0.84839778541E+02  0.11794011265E+03  0.81245835014E+02 0.  0.
          6    2    1    2  501    0 -0.75129091401E+02  0.10614482398E+03  0.13243383091E+03  0.25289348209E+03  0.17177103856E+03 0.  0.
         24    2    5    5    0    0 -0.40329407904E+02  0.13660401082E+03  0.12189334123E+03  0.20522827511E+03  0.83507732297E+02 0.  0.
          5    1    5    5  501    0 -0.34799683497E+02 -0.30459186842E+02  0.10540489673E+02  0.47665206987E+02  0.47000000000E+01 0. -1.
        -13    1    6    6    0    0 -0.50666620421E+02  0.96250571062E+02  0.44872135142E+02  0.11766387452E+03  0.00000000000E+00 0.  1.
         14    1    6    6    0    0  0.10337212518E+02  0.40353439755E+02  0.77021206090E+02  0.87564400588E+02  0.00000000000E+00 0. -1.
         -5    1    3    3    0  503  0.66202828219E+02 -0.11175893731E+03  0.71659973635E+02  0.14842545723E+03  0.47000000000E+01 0.  1.
         11    1    4    4    0    0  0.29070627579E+01  0.30603360075E+02  0.15565007928E+01  0.30780502863E+02  0.00000000000E+00 0. -1.
        -12    1    4    4    0    0  0.60192004235E+01 -0.24989246742E+02  0.83283277748E+02  0.87159609791E+02  0.00000000000E+00 0.  1.
</event>
<event>
12    1  0.1050869E+000  0.3023073E+03  0.7818608E-02  0.1084117E+00
         21   -1    0    0  503  502  0.00000000000E+00  0.00000000000E+00  0.15969740045E+03  0.15969740045E+03  0.00000000000E+00 0. -1.
         21   -1    0    0  501  503 -0.00000000000E+00 -0.00000000000E+00 -0.74328917276E+03  0.74328917276E+03  0.00000000000E+00 0. -1.
          6    2    1    2  501    0 -0.18371393834E+03  0.16825211800E+03 -0.75066659115E+02  0.31148791631E+03  0.17126042258E+03 0.  0.
         24    2    3    3    0    0 -0.17492086179E+03  0.14725600325E+03 -0.10119642449E+02  0.24250704937E+03  0.80159986568E+02 0.  0.
         -6    2    1    2    0  502  0.18371393834E+03 -0.16825211800E+03 -0.50852511320E+03  0.59149865690E+03  0.17091893988E+03 0.  0.
        -24    2    5    5    0    0  0.16350479370E+03 -0.13387577536E+03 -0.50257239526E+03  0.55090718845E+03  0.79140236357E+02 0.  0.
          5    1    3    3  501    0 -0.87930765526E+01  0.20996114741E+02 -0.64947016665E+02  0.68980866936E+02  0.47000000000E+01 0. -1.
        -13    1    4    4    0    0 -0.14906527965E+03  0.14426179125E+03 -0.30206541200E+02  0.20962909422E+03  0.00000000000E+00 0.  1.
         14    1    4    4    0    0 -0.25855582146E+02  0.29942120022E+01  0.20086898751E+02  0.32877955153E+02  0.00000000000E+00 0. -1.
         -5    1    5    5    0  502  0.20209144642E+02 -0.34376342639E+02 -0.59527179356E+01  0.40591468453E+02  0.47000000000E+01 0.  1.
         11    1    6    6    0    0  0.14102246657E+02  0.15618550664E+01 -0.96321223053E+02  0.97360622237E+02  0.00000000000E+00 0. -1.
        -12    1    6    6    0    0  0.14940254704E+03 -0.13543763042E+03 -0.40625117221E+03  0.45354656621E+03  0.00000000000E+00 0.  1.
</event>
<event>
12    1  0.1050869E+000  0.2571611E+03  0.7818608E-02  0.1109203E+00
         21   -1    0    0  501  502  0.00000000000E+00  0.00000000000E+00  0.37644261717E+03  0.37644261717E+03  0.00000000000E+00 0. -1.
         21   -1    0    0  502  503 -0.00000000000E+00 -0.00000000000E+00 -0.17561826218E+03  0.17561826218E+03  0.00000000000E+00 0. -1.
         -6    2    1    2    0  503 -0.93437927652E+02  0.16381766796E+03  0.12607273364E+03  0.28640213244E+03  0.17482840914E+03 0.  0.
        -24    2    3    3    0    0  0.22479672648E+01  0.23513694825E+02  0.39256030643E+02  0.95613701762E+02  0.83922564437E+02 0.  0.
          6    2    1    2  501    0  0.93437927652E+02 -0.16381766796E+03  0.74751621354E+02  0.26565874690E+03  0.17152227334E+03 0.  0.
         24    2    5    5    0    0  0.72824185725E+02 -0.51401081126E+02  0.91452139877E+02  0.15005851909E+03  0.78794873542E+02 0.  0.
          5    1    5    5  501    0  0.20613741927E+02 -0.11241658683E+03 -0.16700518523E+02  0.11560022781E+03  0.47000000000E+01 0. -1.
        -13    1    6    6    0    0  0.32327751050E+02 -0.63199628701E+02  0.33800563773E+02  0.78624135400E+02  0.00000000000E+00 0.  1.
         14    1    6    6    0    0  0.40496434675E+02  0.11798547575E+02  0.57651576104E+02  0.71434383692E+02  0.00000000000E+00 0. -1.
         -5    1    3    3    0  503 -0.95685894917E+02  0.14030397313E+03  0.86816702992E+02  0.19078843068E+03  0.47000000000E+01 0.  1.
         13    1    4    4    0    0  0.22204254509E+02  0.43981695349E+02  0.28851990638E+01  0.49353245260E+02  0.00000000000E+00 0. -1.
        -14    1    4    4    0    0 -0.19956287244E+02 -0.20468000524E+02  0.36370831579E+02  0.46260456502E+02  0.00000000000E+00 0.  1.
</event>
<event>
12    1  0.1050869E+000  0.2293891E+03  0.7818608E-02  0.1127203E+00
         21   -1    0    0  501  502  0.00000000000E+00  0.00000000000E+00  0.13586339016E+03  0.13586339016E+03  0.00000000000E+00 0.  1.
         21   -1    0    0  502  503 -0.00000000000E+00 -0.00000000000E+00 -0.40873247575E+03  0.40873247575E+03  0.00000000000E+00 0.  1.
         -6    2    1    2    0  503 -0.14646986137E+03 -0.34318550371E+02 -0.20080982345E+03  0.30486712425E+03  0.17317099950E+03 0.  0.
        -24    2    3    3    0    0 -0.10502818226E+03 -0.81786406739E+02 -0.18037894370E+03  0.23845838233E+03  0.81276696418E+02 0.  0.
          6    2    1    2  501    0  0.14646986137E+03  0.34318550371E+02 -0.72059262135E+02  0.23972874165E+03  0.17218057128E+03 0.  0.
         24    2    5    5    0    0  0.13185175579E+03  0.33737878384E+02  0.75841312553E+01  0.15861655822E+03  0.81108344530E+02 0.  0.
          5    1    5    5  501    0  0.14618105584E+02  0.58067198674E+00 -0.79643393390E+02  0.81112183434E+02  0.47000000000E+01 0. -1.
        -11    1    6    6    0    0  0.47208381287E+01 -0.17206999926E+02 -0.10128831039E+02  0.20517318960E+02  0.00000000000E+00 0.  1.
         12    1    6    6    0    0  0.12713091766E+03  0.50944878310E+02  0.17712962295E+02  0.13809923926E+03  0.00000000000E+00 0. -1.
         -5    1    3    3    0  503 -0.41441679114E+02  0.47467856368E+02 -0.20430879757E+02  0.66408741921E+02  0.47000000000E+01 0.  1.
         13    1    4    4    0    0 -0.56024399045E+02  0.48379869908E+01 -0.59249197395E+02  0.81686025723E+02  0.00000000000E+00 0. -1.
        -14    1    4    4    0    0 -0.49003783212E+02 -0.86624393730E+02 -0.12112974630E+03  0.15677235661E+03  0.00000000000E+00 0.  1.
</event>
<event>
12    1  0.1050869E+000  0.2430719E+03  0.7818608E-02  0.1117804E+00
         21   -1    0    0  501  502  0.00000000000E+00  0.00000000000E+00  0.12632887619E+03  0.12632887619E+03  0.00000000000E+00 0.  1.
         21   -1    0    0  502  503 -0.00000000000E+00 -0.00000000000E+00 -0.60799046950E+03  0.60799046950E+03  0.00000000000E+00 0.  1.
         -6    2    1    2    0  503 -0.16625963247E+03  0.41152939592E+02 -0.64256806568E+02  0.25142169522E+03  0.17247638044E+03 0.  0.
        -24    2    3    3    0    0 -0.13566833398E+03 -0.34164776994E+02 -0.32393293538E+02  0.16398051821E+03  0.79165371556E+02 0.  0.
          6    2    1    2  501    0  0.16625963247E+03 -0.41152939592E+02 -0.41740478674E+03  0.48289765047E+03  0.17212656681E+03 0.  0.
         24    2    5    5    0    0  0.11275891435E+03 -0.93390009034E+02 -0.30900424475E+03  0.35112585619E+03  0.79809003605E+02 0.  0.
          5    1    5    5  501    0  0.53500718118E+02  0.52237069442E+02 -0.10840054199E+03  0.13177179428E+03  0.47000000000E+01 0. -1.
        -13    1    6    6    0    0  0.87001091163E+01  0.11637085237E+02 -0.58208823365E+02  0.59994839519E+02  0.00000000000E+00 0.  1.
         14    1    6    6    0    0  0.10405880524E+03 -0.10502709427E+03 -0.25079542139E+03  0.29113101667E+03  0.00000000000E+00 0. -1.
         -5    1    3    3    0  503 -0.30591298496E+02  0.75317716586E+02 -0.31863513029E+02  0.87441177016E+02  0.47000000000E+01 0.  1.
         11    1    4    4    0    0 -0.58098427145E+02  0.13941222026E+02  0.14328441757E+02  0.61441754137E+02  0.00000000000E+00 0. -1.
        -12    1    4    4    0    0 -0.77569906831E+02 -0.48105999020E+02 -0.46721735295E+02  0.10253876407E+03  0.00000000000E+00 0.  1.
</event>
<event>
12    1  0.1050869E+000  0.2418227E+03  0.7818608E-02  0.1120029E+00
         21   -1    0    0  503  502  0.00000000000E+00  0.00000000000E+00  0.89895453993E+03  0.89895453993E+03  0.00000000000E+00 0.  1.
         21   -1    0    0  501  503 -0.00000000000E+00 -0.00000000000E+00 -0.10432090765E+03  0.10432090765E+03  0.00000000000E+00 0. -1.
          6    2    1    2  501    0 -0.15910398127E+03 -0.35579762587E+01  0.70958611661E+03  0.74693330913E+03  0.17049978111E+03 0.  0.
         24    2    3    3    0    0 -0.39515429219E+02  0.32541526031E+02  0.18454144727E+03  0.20721246402E+03  0.79126730143E+02 0.  0.
         -6    2    1    2    0  502  0.15910398127E+03  0.35579762587E+01  0.85047515664E+02  0.25634213845E+03  0.18207546779E+03 0.  0.
        -24    2    5    5    0    0  0.13511162467E+03  0.42995465626E+01 -0.10157970223E+02  0.15804484629E+03  0.81248703747E+02 0.  0.
          5    1    3    3  501    0 -0.11958855205E+03 -0.36099502289E+02  0.52504466934E+03  0.53972084511E+03  0.47000000000E+01 0. -1.
        -13    1    4    4    0    0 -0.38327353154E+02  0.40625967116E+02  0.18956417621E+03  0.19762093034E+03  0.00000000000E+00 0.  1.
         14    1    4    4    0    0 -0.11880760645E+01 -0.80844410849E+01 -0.50227289438E+01  0.95915336852E+01  0.00000000000E+00 0. -1.
         -5    1    5    5    0  502  0.23992356604E+02 -0.74157030384E+00  0.95205485887E+02  0.98297292155E+02  0.47000000000E+01 0.  1.
         13    1    6    6    0    0  0.58444687460E+01  0.19883572860E+02  0.14805868774E+02  0.25470140061E+02  0.00000000000E+00 0. -1.
        -14    1    6    6    0    0  0.12926715592E+03 -0.15584026297E+02 -0.24963838996E+02  0.13257470623E+03  0.00000000000E+00 0.  1.
</event>
<event>
12    1  0.1050869E+000  0.1808988E+03  0.7818608E-02  0.1167204E+00
         21   -1    0    0  503  502  0.00000000000E+00  0.00000000000E+00  0.16564199022E+03  0.16564199022E+03  0.00000000000E+00 0.  1.
         21   -1    0    0  501  503 -0.00000000000E+00 -0.00000000000E+00 -0.34507853330E+03  0.34507853330E+03  0.00000000000E+00 0.  1.
          6    2    1    2  501    0  0.22325692000E+02  0.45425985679E+02  0.78084160413E+02  0.19601228885E+03  0.17251586761E+03 0.  0.
         24    2    3    3    0    0  0.50450689875E+02 -0.26315484684E+02  0.21364830947E+02  0.10021549136E+03  0.79680059384E+02 0.  0.
         -6    2    1    2    0  502 -0.22325692000E+02 -0.45425985679E+02 -0.25752070350E+03  0.31470823467E+03  0.17367326663E+03 0.  0.
        -24    2    5    5    0    0  0.38920023731E+02 -0.60991262372E+02 -0.20545542649E+03  0.23269482965E+03  0.81855049547E+02 0.  0.
          5    1    3    3  501    0 -0.28124997875E+02  0.71741470363E+02  0.56719329466E+02  0.95796797496E+02  0.47000000000E+01 0. -1.
        -11    1    4    4    0    0  0.49728038478E+02 -0.23645155520E+02  0.48235560371E+02  0.73202735432E+02  0.00000000000E+00 0.  1.
         12    1    4    4    0    0  0.72265139702E+00 -0.26703291635E+01 -0.26870729424E+02  0.27012755925E+02  0.00000000000E+00 0. -1.
         -5    1    5    5    0  502 -0.61245715731E+02  0.15565276693E+02 -0.52065277006E+02  0.82013405024E+02  0.47000000000E+01 0.  1.
         11    1    6    6    0    0  0.26812945343E+02 -0.49891688659E+02 -0.47595605947E+02  0.73982811116E+02  0.00000000000E+00 0. -1.
        -12    1    6    6    0    0  0.12107078388E+02 -0.11099573714E+02 -0.15785982054E+03  0.15871201853E+03  0.00000000000E+00 0.  1.
</event>
<event>
12    1  0.1050869E+000  0.2973128E+03  0.7818608E-02  0.1086817E+00
         21   -1    0    0  501  502  0.00000000000E+00  0.00000000000E+00  0.23150961623E+03  0.23150961623E+03  0.00000000000E+00 0.  1.
         21   -1    0    0  502  503 -0.00000000000E+00 -0.00000000000E+00 -0.38071780833E+03  0.38071780833E+03  0.00000000000E+00 0. -1.
         -6    2    1    2    0  503  0.24103053645E+03 -0.63771057555E+01 -0.91396166485E+02  0.30934607719E+03  0.17089572624E+03 0.  0.
        -24    2    3    3    0    0  0.47826599823E+02 -0.71485807397E+01 -0.46488124772E+01  0.97507578024E+02  0.84543660067E+02 0.  0.
          6    2    1    2  501    0 -0.24103053645E+03  0.63771057555E+01 -0.57812025617E+02  0.30288134737E+03  0.17394968612E+03 0.  0.
         24    2    5    5    0    0 -0.10526425233E+03  0.40152259382E+02 -0.76157320560E+02  0.16170102030E+03  0.87490089379E+02 0.  0.
          5    1    5    5  501    0 -0.13576628411E+03 -0.33775153626E+02  0.18345294943E+02  0.14118032707E+03  0.47000000000E+01 0. -1.
        -11    1    6    6    0    0 -0.10819576750E+03  0.20921393546E+02 -0.34087833963E+02  0.11535167635E+03  0.00000000000E+00 0.  1.
         12    1    6    6    0    0  0.29315151696E+01  0.19230865836E+02 -0.42069486597E+02  0.46349343949E+02  0.00000000000E+00 0. -1.
         -5    1    3    3    0  503  0.19320393662E+03  0.77147498413E+00 -0.86747354007E+02  0.21183849916E+03  0.47000000000E+01 0.  1.
         11    1    4    4    0    0  0.31657538880E+02 -0.30964994813E+02 -0.34426061539E+02  0.56090858300E+02  0.00000000000E+00 0. -1.
        -12    1    4    4    0    0  0.16169060943E+02  0.23816414073E+02  0.29777249061E+02  0.41416719725E+02  0.00000000000E+00 0.  1.
</event>
<event>
12    1  0.1050869E+000  0.2201465E+03  0.7818608E-02  0.1133774E+00
         21   -1    0    0  503  502  0.00000000000E+00  0.00000000000E+00  0.11995820203E+03  0.11995820203E+03  0.00000000000E+00 0. -1.
         21   -1    0    0  501  503 -0.00000000000E+00 -0.00000000000E+00 -0.46130688553E+03  0.46130688553E+03  0.00000000000E+00 0. -1.
          6    2    1    2  501    0 -0.85932480103E+02  0.10825539639E+03 -0.27310434366E+03  0.35078346446E+03  0.17134594955E+03 0.  0.
         24    2    3    3    0    0 -0.11581651647E+03  0.10215855677E+03 -0.26909913282E+03  0.31966500054E+03  0.76951498188E+02 0.  0.
         -6    2    1    2    0  502  0.85932480103E+02 -0.10825539639E+03 -0.68244339838E+02  0.23048162310E+03  0.17135012892E+03 0.  0.
        -24    2    5    5    0    0  0.79547599247E+02 -0.17108204574E+02  0.12977719047E+01  0.11556090005E+03  0.82049535033E+02 0.  0.
          5    1    3    3  501    0  0.29884036367E+02  0.60968396185E+01 -0.40052108361E+01  0.31118463920E+02  0.47000000000E+01 0. -1.
        -11    1    4    4    0    0 -0.11766365054E+03  0.11130496095E+03 -0.26165404479E+03  0.30772775004E+03  0.00000000000E+00 0.  1.
         12    1    4    4    0    0  0.18471340674E+01 -0.91464041758E+01 -0.74450880304E+01  0.11937250495E+02  0.00000000000E+00 0. -1.
         -5    1    5    5    0  502  0.63848808561E+01 -0.91147191817E+02 -0.69542111743E+02  0.11492072305E+03  0.47000000000E+01 0.  1.
         11    1    6    6    0    0  0.91443616047E+02 -0.10077668573E+02 -0.16045303908E+02  0.93386005896E+02  0.00000000000E+00 0. -1.
        -12    1    6    6    0    0 -0.11896016800E+02 -0.70305360010E+01  0.17343075813E+02  0.22174894156E+02  0.00000000000E+00 0.  1.
</event>
<event>
12    1  0.1050869E+000  0.2113738E+03  0.7818608E-02  0.1140718E+00
         21   -1    0    0  503  502  0.00000000000E+00  0.00000000000E+00  0.21677833244E+04  0.21677833244E+04  0.00000000000E+00 0. -1.
         21   -1    0    0  501  503 -0.00000000000E+00 -0.00000000000E+00 -0.21951614889E+02  0.21951614889E+02  0.00000000000E+00 0. -1.
          6    2    1    2  501    0  0.50853058877E+02 -0.10881280512E+03  0.79362961631E+03  0.82129583653E+03  0.17393281191E+03 0.  0.
         24    2    3    3    0    0  0.29387003767E+02 -0.88161072365E+02  0.77726762864E+03  0.78698708797E+03  0.81041590654E+02 0.  0.
         -6    2    1    2    0  502 -0.50853058877E+02  0.10881280512E+03  0.13522020932E+04  0.13684391027E+04  0.17247845358E+03 0.  0.
        -24    2    5    5    0    0  0.44729319665E+01  0.99769969087E+02  0.57947177929E+03  0.59366367324E+03  0.81700428906E+02 0.  0.
          5    1    3    3  501    0  0.21466055110E+02 -0.20651732754E+02  0.16361987671E+02  0.34308748568E+02  0.47000000000E+01 0. -1.
        -13    1    4    4    0    0 -0.16819903602E+01 -0.46658552552E+02  0.13929297822E+03  0.14690943945E+03  0.00000000000E+00 0.  1.
         14    1    4    4    0    0  0.31068994127E+02 -0.41502519813E+02  0.63797465042E+03  0.64007764852E+03  0.00000000000E+00 0. -1.
         -5    1    5    5    0  502 -0.55325990844E+02  0.90428360325E+01  0.77273031389E+03  0.77477542949E+03  0.47000000000E+01 0.  1.
         11    1    6    6    0    0  0.34201795360E+02  0.12197865256E+02  0.18008420978E+03  0.18370866428E+03  0.00000000000E+00 0. -1.
        -12    1    6    6    0    0 -0.29728863393E+02  0.87572103830E+02  0.39938756951E+03  0.40995500896E+03  0.00000000000E+00 0.  1.
</event>
<event>
12    1  0.1050869E+000  0.2143137E+03  0.7818608E-02  0.1138221E+00
         21   -1    0    0  501  502  0.00000000000E+00  0.00000000000E+00  0.35699834851E+03  0.35699834851E+03  0.00000000000E+00 0. -1.
         21   -1    0    0  502  503 -0.00000000000E+00 -0.00000000000E+00 -0.13003727864E+03  0.13003727864E+03  0.00000000000E+00 0. -1.
         -6    2    1    2    0  503  0.68741282578E+02  0.10784817135E+03  0.13926629321E+03  0.25547412332E+03  0.17180027726E+03 0.  0.
        -24    2    3    3    0    0  0.34562050597E+02  0.14133892807E+03  0.12124761329E+03  0.20412615831E+03  0.76126715729E+02 0.  0.
          6    2    1    2  501    0 -0.68741282578E+02 -0.10784817135E+03  0.87694776653E+02  0.23156150383E+03  0.17197024222E+03 0.  0.
         24    2    5    5    0    0 -0.14276937296E+01 -0.33791282722E+02  0.99183277640E+02  0.13071698166E+03  0.78139091583E+02 0.  0.
          5    1    5    5  501    0 -0.67313588848E+02 -0.74056888628E+02 -0.11488500986E+02  0.10084452217E+03  0.47000000000E+01 0. -1.
        -11    1    6    6    0    0 -0.22882104495E+02  0.17768624584E+02  0.39439443753E+02  0.48936534913E+02  0.00000000000E+00 0.  1.
         12    1    6    6    0    0  0.21454410765E+02 -0.51559907306E+02  0.59743833887E+02  0.81780446747E+02  0.00000000000E+00 0. -1.
         -5    1    3    3    0  503  0.34179231981E+02 -0.33490756723E+02  0.18018679923E+02  0.51347965012E+02  0.47000000000E+01 0.  1.
         11    1    4    4    0    0 -0.10109440293E+02  0.93454869682E+02  0.94794257315E+02  0.13349893134E+03  0.00000000000E+00 0. -1.
        -12    1    4    4    0    0  0.44671490890E+02  0.47884058392E+02  0.26453355971E+02  0.70627226963E+02  0.00000000000E+00 0.  1.
</event>
<event>
12    1  0.1050869E+000  0.1953079E+03  0.7818608E-02  0.1154154E+00
         21   -1    0    0  503  502  0.00000000000E+00  0.00000000000E+00  0.52817048512E+02  0.52817048512E+02  0.00000000000E+00 0. -1.
         21   -1    0    0  501  503 -0.00000000000E+00 -0.00000000000E+00 -0.96793365017E+03  0.96793365017E+03  0.00000000000E+00 0. -1.
          6    2    1    2  501    0  0.50725878823E+02 -0.72521145971E+02 -0.19851732875E+03  0.27848574046E+03  0.17410556116E+03 0.  0.
         24    2    3    3    0    0 -0.17568650411E+02 -0.67946862814E+02 -0.17749673341E+03  0.20672905283E+03  0.79412702210E+02 0.  0.
         -6    2    1    2    0  502 -0.50725878823E+02  0.72521145971E+02 -0.71659927291E+03  0.74226495823E+03  0.17207649139E+03 0.  0.
        -24    2    5    5    0    0  0.55332894468E+01  0.93382126633E+02 -0.35140242178E+03  0.37214186437E+03  0.79088977262E+02 0.  0.
          5    1    3    3  501    0  0.68294529234E+02 -0.45742831562E+01 -0.21020595348E+02  0.71756687622E+02  0.47000000000E+01 0. -1.
        -13    1    4    4    0    0  0.15097081295E+02 -0.36779722734E+02 -0.14691022358E+03  0.15219488710E+03  0.00000000000E+00 0.  1.
         14    1    4    4    0    0 -0.32665731706E+02 -0.31167140080E+02 -0.30586509827E+02  0.54534165732E+02  0.00000000000E+00 0. -1.
         -5    1    5    5    0  502 -0.56259168270E+02 -0.20860980662E+02 -0.36519685113E+03  0.37012309386E+03  0.47000000000E+01 0.  1.
         11    1    6    6    0    0  0.32743941831E+02  0.19185454592E+02 -0.17146154924E+03  0.17561124754E+03  0.00000000000E+00 0. -1.
        -12    1    6    6    0    0 -0.27210652385E+02  0.74196672041E+02 -0.17994087254E+03  0.19653061684E+03  0.00000000000E+00 0.  1.
</event>
<event>
12    1  0.1050869E+000  0.5195711E+03  0.7818608E-02  0.1008972E+00
         21   -1    0    0  503  502  0.00000000000E+00  0.00000000000E+00  0.37289049703E+03  0.37289049703E+03  0.00000000000E+00 0. -1.
         21   -1    0    0  501  503 -0.00000000000E+00 -0.00000000000E+00 -0.85119625082E+03  0.85119625082E+03  0.00000000000E+00 0.  1.
          6    2    1    2  501    0  0.27740448569E+03 -0.40333279745E+03  0.17335315824E+01  0.51670293897E+03  0.16537329841E+03 0.  0.
         24    2    3    3    0    0  0.17856025021E+03 -0.35621662578E+03 -0.89524804984E+01  0.40658301627E+03  0.80346467103E+02 0.  0.
         -6    2    1    2    0  502 -0.27740448569E+03  0.40333279745E+03 -0.48003928537E+03  0.70738380888E+03  0.17413656533E+03 0.  0.
        -24    2    5    5    0    0 -0.20344532481E+03  0.18950059196E+03 -0.21491267697E+03  0.35880329011E+03  0.72469771155E+02 0.  0.
          5    1    3    3  501    0  0.98844235479E+02 -0.47116171670E+02  0.10686012081E+02  0.11011992270E+03  0.47000000000E+01 0. -1.
        -11    1    4    4    0    0  0.12544589759E+03 -0.24693524713E+03 -0.43252286741E+02  0.28032918116E+03  0.00000000000E+00 0.  1.
         12    1    4    4    0    0  0.53114352617E+02 -0.10928137865E+03  0.34299806242E+02  0.12625383512E+03  0.00000000000E+00 0. -1.
         -5    1    5    5    0  502 -0.73959160881E+02  0.21383220550E+03 -0.26512660840E+03  0.34858051877E+03  0.47000000000E+01 0.  1.
         13    1    6    6    0    0 -0.55991312894E+01  0.88028445661E+01 -0.33840145829E+02  0.35411803306E+02  0.00000000000E+00 0. -1.
        -14    1    6    6    0    0 -0.19784619352E+03  0.18069774739E+03 -0.18107253114E+03  0.32339148680E+03  0.00000000000E+00 0.  1.
</event>
<event>
12    1  0.1050869E+000  0.1734262E+03  0.7818608E-02  0.1174619E+00
         21   -1    0    0  503  502  0.00000000000E+00  0.00000000000E+00  0.21076405584E+03  0.21076405584E+03  0.00000000000E+00 0.  1.
         21   -1    0    0  501  503 -0.00000000000E+00 -0.00000000000E+00 -0.15061852886E+03  0.15061852886E+03  0.00000000000E+00 0.  1.
          6    2    1    2  501    0 -0.12857365629E+02  0.86354095279E+01  0.74030862574E+02  0.18856621882E+03  0.17273322818E+03 0.  0.
         24    2    3    3    0    0 -0.15207866786E+02  0.60396856340E+01  0.11744450954E+03  0.14475871512E+03  0.83030812154E+02 0.  0.
         -6    2    1    2    0  502  0.12857365629E+02 -0.86354095279E+01 -0.13885335593E+02  0.17281636587E+03  0.17155993594E+03 0.  0.
        -24    2    5    5    0    0  0.65677796921E+02 -0.36002344856E+02 -0.25136843099E+02  0.11209047739E+03  0.79515233736E+02 0.  0.
          5    1    3    3  501    0  0.23505011569E+01  0.25957238939E+01 -0.43413646963E+02  0.43807503705E+02  0.47000000000E+01 0. -1.
        -11    1    4    4    0    0 -0.57402299219E+01  0.41773569347E+02  0.36488344288E+02  0.55761820311E+02  0.00000000000E+00 0.  1.
         12    1    4    4    0    0 -0.94676368638E+01 -0.35733883713E+02  0.80956165249E+02  0.88996894805E+02  0.00000000000E+00 0. -1.
         -5    1    5    5    0  502 -0.52820431292E+02  0.27366935328E+02  0.11251507506E+02  0.60725888485E+02  0.47000000000E+01 0.  1.
         13    1    6    6    0    0 -0.64268719827E+00 -0.29276265261E+02 -0.33967352893E+02  0.44847450507E+02  0.00000000000E+00 0. -1.
        -14    1    6    6    0    0  0.66320484119E+02 -0.67260795954E+01  0.88305097941E+01  0.67243026878E+02  0.00000000000E+00 0.  1.
</event>
<event>
12    1  0.1050869E+000  0.2662326E+03  0.7818608E-02  0.1103514E+00
         21   -1    0    0  503  502  0.00000000000E+00  0.00000000000E+00  0.42838125849E+03  0.42838125849E+03  0.00000000000E+00 0. -1.
         21   -1    0    0  501  503 -0.00000000000E+00 -0.00000000000E+00 -0.18969930843E+03  0.18969930843E+03  0.00000000000E+00 0. -1.
          6    2    1    2  501    0  0.15659534658E+03 -0.12772492283E+03  0.23045700117E+03  0.35212245653E+03  0.17333215662E+03 0.  0.
         24    2    3    3    0    0  0.80903235898E+02 -0.14499622600E+03  0.13949122593E+03  0.23243763795E+03  0.83667283287E+02 0.  0.
         -6    2    1    2    0  502 -0.15659534658E+03  0.12772492283E+03  0.82249488836E+01  0.26595811039E+03  0.17271452809E+03 0.  0.
        -24    2    5    5    0    0 -0.10305241790E+03  0.14370829403E+03 -0.32089518512E+02  0.19689538783E+03  0.80412573268E+02 0.  0.
          5    1    3    3  501    0  0.75692110684E+02  0.17271303165E+02  0.90965775240E+02  0.11968481858E+03  0.47000000000E+01 0. -1.
        -11    1    4    4    0    0  0.93585420100E+02 -0.14097343612E+03  0.11507408843E+03  0.20463085392E+03  0.00000000000E+00 0.  1.
         12    1    4    4    0    0 -0.12682184201E+02 -0.40227898749E+01  0.24417137504E+02  0.27806784035E+02  0.00000000000E+00 0. -1.
         -5    1    5    5    0  502 -0.53542928679E+02 -0.15983371198E+02  0.40314467395E+02  0.69062722563E+02  0.47000000000E+01 0.  1.
         13    1    6    6    0    0 -0.25044905363E+02  0.50443737890E+02 -0.48349259529E+02  0.74225796554E+02  0.00000000000E+00 0. -1.
        -14    1    6    6    0    0 -0.78007512540E+02  0.93264556140E+02  0.16259741018E+02  0.12266959127E+03  0.00000000000E+00 0.  1.
</event>
<event>
12    1  0.1050869E+000  0.2539037E+03  0.7818608E-02  0.1111198E+00
         21   -1    0    0  501  502  0.00000000000E+00  0.00000000000E+00  0.46674997439E+03  0.46674997439E+03  0.00000000000E+00 0.  1.
         21   -1    0    0  502  503 -0.00000000000E+00 -0.00000000000E+00 -0.42876983028E+03  0.42876983028E+03  0.00000000000E+00 0.  1.
         -6    2    1    2    0  503  0.59172546181E+02 -0.17477260420E+03  0.38841128017E+03  0.46403707640E+03  0.17441396824E+03 0.  0.
        -24    2    3    3    0    0  0.85541223883E+02 -0.13540803779E+03  0.37328580461E+03  0.41407963189E+03  0.80417733956E+02 0.  0.
          6    2    1    2  501    0 -0.59172546181E+02  0.17477260420E+03 -0.35043113606E+03  0.43148272827E+03  0.17125568684E+03 0.  0.
         24    2    5    5    0    0 -0.64381022957E+02  0.18265195565E+03 -0.36070462051E+03  0.41675700613E+03  0.77922563403E+02 0.  0.
          5    1    5    5  501    0  0.52084767762E+01 -0.78793514512E+01  0.10273484449E+02  0.14725722133E+02  0.47000000000E+01 0. -1.
        -11    1    6    6    0    0 -0.34968368875E+02  0.89670204149E+02 -0.10180665100E+03  0.14010041585E+03  0.00000000000E+00 0.  1.
         12    1    6    6    0    0 -0.29412654082E+02  0.92981751498E+02 -0.25889796950E+03  0.27665659028E+03  0.00000000000E+00 0. -1.
         -5    1    3    3    0  503 -0.26368677702E+02 -0.39364566406E+02  0.15125475554E+02  0.49957444519E+02  0.47000000000E+01 0.  1.
         13    1    4    4    0    0  0.14418343856E+02 -0.95821018223E+02  0.18180766662E+03  0.20601840650E+03  0.00000000000E+00 0. -1.
        -14    1    4    4    0    0  0.71122880027E+02 -0.39587019567E+02  0.19147813799E+03  0.20806122539E+03  0.00000000000E+00 0.  1.
</event>
<event>
12    1  0.1050869E+000  0.1724203E+03  0.7818608E-02  0.1175502E+00
         21   -1    0    0  503  502  0.00000000000E+00  0.00000000000E+00  0.13643822053E+03  0.13643822053E+03  0.00000000000E+00 0.  1.
         21   -1    0    0  501  503 -0.00000000000E+00 -0.00000000000E+00 -0.21799171817E+03  0.21799171817E+03  0.00000000000E+00 0.  1.
          6    2    1    2  501    0  0.18881338982E+01  0.55657095928E+01 -0.29692024102E+02  0.17495818029E+03  0.17232006958E+03 0.  0.
         24    2    3    3    0    0  0.61996072063E+02 -0.90551762148E+01  0.96977820714E+01  0.10147089321E+03  0.79226170067E+02 0.  0.
         -6    2    1    2    0  502 -0.18881338982E+01 -0.55657095928E+01 -0.51861473536E+02  0.17947175842E+03  0.17171475609E+03 0.  0.
        -24    2    5    5    0    0 -0.38398705361E+02  0.41144198254E+02  0.78879755977E+01  0.95169184368E+02  0.76339032420E+02 0.  0.
          5    1    3    3  501    0 -0.60107938164E+02  0.14620885808E+02 -0.39389806173E+02  0.73487287081E+02  0.47000000000E+01 0. -1.
        -11    1    4    4    0    0  0.12923153617E+02 -0.35124332124E+01  0.40912143348E+02  0.43048212040E+02  0.00000000000E+00 0.  1.
         12    1    4    4    0    0  0.49072918445E+02 -0.55427430023E+01 -0.31214361277E+02  0.58422681166E+02  0.00000000000E+00 0. -1.
         -5    1    5    5    0  502  0.36510571463E+02 -0.46709907846E+02 -0.59749449134E+02  0.84302574049E+02  0.47000000000E+01 0.  1.
         13    1    6    6    0    0  0.49694309819E+01  0.46268149365E+02 -0.10633979746E+02  0.47733828834E+02  0.00000000000E+00 0. -1.
        -14    1    6    6    0    0 -0.43368136343E+02 -0.51239511109E+01  0.18521955344E+02  0.47435355534E+02  0.00000000000E+00 0.  1.
</event>
<event>
12    1  0.1050869E+000  0.1877004E+03  0.7818608E-02  0.1161191E+00
         21   -1    0    0  501  502  0.00000000000E+00  0.00000000000E+00  0.13989074732E+03  0.13989074732E+03  0.00000000000E+00 0. -1.
         21   -1    0    0  502  503 -0.00000000000E+00 -0.00000000000E+00 -0.32075733444E+03  0.32075733444E+03  0.00000000000E+00 0. -1.
         -6    2    1    2    0  503  0.72069318933E+02  0.13031575394E+02 -0.20053192328E+03  0.27467157478E+03  0.17282249000E+03 0.  0.
        -24    2    3    3    0    0  0.35971718164E+02  0.73720370927E+02 -0.12871364064E+03  0.17384438398E+03  0.83222658905E+02 0.  0.
          6    2    1    2  501    0 -0.72069318933E+02 -0.13031575394E+02  0.19665336166E+02  0.18597650698E+03  0.16981380101E+03 0.  0.
         24    2    5    5    0    0 -0.94808115777E+02  0.18961170444E+02 -0.23088558549E+02  0.12774786985E+03  0.80239216813E+02 0.  0.
          5    1    5    5  501    0  0.22738796844E+02 -0.31992745838E+02  0.42753894715E+02  0.58228637126E+02  0.47000000000E+01 0. -1.
        -11    1    6    6    0    0 -0.33431288234E+01  0.26112027096E+02 -0.24544366893E+02  0.35992227155E+02  0.00000000000E+00 0.  1.
         12    1    6    6    0    0 -0.91464986953E+02 -0.71508566522E+01  0.14558083446E+01  0.91755642699E+02  0.00000000000E+00 0. -1.
         -5    1    3    3    0  503  0.36097600769E+02 -0.60688795533E+02 -0.71818282641E+02  0.10082719081E+03  0.47000000000E+01 0.  1.
         13    1    4    4    0    0 -0.37050691264E+00  0.52168292735E+02 -0.11979406527E+03  0.13066095865E+03  0.00000000000E+00 0. -1.
        -14    1    4    4    0    0  0.36342225077E+02  0.21552078192E+02 -0.89195753748E+01  0.43183425325E+02  0.00000000000E+00 0.  1.
</event>
<event>
12    1  0.1050869E+000  0.2573489E+03  0.7818608E-02  0.1108878E+00
         21   -1    0    0  503  502  0.00000000000E+00  0.00000000000E+00  0.16781090198E+03  0.16781090198E+03  0.00000000000E+00 0. -1.
         21   -1    0    0  501  503 -0.00000000000E+00 -0.00000000000E+00 -0.43639400602E+03  0.43639400602E+03  0.00000000000E+00 0. -1.
          6    2    1    2  501    0 -0.18790956584E+03 -0.29930884191E+02 -0.22937764582E+03  0.34473548154E+03  0.17327026597E+03 0.  0.
         24    2    3    3    0    0 -0.10560749134E+03 -0.75032654095E+02 -0.18871661854E+03  0.24234793222E+03  0.79597215610E+02 0.  0.
         -6    2    1    2    0  502  0.18790956584E+03  0.29930884191E+02 -0.39205458219E+02  0.25946942646E+03  0.17199259446E+03 0.  0.
        -24    2    5    5    0    0  0.92093613835E+02 -0.39210826163E+02 -0.51230648454E+02  0.14060829753E+03  0.84423879305E+02 0.  0.
          5    1    3    3  501    0 -0.82302074498E+02  0.45101769904E+02 -0.40661027279E+02  0.10238754931E+03  0.47000000000E+01 0. -1.
        -13    1    4    4    0    0 -0.28612537935E+02 -0.17901370393E+01 -0.35940488586E+01  0.28892890214E+02  0.00000000000E+00 0.  1.
         14    1    4    4    0    0 -0.76994953402E+02 -0.73242517056E+02 -0.18512256968E+03  0.21345504201E+03  0.00000000000E+00 0. -1.
         -5    1    5    5    0  502  0.95815952000E+02  0.69141710354E+02  0.12025190235E+02  0.11886112892E+03  0.47000000000E+01 0.  1.
         13    1    6    6    0    0  0.57745940593E+02 -0.45629226730E+02 -0.69457748771E+02  0.10119782039E+03  0.00000000000E+00 0. -1.
        -14    1    6    6    0    0  0.34347673242E+02  0.64184005671E+01  0.18227100317E+02  0.39410477147E+02  0.00000000000E+00 0.  1.
</event>
<event>
12    1  0.1050869E+000  0.2896251E+03  0.7818608E-02  0.1090626E+00
         21   -1    0    0  501  502  0.00000000000E+00  0.00000000000E+00  0.12854669185E+04  0.12854669185E+04  0.00000000000E+00 0.  1.
         21   -1    0    0  502  503 -0.00000000000E+00 -0.00000000000E+00 -0.65192523416E+02  0.65192523416E+02  0.00000000000E+00 0.  1.
         -6    2    1    2    0  503  0.22998666087E+03 -0.39189560592E+02  0.63271533249E+03  0.69559583954E+03  0.17057313442E+03 0.  0.
        -24    2    3    3    0    0  0.12073654979E+03  0.21348608668E+02  0.22121117239E+03  0.26552814663E+03  0.80856269487E+02 0.  0.
          6    2    1    2  501    0 -0.22998666087E+03  0.39189560592E+02  0.58755906261E+03  0.65506360239E+03  0.17161872066E+03 0.  0.
         24    2    5    5    0    0 -0.11575968176E+03 -0.23650875255E+01  0.16080785781E+03  0.21131449271E+03  0.73408106760E+02 0.  0.
          5    1    5    5  501    0 -0.11422697911E+03  0.41554648117E+02  0.42675120480E+03  0.44374910967E+03  0.47000000000E+01 0. -1.
        -13    1    6    6    0    0 -0.63432341230E+02 -0.26943927088E+02  0.12659123316E+03  0.14413527477E+03  0.00000000000E+00 0.  1.
         14    1    6    6    0    0 -0.52327340528E+02  0.24578839563E+02  0.34216624652E+02  0.67179217944E+02  0.00000000000E+00 0. -1.
         -5    1    3    3    0  503  0.10925011108E+03 -0.60538169260E+02  0.41150416010E+03  0.43006769292E+03  0.47000000000E+01 0.  1.
         13    1    4    4    0    0  0.10718740085E+02  0.96812020130E+01  0.10150027311E+03  0.10252279016E+03  0.00000000000E+00 0. -1.
        -14    1    4    4    0    0  0.11001780971E+03  0.11667406655E+02  0.11971089928E+03  0.16300535647E+03  0.00000000000E+00 0.  1.
</event>
<event>
12    1  0.1050869E+000  0.1741790E+03  0.7818608E-02  0.1174165E+00
         21   -1    0    0  501  502  0.00000000000E+00  0.00000000000E+00  0.15275946912E+04  0.15275946912E+04  0.00000000000E+00 0.  1.
         21   -1    0    0  502  503 -0.00000000000E+00 -0.00000000000E+00 -0.20171541265E+02  0.20171541265E+02  0.00000000000E+00 0.  1.
         -6    2    1    2    0  503  0.10334053372E+02 -0.21796621056E+01  0.61721426047E+03  0.64067736820E+03  0.17147158135E+03 0.  0.
        -24    2    3    3    0    0  0.64561272254E+02 -0.33475274598E+02  0.35241281101E+03  0.36853419951E+03  0.79585896739E+02 0.  0.
          6    2    1    2  501    0 -0.10334053372E+02  0.21796621056E+01  0.89020888944E+03  0.90708886424E+03  0.17385855517E+03 0.  0.
         24    2    5    5    0    0 -0.56411473203E+02 -0.46182742928E+02  0.53067562498E+03  0.54137270505E+03  0.78439064075E+02 0.  0.
          5    1    5    5  501    0  0.46077419830E+02  0.48362405034E+02  0.35953326446E+03  0.36571615919E+03  0.47000000000E+01 0. -1.
        -11    1    6    6    0    0 -0.18675444764E+01 -0.48344937415E+02  0.17631754477E+03  0.18283489079E+03  0.00000000000E+00 0.  1.
         12    1    6    6    0    0 -0.54543928726E+02  0.21621944865E+01  0.35435808021E+03  0.35853781426E+03  0.00000000000E+00 0. -1.
         -5    1    3    3    0  503 -0.54227218882E+02  0.31295612492E+02  0.26480144946E+03  0.27214316869E+03  0.47000000000E+01 0.  1.
         13    1    4    4    0    0  0.91632466879E+01  0.93004075128E+01  0.47455801853E+01  0.13891839369E+02  0.00000000000E+00 0. -1.
        -14    1    4    4    0    0  0.55398025566E+02 -0.42775682111E+02  0.34766723082E+03  0.35464236014E+03  0.00000000000E+00 0.  1.
</event>
<event>
12    1  0.1050869E+000  0.3463182E+03  0.7818608E-02  0.1064149E+00
         21   -1    0    0  501  502  0.00000000000E+00  0.00000000000E+00  0.57376776154E+03  0.57376776154E+03  0.00000000000E+00 0. -1.
         21   -1    0    0  502  503 -0.00000000000E+00 -0.00000000000E+00 -0.20999114919E+03  0.20999114919E+03  0.00000000000E+00 0. -1.
         -6    2    1    2    0  503 -0.13946103211E+03 -0.26672960795E+03  0.15441476835E+03  0.37907552196E+03  0.17105632822E+03 0.  0.
        -24    2    3    3    0    0 -0.48592472052E+02 -0.13934359983E+03  0.17862940545E+02  0.17134304508E+03  0.85214360867E+02 0.  0.
          6    2    1    2  501    0  0.13946103211E+03  0.26672960795E+03  0.20936184400E+03  0.40468338877E+03  0.17129565139E+03 0.  0.
         24    2    5    5    0    0  0.16819705112E+03  0.19880897250E+03  0.16237749393E+03  0.31711289910E+03  0.79867920262E+02 0.  0.
          5    1    5    5  501    0 -0.28736019011E+02  0.67920635458E+02  0.46984350076E+02  0.87570489673E+02  0.47000000000E+01 0. -1.
        -11    1    6    6    0    0  0.37337326382E+02  0.40277252784E+01  0.18556100105E+02  0.41888272385E+02  0.00000000000E+00 0.  1.
         12    1    6    6    0    0  0.13085972474E+03  0.19478124722E+03  0.14382139382E+03  0.27522462671E+03  0.00000000000E+00 0. -1.
         -5    1    3    3    0  503 -0.90868560063E+02 -0.12738600812E+03  0.13655182780E+03  0.20773247688E+03  0.47000000000E+01 0.  1.
         13    1    4    4    0    0 -0.61608381280E+01 -0.67977538785E+02  0.47529963978E+02  0.83174510408E+02  0.00000000000E+00 0. -1.
        -14    1    4    4    0    0 -0.42431633924E+02 -0.71366061048E+02 -0.29667023434E+02  0.88168534673E+02  0.00000000000E+00 0.  1.
</event>
<event>
12    1  0.1050869E+000  0.2525755E+03  0.7818608E-02  0.1111729E+00
         21   -1    0    0  503  502  0.00000000000E+00  0.00000000000E+00  0.30531891715E+03  0.30531891715E+03  0.00000000000E+00 0.  1.
         21   -1    0    0  501  503 -0.00000000000E+00 -0.00000000000E+00 -0.23616743150E+03  0.23616743150E+03  0.00000000000E+00 0. -1.
          6    2    1    2  501    0 -0.11810903555E+03 -0.14211030107E+03  0.12687744156E+03  0.28265219971E+03  0.17218971768E+03 0.  0.
         24    2    3    3    0    0 -0.10787258632E+03 -0.84682762905E+02  0.17892772608E+02  0.15894910719E+03  0.78339020618E+02 0.  0.
         -6    2    1    2    0  502  0.11810903555E+03  0.14211030107E+03 -0.57725955919E+02  0.25883414894E+03  0.17180730113E+03 0.  0.
        -24    2    5    5    0    0  0.11569179940E+03  0.16733306347E+03 -0.70749616799E+02  0.22995965299E+03  0.80566662769E+02 0.  0.
          5    1    3    3  501    0 -0.10236449227E+02 -0.57427538168E+02  0.10898466895E+03  0.12370309252E+03  0.47000000000E+01 0. -1.
        -11    1    4    4    0    0 -0.70946497032E+02 -0.76211849243E+02 -0.19256736651E+02  0.10588896691E+03  0.00000000000E+00 0.  1.
         12    1    4    4    0    0 -0.36926089291E+02 -0.84709136617E+01  0.37149509259E+02  0.53060140282E+02  0.00000000000E+00 0. -1.
         -5    1    5    5    0  502  0.24172361478E+01 -0.25222762394E+02  0.13023660880E+02  0.28874495945E+02  0.47000000000E+01 0.  1.
         11    1    6    6    0    0  0.10782155827E+03  0.10019785300E+03 -0.27570762833E+02  0.14975060980E+03  0.00000000000E+00 0. -1.
        -12    1    6    6    0    0  0.78702411358E+01  0.67135210470E+02 -0.43178853965E+02  0.80209043194E+02  0.00000000000E+00 0.  1.
</event>
<event>
12    1  0.1050869E+000  0.7001636E+03  0.7818608E-02  0.9717048E-01
         21   -1    0    0  503  502  0.00000000000E+00  0.00000000000E+00  0.39639567875E+03  0.39639567875E+03  0.00000000000E+00 0.  1.
         21   -1    0    0  501  503 -0.00000000000E+00 -0.00000000000E+00 -0.12402823469E+04  0.12402823469E+04  0.00000000000E+00 0. -1.
          6    2    1    2  501    0  0.65266669602E+03  0.18551635839E+03 -0.46813103275E+03  0.84205777175E+03  0.17182692400E+03 0.  0.
         24    2    3    3    0    0  0.59750091751E+03  0.20998790072E+03 -0.43723075908E+03  0.77409427849E+03  0.83360364893E+02 0.  0.
         -6    2    1    2    0  502 -0.65266669602E+03 -0.18551635839E+03 -0.37575563544E+03  0.79462025394E+03  0.17273944272E+03 0.  0.
        -24    2    5    5    0    0 -0.26712281652E+03 -0.13864745734E+03 -0.15802514753E+03  0.34934569563E+03  0.80577610228E+02 0.  0.
          5    1    3    3  501    0  0.55165778512E+02 -0.24471542328E+02 -0.30900273663E+02  0.67963493253E+02  0.47000000000E+01 0. -1.
        -13    1    4    4    0    0  0.84574314577E+02  0.60997659764E+02 -0.81539946864E+02  0.13237179502E+03  0.00000000000E+00 0.  1.
         14    1    4    4    0    0  0.51292660293E+03  0.14899024095E+03 -0.35569081222E+03  0.64172248347E+03  0.00000000000E+00 0. -1.
         -5    1    5    5    0  502 -0.38554387950E+03 -0.46868901048E+02 -0.21773048792E+03  0.44527455831E+03  0.47000000000E+01 0.  1.
         13    1    6    6    0    0 -0.17461136049E+03 -0.46791535696E+02 -0.10073492997E+03  0.20694468135E+03  0.00000000000E+00 0. -1.
        -14    1    6    6    0    0 -0.92511456028E+02 -0.91855921647E+02 -0.57290217557E+02  0.14240101427E+03  0.00000000000E+00 0.  1.
</event>
<event>
12    1  0.1050869E+000  0.1956459E+03  0.7818608E-02  0.1153532E+00
         21   -1    0    0  503  502  0.00000000000E+00  0.00000000000E+00  0.75993470227E+03  0.75993470227E+03  0.00000000000E+00 0.  1.
         21   -1    0    0  501  503 -0.00000000000E+00 -0.00000000000E+00 -0.51757485201E+02  0.51757485201E+02  0.00000000000E+00 0.  1.
          6    2    1    2  501    0  0.82983502926E+02 -0.41931693620E+02  0.42214149195E+03  0.46514670857E+03  0.17179491429E+03 0.  0.
         24    2    3    3    0    0 -0.11946299428E+02 -0.44362593116E+02  0.13922987538E+03  0.16668624311E+03  0.79300641275E+02 0.  0.
         -6    2    1    2    0  502 -0.82983502926E+02  0.41931693620E+02  0.28603572512E+03  0.34654547891E+03  0.17214181426E+03 0.  0.
        -24    2    5    5    0    0 -0.85806168368E+02  0.21386062949E+02  0.29906861933E+03  0.32160481509E+03  0.78533787660E+02 0.  0.
          5    1    3    3  501    0  0.94929802354E+02  0.24308994956E+01  0.28291161658E+03  0.29846046546E+03  0.47000000000E+01 0. -1.
        -13    1    4    4    0    0 -0.20438709749E+02  0.14814794768E+02  0.16464475920E+02  0.30137982141E+02  0.00000000000E+00 0.  1.
         14    1    4    4    0    0  0.84924103215E+01 -0.59177387884E+02  0.12276539946E+03  0.13654826097E+03  0.00000000000E+00 0. -1.
         -5    1    5    5    0  502  0.28226654427E+01  0.20545630671E+02 -0.13032894212E+02  0.24940663813E+02  0.47000000000E+01 0.  1.
         13    1    6    6    0    0 -0.43275869449E+02  0.50610403993E+02  0.16274633301E+03  0.17584249423E+03  0.00000000000E+00 0. -1.
        -14    1    6    6    0    0 -0.42530298919E+02 -0.29224341044E+02  0.13632228632E+03  0.14576232086E+03  0.00000000000E+00 0.  1.
</event>
<event>
12    1  0.1050869E+000  0.2454270E+03  0.7818608E-02  0.1116440E+00
         21   -1    0    0  503  502  0.00000000000E+00  0.00000000000E+00  0.25698698959E+03  0.25698698959E+03  0.00000000000E+00 0.  1.
         21   -1    0    0  501  503 -0.00000000000E+00 -0.00000000000E+00 -0.23350279880E+03  0.23350279880E+03  0.00000000000E+00 0.  1.
          6    2    1    2  501    0 -0.57229250324E+01 -0.17424760297E+03  0.21322452650E+02  0.24635153564E+03  0.17274100010E+03 0.  0.
         24    2    3    3    0    0 -0.20257551423E+02 -0.14458633319E+03 -0.44622541515E+02  0.17244701248E+03  0.80194917324E+02 0.  0.
         -6    2    1    2    0  502  0.57229250324E+01  0.17424760297E+03  0.21617381330E+01  0.24413825275E+03  0.17089129391E+03 0.  0.
        -24    2    5    5    0    0 -0.33146453225E+02  0.17978142870E+03  0.20741259573E+02  0.20044911897E+03  0.79558783184E+02 0.  0.
          5    1    3    3  501    0  0.14534626390E+02 -0.29661269774E+02  0.65944994165E+02  0.73904523166E+02  0.47000000000E+01 0. -1.
        -11    1    4    4    0    0 -0.24331508643E+02 -0.71318568920E+02 -0.61364965254E+02  0.97180345473E+02  0.00000000000E+00 0.  1.
         12    1    4    4    0    0  0.40739572200E+01 -0.73267764273E+02  0.16742423739E+02  0.75266667003E+02  0.00000000000E+00 0. -1.
         -5    1    5    5    0  502  0.38869378257E+02 -0.55338257327E+01 -0.18579521440E+02  0.43689133778E+02  0.47000000000E+01 0.  1.
         13    1    6    6    0    0  0.21702778167E+02  0.53245692635E+02  0.24464075286E+02  0.62486841366E+02  0.00000000000E+00 0. -1.
        -14    1    6    6    0    0 -0.54849231391E+02  0.12653573606E+03 -0.37228157127E+01  0.13796227761E+03  0.00000000000E+00 0.  1.
</event>
<event>
12    1  0.1050869E+000  0.1858516E+03  0.7818608E-02  0.1162929E+00
         21   -1    0    0  503  502  0.00000000000E+00  0.00000000000E+00  0.54985524449E+03  0.54985524449E+03  0.00000000000E+00 0.  1.
         21   -1    0    0  501  503 -0.00000000000E+00 -0.00000000000E+00 -0.88772059135E+02  0.88772059135E+02  0.00000000000E+00 0.  1.
          6    2    1    2  501    0  0.57866576335E+02 -0.22776645233E+02  0.40762879868E+03  0.44799783776E+03  0.17513854203E+03 0.  0.
         24    2    3    3    0    0  0.74343506906E+02 -0.48387159579E+02  0.16732785638E+03  0.20572934919E+03  0.80359687449E+02 0.  0.
         -6    2    1    2    0  502 -0.57866576335E+02  0.22776645233E+02  0.53454386673E+02  0.19062946586E+03  0.17208981833E+03 0.  0.
        -24    2    5    5    0    0 -0.32415190243E+02  0.18904071062E+02  0.10180764862E+03  0.13564857985E+03  0.81410266167E+02 0.  0.
          5    1    3    3  501    0 -0.16476930571E+02  0.25610514346E+02  0.24030094229E+03  0.24226848857E+03  0.47000000000E+01 0. -1.
        -13    1    4    4    0    0  0.12370066863E+01 -0.60264477255E+01 -0.85940709057E+01  0.10569120704E+02  0.00000000000E+00 0.  1.
         14    1    4    4    0    0  0.73106500220E+02 -0.42360711853E+02  0.17592192729E+03  0.19516022849E+03  0.00000000000E+00 0. -1.
         -5    1    5    5    0  502 -0.25451386092E+02  0.38725741706E+01 -0.48353261949E+02  0.54980886004E+02  0.47000000000E+01 0.  1.
         13    1    6    6    0    0 -0.22507002461E+02  0.21316898594E+02 -0.22605661536E+01  0.31081915719E+02  0.00000000000E+00 0. -1.
        -14    1    6    6    0    0 -0.99081877823E+01 -0.24128275319E+01  0.10406821478E+03  0.10456666414E+03  0.00000000000E+00 0.  1.
</event>
<event>
12    1  0.1050869E+000  0.1931040E+03  0.7818608E-02  0.1156022E+00
         21   -1    0    0  503  502  0.00000000000E+00  0.00000000000E+00  0.27642581539E+02  0.27642581539E+02  0.00000000000E+00 0. -1.
         21   -1    0    0  501  503 -0.00000000000E+00 -0.00000000000E+00 -0.18192372798E+04  0.18192372798E+04  0.00000000000E+00 0. -1.
          6    2    1    2  501    0  0.56448879707E+02 -0.61229463972E+02 -0.13679005460E+04  0.13812556844E+04  0.17256835939E+03 0.  0.
         24    2    3    3    0    0  0.75407250774E+01 -0.49729255702E+02 -0.34683915754E+03  0.35894814193E+03  0.77566139439E+02 0.  0.
         -6    2    1    2    0  502 -0.56448879707E+02  0.61229463972E+02 -0.42369415228E+03  0.46562417696E+03  0.17422289233E+03 0.  0.
        -24    2    5    5    0    0  0.25949629773E+02  0.26886066349E+02 -0.11717540415E+03  0.14633619366E+03  0.79296673242E+02 0.  0.
          5    1    3    3  501    0  0.48908154630E+02 -0.11500208270E+02 -0.10210613884E+04  0.10223075424E+04  0.47000000000E+01 0. -1.
        -13    1    4    4    0    0 -0.34008234021E+02 -0.21861630864E+02 -0.11897340372E+03  0.12565493097E+03  0.00000000000E+00 0.  1.
         14    1    4    4    0    0  0.41548959099E+02 -0.27867624839E+02 -0.22786575382E+03  0.23329321096E+03  0.00000000000E+00 0. -1.
         -5    1    5    5    0  502 -0.82398509480E+02  0.34343397624E+02 -0.30651874813E+03  0.31928798330E+03  0.47000000000E+01 0.  1.
         11    1    6    6    0    0 -0.35845588668E+01  0.26127888848E+02 -0.92336548540E+00  0.26388790078E+02  0.00000000000E+00 0. -1.
        -12    1    6    6    0    0  0.29534188640E+02  0.75817750028E+00 -0.11625203866E+03  0.11994740358E+03  0.00000000000E+00 0.  1.
</event>
<event>
12    1  0.1050869E+000  0.1802181E+03  0.7818608E-02  0.1168552E+00
         21   -1    0    0  503  502  0.00000000000E+00  0.00000000000E+00  0.16038893580E+03  0.16038893580E+03  0.00000000000E+00 0.  1.
         21   -1    0    0  501  503 -0.00000000000E+00 -0.00000000000E+00 -0.19859706519E+03  0.19859706519E+03  0.00000000000E+00 0.  1.
          6    2    1    2  501    0  0.25273282310E+02 -0.30300645977E+02 -0.28191859792E+02  0.18240983826E+03  0.17584567151E+03 0.  0.
         24    2    3    3    0    0  0.27774523159E+02  0.11740376958E+02 -0.78958965634E+02  0.11628047375E+03  0.79858435577E+02 0.  0.
         -6    2    1    2    0  502 -0.25273282310E+02  0.30300645977E+02 -0.10016269596E+02  0.17657616273E+03  0.17181952055E+03 0.  0.
        -24    2    5    5    0    0  0.25931311336E+02 -0.21987157699E+02 -0.42440111512E+02  0.96393119955E+02  0.79590216096E+02 0.  0.
          5    1    3    3  501    0 -0.25012408486E+01 -0.42041022934E+02  0.50767105842E+02  0.66129364511E+02  0.47000000000E+01 0. -1.
        -11    1    4    4    0    0  0.14875899944E+02 -0.33286087662E+02 -0.22178198408E+02  0.42674682372E+02  0.00000000000E+00 0.  1.
         12    1    4    4    0    0  0.12898623215E+02  0.45026464619E+02 -0.56780767226E+02  0.73605791374E+02  0.00000000000E+00 0. -1.
         -5    1    5    5    0  502 -0.51204593646E+02  0.52287803675E+02  0.32423841916E+02  0.80183042772E+02  0.47000000000E+01 0.  1.
         13    1    6    6    0    0  0.64957485191E+01 -0.10403205377E+01 -0.61625248053E+02  0.61975383929E+02  0.00000000000E+00 0. -1.
        -14    1    6    6    0    0  0.19435562816E+02 -0.20946837161E+02  0.19185136541E+02  0.34417736026E+02  0.00000000000E+00 0.  1.
</event>
<event>
12    1  0.1050869E+000  0.1871743E+03  0.7818608E-02  0.1161112E+00
         21   -1    0    0  501  502  0.00000000000E+00  0.00000000000E+00  0.19759187305E+03  0.19759187305E+03  0.00000000000E+00 0. -1.
         21   -1    0    0  502  503 -0.00000000000E+00 -0.00000000000E+00 -0.32985153617E+03  0.32985153617E+03  0.00000000000E+00 0. -1.
         -6    2    1    2    0  503  0.22327501547E+02  0.69985872910E+02  0.11336836765E+03  0.21883009514E+03  0.17215598747E+03 0.  0.
        -24    2    3    3    0    0 -0.31578364552E+02 -0.14106473690E+02  0.35730986182E+02  0.92232235128E+02  0.77678157261E+02 0.  0.
          6    2    1    2  501    0 -0.22327501547E+02 -0.69985872910E+02 -0.24562803077E+03  0.30861331408E+03  0.17179204985E+03 0.  0.
         24    2    5    5    0    0 -0.32582184886E+02 -0.97301780975E+02 -0.24707856368E+03  0.27902427202E+03  0.79230627875E+02 0.  0.
          5    1    5    5  501    0  0.10254683338E+02  0.27315908065E+02  0.14505329112E+01  0.29589042051E+02  0.47000000000E+01 0. -1.
        -11    1    6    6    0    0 -0.11311536154E+02 -0.64939164861E+02 -0.63931315064E+02  0.91827332689E+02  0.00000000000E+00 0.  1.
         12    1    6    6    0    0 -0.21270648731E+02 -0.32362616114E+02 -0.18314724862E+03  0.18719693934E+03  0.00000000000E+00 0. -1.
         -5    1    3    3    0  503  0.53905866100E+02  0.84092346600E+02  0.77637381472E+02  0.12659786001E+03  0.47000000000E+01 0.  1.
         13    1    4    4    0    0 -0.33004559696E+02  0.15038441765E+02  0.48349336148E+02  0.60440996000E+02  0.00000000000E+00 0. -1.
        -14    1    4    4    0    0  0.14261951442E+01 -0.29144915455E+02 -0.12618349966E+02  0.31791239129E+02  0.00000000000E+00 0.  1.
</event>
<event>
12    1  0.1050869E+000  0.2480576E+03  0.7818608E-02  0.1114745E+00
         21   -1    0    0  501  502  0.00000000000E+00  0.00000000000E+00  0.14876583943E+03  0.14876583943E+03  0.00000000000E+00 0. -1.
         21   -1    0    0  502  503 -0.00000000000E+00 -0.00000000000E+00 -0.43784892695E+03  0.43784892695E+03  0.00000000000E+00 0. -1.
         -6    2    1    2    0  503 -0.89205304656E+01 -0.17682402533E+03 -0.72899900269E+02  0.25854780391E+03  0.17374193405E+03 0.  0.
        -24    2    3    3    0    0  0.53280010628E+02 -0.60856705178E+02 -0.26212899535E+02  0.11883705739E+03  0.83023081180E+02 0.  0.
          6    2    1    2  501    0  0.89205304656E+01  0.17682402533E+03 -0.21618318726E+03  0.32806696247E+03  0.17189080725E+03 0.  0.
         24    2    5    5    0    0  0.27364195554E+02  0.45423614154E+02 -0.32792308065E+02  0.10165905314E+03  0.80293982935E+02 0.  0.
          5    1    5    5  501    0 -0.18443665088E+02  0.13140041118E+03 -0.18339087919E+03  0.22640790934E+03  0.47000000000E+01 0. -1.
        -11    1    6    6    0    0  0.44523784957E+02  0.59289225052E+02 -0.26091076398E+02  0.78602314862E+02  0.00000000000E+00 0.  1.
         12    1    6    6    0    0 -0.17159589403E+02 -0.13865610898E+02 -0.67012316676E+01  0.23056738276E+02  0.00000000000E+00 0. -1.
         -5    1    3    3    0  503 -0.62200541093E+02 -0.11596732015E+03 -0.46687000734E+02  0.13971074652E+03  0.47000000000E+01 0.  1.
         11    1    4    4    0    0  0.81144000461E+01 -0.43603278096E+02  0.22903535232E+02  0.49916543099E+02  0.00000000000E+00 0. -1.
        -12    1    4    4    0    0  0.45165610582E+02 -0.17253427081E+02 -0.49116434767E+02  0.68920514287E+02  0.00000000000E+00 0.  1.
</event>
<event>
12    1  0.1050869E+000  0.1887485E+03  0.7818608E-02  0.1159820E+00
         21   -1    0    0  501  502  0.00000000000E+00  0.00000000000E+00  0.40748303096E+02  0.40748303096E+02  0.00000000000E+00 0.  1.
         21   -1    0    0  502  503 -0.00000000000E+00 -0.00000000000E+00 -0.14342007108E+04  0.14342007108E+04  0.00000000000E+00 0.  1.
         -6    2    1    2    0  503  0.24837306862E+02 -0.72893028481E+02 -0.11582791487E+04  0.11733989239E+04  0.17124299334E+03 0.  0.
        -24    2    3    3    0    0  0.52092391832E+02 -0.10538986828E+03 -0.79783144765E+03  0.81043402273E+03  0.80297227313E+02 0.  0.
          6    2    1    2  501    0 -0.24837306862E+02  0.72893028481E+02 -0.23517325895E+03  0.30155008999E+03  0.17232443134E+03 0.  0.
         24    2    5    5    0    0 -0.35369044836E+02  0.11467262390E+03 -0.19505672102E+03  0.24249182458E+03  0.79714368642E+02 0.  0.
          5    1    5    5  501    0  0.10531737974E+02 -0.41779595419E+02 -0.40116537930E+02  0.59058265413E+02  0.47000000000E+01 0. -1.
        -13    1    6    6    0    0 -0.53219393345E+01  0.11338081447E+03 -0.14570547418E+03  0.18469872045E+03  0.00000000000E+00 0.  1.
         14    1    6    6    0    0 -0.30047105501E+02  0.12918094275E+01 -0.49351246840E+02  0.57793104132E+02  0.00000000000E+00 0. -1.
         -5    1    3    3    0  503 -0.27255084970E+02  0.32496839800E+02 -0.36044770109E+03  0.36296490116E+03  0.47000000000E+01 0.  1.
         13    1    4    4    0    0  0.56098454240E+02 -0.61760996321E+02 -0.32360595019E+03  0.33418897084E+03  0.00000000000E+00 0. -1.
        -14    1    4    4    0    0 -0.40060624086E+01 -0.43628871960E+02 -0.47422549747E+03  0.47624505189E+03  0.00000000000E+00 0.  1.
</event>
<event>
12    1  0.1050869E+000  0.2334687E+03  0.7818608E-02  0.1124286E+00
         21   -1    0    0  501  502  0.00000000000E+00  0.00000000000E+00  0.20106333943E+03  0.20106333943E+03  0.00000000000E+00 0.  1.
         21   -1    0    0  502  503 -0.00000000000E+00 -0.00000000000E+00 -0.35080179285E+03  0.35080179285E+03  0.00000000000E+00 0.  1.
         -6    2    1    2    0  503  0.15640766431E+03  0.13899955322E+02 -0.20679529808E+03  0.31188450276E+03  0.17277465538E+03 0.  0.
        -24    2    3    3    0    0  0.11285471052E+03 -0.88180993835E+01 -0.48715576164E+02  0.14628179060E+03  0.78811232308E+02 0.  0.
          6    2    1    2  501    0 -0.15640766431E+03 -0.13899955322E+02  0.57056844657E+02  0.23998062952E+03  0.17227493378E+03 0.  0.
         24    2    5    5    0    0 -0.49639440054E+02  0.44247721886E+02 -0.45358604045E+01  0.10361216765E+03  0.79328256973E+02 0.  0.
          5    1    5    5  501    0 -0.10676822426E+03 -0.58147677208E+02  0.61592705062E+02  0.13636846187E+03  0.47000000000E+01 0. -1.
        -13    1    6    6    0    0 -0.53225142131E+02  0.30766661624E+02  0.28492060046E+02  0.67759137450E+02  0.00000000000E+00 0.  1.
         14    1    6    6    0    0  0.35857020770E+01  0.13481060262E+02 -0.33027920450E+02  0.35853030199E+02  0.00000000000E+00 0. -1.
         -5    1    3    3    0  503  0.43552953796E+02  0.22718054706E+02 -0.15807972191E+03  0.16560271216E+03  0.47000000000E+01 0.  1.
         13    1    4    4    0    0  0.10673165155E+03 -0.39609885519E+01 -0.67217825694E+02  0.12619655686E+03  0.00000000000E+00 0. -1.
        -14    1    4    4    0    0  0.61230589696E+01 -0.48571108315E+01  0.18502249530E+02  0.20085233741E+02  0.00000000000E+00 0.  1.
</event>
<event>
12    1  0.1050869E+000  0.1809948E+03  0.7818608E-02  0.1167210E+00
         21   -1    0    0  503  502  0.00000000000E+00  0.00000000000E+00  0.75315013782E+02  0.75315013782E+02  0.00000000000E+00 0. -1.
         21   -1    0    0  501  503 -0.00000000000E+00 -0.00000000000E+00 -0.43377988099E+03  0.43377988099E+03  0.00000000000E+00 0. -1.
          6    2    1    2  501    0 -0.42173360518E+02  0.30781917647E+02 -0.19914735953E+03  0.26910738006E+03  0.17330029545E+03 0.  0.
         24    2    3    3    0    0 -0.70731829895E+02  0.62008462465E+02 -0.92759167217E+02  0.15451584138E+03  0.80142628831E+02 0.  0.
         -6    2    1    2    0  502  0.42173360518E+02 -0.30781917647E+02 -0.15931750768E+03  0.23998751471E+03  0.17171435634E+03 0.  0.
        -24    2    5    5    0    0 -0.68439723426E+01 -0.12753148181E+02 -0.95992524023E+01  0.81351511824E+02  0.79476034648E+02 0.  0.
          5    1    3    3  501    0  0.28558469376E+02 -0.31226544818E+02 -0.10638819231E+03  0.11459153868E+03  0.47000000000E+01 0. -1.
        -13    1    4    4    0    0  0.19771570230E+01  0.15343080483E+02  0.11379625288E+02  0.19204560403E+02  0.00000000000E+00 0.  1.
         14    1    4    4    0    0 -0.72708986918E+02  0.46665381982E+02 -0.10413879251E+03  0.13531128097E+03  0.00000000000E+00 0. -1.
         -5    1    5    5    0  502  0.49017332861E+02 -0.18028769466E+02 -0.14971825527E+03  0.15863600288E+03  0.47000000000E+01 0.  1.
         13    1    6    6    0    0 -0.40965947907E+02 -0.19300123883E+01 -0.17669347529E+02  0.44655791090E+02  0.00000000000E+00 0. -1.
        -14    1    6    6    0    0  0.34121975564E+02 -0.10823135793E+02  0.80700951271E+01  0.36695720734E+02  0.00000000000E+00 0.  1.
</event>
<event>
12    1  0.1050869E+000  0.2201507E+03  0.7818608E-02  0.1133999E+00
         21   -1    0    0  503  502  0.00000000000E+00  0.00000000000E+00  0.50535588229E+03  0.50535588229E+03  0.00000000000E+00 0.  1.
         21   -1    0    0  501  503 -0.00000000000E+00 -0.00000000000E+00 -0.13567089563E+03  0.13567089563E+03  0.00000000000E+00 0.  1.
          6    2    1    2  501    0 -0.35403235654E+01  0.13806724369E+03  0.35988278947E+03  0.42187908447E+03  0.17143874149E+03 0.  0.
         24    2    3    3    0    0 -0.36390707555E+02  0.45715185511E+02  0.85690215135E+02  0.13065458653E+03  0.79458455996E+02 0.  0.
         -6    2    1    2    0  502  0.35403235654E+01 -0.13806724369E+03  0.98021971789E+01  0.21914769345E+03  0.16986621443E+03 0.  0.
        -24    2    5    5    0    0 -0.35276626274E+02 -0.16062109981E+03  0.15397980319E+02  0.17366324765E+03  0.53649303093E+02 0.  0.
          5    1    3    3  501    0  0.32850383990E+02  0.92352058178E+02  0.27419257434E+03  0.29122449794E+03  0.47000000000E+01 0. -1.
        -13    1    4    4    0    0 -0.29037432061E+02 -0.60882901907E+01  0.70003216185E+02  0.76030849097E+02  0.00000000000E+00 0.  1.
         14    1    4    4    0    0 -0.73532754940E+01  0.51803475702E+02  0.15686998949E+02  0.54623737434E+02  0.00000000000E+00 0. -1.
         -5    1    5    5    0  502  0.38816949839E+02  0.22553856118E+02 -0.55957831406E+01  0.45484445798E+02  0.47000000000E+01 0.  1.
         11    1    6    6    0    0 -0.27126522529E+02 -0.44744953250E+02 -0.13339184328E+02  0.53999008365E+02  0.00000000000E+00 0. -1.
        -12    1    6    6    0    0 -0.81501037446E+01 -0.11587614656E+03  0.28737164647E+02  0.11966423929E+03  0.00000000000E+00 0.  1.
</event>
<event>
12    1  0.1050869E+000  0.2875167E+03  0.7818608E-02  0.1091835E+00
         21   -1    0    0  501  502  0.00000000000E+00  0.00000000000E+00  0.22379906790E+04  0.22379906790E+04  0.00000000000E+00 0.  1.
         21   -1    0    0  502  503 -0.00000000000E+00 -0.00000000000E+00 -0.39511677407E+02  0.39511677407E+02  0.00000000000E+00 0.  1.
         -6    2    1    2    0  503  0.69909195615E+02  0.21768176647E+03  0.13972530920E+04  0.14262510478E+04  0.17205580794E+03 0.  0.
        -24    2    3    3    0    0  0.47743650025E+02  0.16983169031E+03  0.67776766509E+03  0.70482030907E+03  0.79248981536E+02 0.  0.
          6    2    1    2  501    0 -0.69909195615E+02 -0.21768176647E+03  0.80122590955E+03  0.85125130861E+03  0.17433641381E+03 0.  0.
         24    2    5    5    0    0  0.27003876861E+02 -0.66598039112E+02  0.26994188892E+03  0.29044542698E+03  0.79532474369E+02 0.  0.
          5    1    5    5  501    0 -0.96913072476E+02 -0.15108372736E+03  0.53128402063E+03  0.56080588163E+03  0.47000000000E+01 0. -1.
        -11    1    6    6    0    0 -0.20402560392E+02  0.12792865526E+01  0.91151503480E+02  0.93415724754E+02  0.00000000000E+00 0.  1.
         12    1    6    6    0    0  0.47406437254E+02 -0.67877325664E+02  0.17879038544E+03  0.19702970223E+03  0.00000000000E+00 0. -1.
         -5    1    3    3    0  503  0.22165545590E+02  0.47850076162E+02  0.71948542696E+03  0.72143073874E+03  0.47000000000E+01 0.  1.
         11    1    4    4    0    0  0.32307327948E+02  0.15931551903E+02  0.18025232281E+03  0.18381642381E+03  0.00000000000E+00 0. -1.
        -12    1    4    4    0    0  0.15436322078E+02  0.15390013841E+03  0.49751534229E+03  0.52100388526E+03  0.00000000000E+00 0.  1.
</event>
<event>
12    1  0.1050869E+000  0.2158952E+03  0.7818608E-02  0.1137587E+00
         21   -1    0    0  503  502  0.00000000000E+00  0.00000000000E+00  0.20887079805E+04  0.20887079805E+04  0.00000000000E+00 0. -1.
         21   -1    0    0  501  503 -0.00000000000E+00 -0.00000000000E+00 -0.36868307054E+02  0.36868307054E+02  0.00000000000E+00 0. -1.
          6    2    1    2  501    0 -0.13057282156E+03 -0.11799855742E+02  0.34631133255E+03  0.40643764425E+03  0.16754557974E+03 0.  0.
         24    2    3    3    0    0 -0.10221675241E+02 -0.15438741947E+02  0.96271088784E+02  0.12887710417E+03  0.83656129753E+02 0.  0.
         -6    2    1    2    0  502  0.13057282156E+03  0.11799855742E+02  0.17055283409E+04  0.17191386433E+04  0.17152916649E+03 0.  0.
        -24    2    5    5    0    0  0.15142466927E+03 -0.30734022212E+01  0.11148622124E+04  0.11278987777E+04  0.79366389417E+02 0.  0.
          5    1    3    3  501    0 -0.12035114631E+03  0.36388862049E+01  0.25004024376E+03  0.27756054008E+03  0.47000000000E+01 0. -1.
        -11    1    4    4    0    0 -0.18017932381E+02 -0.48263049392E+02  0.64356489044E+02  0.82436190511E+02  0.00000000000E+00 0.  1.
         12    1    4    4    0    0  0.77962571392E+01  0.32824307446E+02  0.31914599740E+02  0.46440913656E+02  0.00000000000E+00 0. -1.
         -5    1    5    5    0  502 -0.20851847711E+02  0.14873257963E+02  0.59066612847E+03  0.59123986560E+03  0.47000000000E+01 0.  1.
         11    1    6    6    0    0  0.28071577370E+02 -0.32177294305E+02  0.21997263658E+03  0.22407889809E+03  0.00000000000E+00 0. -1.
        -12    1    6    6    0    0  0.12335309190E+03  0.29103892084E+02  0.89488957584E+03  0.90381987960E+03  0.00000000000E+00 0.  1.
</event>
<event>
12    1  0.1050869E+000  0.1824231E+03  0.7818608E-02  0.1165958E+00
         21   -1    0    0  501  502  0.00000000000E+00  0.00000000000E+00  0.11187543894E+04  0.11187543894E+04  0.00000000000E+00 0.  1.
         21   -1    0    0  502  503 -0.00000000000E+00 -0.00000000000E+00 -0.68173416371E+02  0.68173416371E+02  0.00000000000E+00 0.  1.
         -6    2    1    2    0  503  0.35587433921E+02  0.40202638546E+02  0.97399242099E+03  0.99092855918E+03  0.17434292545E+03 0.  0.
        -24    2    3    3    0    0 -0.49173564188E+00  0.85615824382E+02  0.55117705996E+03  0.56412768823E+03  0.84342077338E+02 0.  0.
          6    2    1    2  501    0 -0.35587433921E+02 -0.40202638546E+02  0.76588552056E+02  0.19599924661E+03  0.17224163482E+03 0.  0.
         24    2    5    5    0    0  0.55894637202E+01 -0.68583194108E+02  0.60972527038E+01  0.10944229358E+03  0.84885467040E+02 0.  0.
          5    1    5    5  501    0 -0.41176897641E+02  0.28380555562E+02  0.70491299352E+02  0.86556953029E+02  0.47000000000E+01 0. -1.
        -13    1    6    6    0    0  0.24479375305E+02  0.11207142860E+02  0.53160832979E+01  0.27442678587E+02  0.00000000000E+00 0.  1.
         14    1    6    6    0    0 -0.18889911585E+02 -0.79790336967E+02  0.78116940593E+00  0.81999614991E+02  0.00000000000E+00 0. -1.
         -5    1    3    3    0  503  0.36079169563E+02 -0.45413185836E+02  0.42281536102E+03  0.42680087095E+03  0.47000000000E+01 0.  1.
         13    1    4    4    0    0  0.27683541041E+02  0.57392360797E+02  0.46284218868E+03  0.46720782650E+03  0.00000000000E+00 0. -1.
        -14    1    4    4    0    0 -0.28175276683E+02  0.28223463585E+02  0.88334871285E+02  0.96919861730E+02  0.00000000000E+00 0.  1.
</event>
<event>
12    1  0.1050869E+000  0.2435465E+03  0.7818608E-02  0.1117657E+00
         21   -1    0    0  501  502  0.00000000000E+00  0.00000000000E+00  0.13398886370E+04  0.13398886370E+04  0.00000000000E+00 0.  1.
         21   -1    0    0  502  503 -0.00000000000E+00 -0.00000000000E+00 -0.51975510205E+02  0.51975510205E+02  0.00000000000E+00 0.  1.
         -6    2    1    2    0  503 -0.16493738132E+03  0.48392716098E+02  0.37346045392E+03  0.44585602640E+03  0.17253605685E+03 0.  0.
        -24    2    3    3    0    0 -0.19318126340E+03  0.38046302031E+02  0.30757204502E+03  0.37327408935E+03  0.77242872015E+02 0.  0.
          6    2    1    2  501    0  0.16493738132E+03 -0.48392716098E+02  0.91445267286E+03  0.94600812078E+03  0.17076732403E+03 0.  0.
         24    2    5    5    0    0  0.69083815472E+02 -0.11150256615E+02  0.70249122923E+03  0.71037142911E+03  0.78973023073E+02 0.  0.
          5    1    5    5  501    0  0.95853565851E+02 -0.37242459484E+02  0.21196144363E+03  0.23563669167E+03  0.47000000000E+01 0. -1.
        -11    1    6    6    0    0  0.96463747587E+00  0.20772238918E+02  0.60213370328E+02  0.63702954417E+02  0.00000000000E+00 0.  1.
         12    1    6    6    0    0  0.68119177996E+02 -0.31922495532E+02  0.64227785890E+03  0.64666847469E+03  0.00000000000E+00 0. -1.
         -5    1    3    3    0  503  0.28243882080E+02  0.10346414067E+02  0.65888408898E+02  0.72581937051E+02  0.47000000000E+01 0.  1.
         13    1    4    4    0    0 -0.47197985153E+02  0.34192927968E+01  0.14276317166E+03  0.15040167734E+03  0.00000000000E+00 0. -1.
        -14    1    4    4    0    0 -0.14598327825E+03  0.34627009234E+02  0.16480887336E+03  0.22287241201E+03  0.00000000000E+00 0.  1.
</event>
<event>
12    1  0.1050869E+000  0.1897186E+03  0.7818608E-02  0.1159746E+00
         21   -1    0    0  503  502  0.00000000000E+00  0.00000000000E+00  0.29269309096E+03  0.29269309096E+03  0.00000000000E+00 0. -1.
         21   -1    0    0  501  503 -0.00000000000E+00 -0.00000000000E+00 -0.12600533858E+03  0.12600533858E+03  0.00000000000E+00 0. -1.
          6    2    1    2  501    0  0.18057333125E+02  0.78536812090E+02  0.12972821594E+03  0.22983156169E+03  0.17175284163E+03 0.  0.
         24    2    3    3    0    0  0.15019785451E+01  0.53415783846E+02 -0.99184022911E+00  0.95611708803E+02  0.79278705904E+02 0.  0.
         -6    2    1    2    0  502 -0.18057333125E+02 -0.78536812090E+02  0.36959536448E+02  0.18886686785E+03  0.16676506920E+03 0.  0.
        -24    2    5    5    0    0  0.39363661998E+02 -0.62390912528E+02 -0.13968683449E+02  0.11029438962E+03  0.80793591405E+02 0.  0.
          5    1    3    3  501    0  0.16555354580E+02  0.25121028244E+02  0.13072005617E+03  0.13421985289E+03  0.47000000000E+01 0. -1.
        -13    1    4    4    0    0 -0.18399548455E+02 -0.10074638396E+02  0.16643536192E+02  0.26777770989E+02  0.00000000000E+00 0.  1.
         14    1    4    4    0    0  0.19901527000E+02  0.63490422242E+02 -0.17635376421E+02  0.68833937814E+02  0.00000000000E+00 0. -1.
         -5    1    5    5    0  502 -0.57420995123E+02 -0.16145899562E+02  0.50928219897E+02  0.78572478232E+02  0.47000000000E+01 0.  1.
         11    1    6    6    0    0  0.37666396289E+02  0.65388833558E+01 -0.15685071846E+02  0.41322341218E+02  0.00000000000E+00 0. -1.
        -12    1    6    6    0    0  0.16972657089E+01 -0.68929795884E+02  0.17163883972E+01  0.68972048400E+02  0.00000000000E+00 0.  1.
</event>
<event>
12    1  0.1050869E+000  0.2352414E+03  0.7818608E-02  0.1123395E+00
         21   -1    0    0  503  502  0.00000000000E+00  0.00000000000E+00  0.87786895718E+03  0.87786895718E+03  0.00000000000E+00 0.  1.
         21   -1    0    0  501  503 -0.00000000000E+00 -0.00000000000E+00 -0.76689011947E+02  0.76689011947E+02  0.00000000000E+00 0.  1.
          6    2    1    2  501    0  0.12137834270E+03 -0.10421382630E+03  0.60798000196E+03  0.65190350218E+03  0.17246817012E+03 0.  0.
         24    2    3    3    0    0  0.10434885404E+03 -0.73430065579E+01  0.40730108589E+03  0.42836809882E+03  0.81623834957E+02 0.  0.
         -6    2    1    2    0  502 -0.12137834270E+03  0.10421382630E+03  0.19319994327E+03  0.30265446694E+03  0.16935254534E+03 0.  0.
        -24    2    5    5    0    0 -0.34612119602E+02 -0.35961266986E+01  0.11355726255E+03  0.14291589919E+03  0.79490700162E+02 0.  0.
          5    1    3    3  501    0  0.17029488659E+02 -0.96870819744E+02  0.20067891607E+03  0.22353540337E+03  0.47000000000E+01 0. -1.
        -11    1    4    4    0    0  0.16166702542E+02 -0.87481944870E+01  0.22608118901E+03  0.22682724088E+03  0.00000000000E+00 0.  1.
         12    1    4    4    0    0  0.88182151497E+02  0.14051879292E+01  0.18121989687E+03  0.20154085794E+03  0.00000000000E+00 0. -1.
         -5    1    5    5    0  502 -0.86766223096E+02  0.10780995300E+03  0.79642680724E+02  0.15973856776E+03  0.47000000000E+01 0.  1.
         13    1    6    6    0    0 -0.14329303521E+02  0.16791170927E+02  0.11195785510E+03  0.11411324936E+03  0.00000000000E+00 0. -1.
        -14    1    6    6    0    0 -0.20282816081E+02 -0.20387297626E+02  0.15994074422E+01  0.28802649823E+02  0.00000000000E+00 0.  1.
</event>
<event>
12    1  0.1050869E+000  0.2467081E+03  0.7818608E-02  0.1115780E+00
         21   -1    0    0  503  502  0.00000000000E+00  0.00000000000E+00  0.33310872068E+03  0.33310872068E+03  0.00000000000E+00 0. -1.
         21   -1    0    0  501  503 -0.00000000000E+00 -0.00000000000E+00 -0.18716022928E+03  0.18716022928E+03  0.00000000000E+00 0. -1.
          6    2    1    2  501    0  0.77160130532E+02 -0.15786203751E+03  0.25423667992E+02  0.24569449526E+03  0.16983908113E+03 0.  0.
         24    2    3    3    0    0  0.17025017127E+02 -0.74651333244E+01 -0.82053545286E+00  0.81541186226E+02  0.79389623686E+02 0.  0.
         -6    2    1    2    0  502 -0.77160130532E+02  0.15786203751E+03  0.12052482340E+03  0.27457445470E+03  0.17317849025E+03 0.  0.
        -24    2    5    5    0    0 -0.93943355377E+02  0.70281059474E+02  0.24550015352E+02  0.14348151770E+03  0.78863561471E+02 0.  0.
          5    1    3    3  501    0  0.60135113405E+02 -0.15039690419E+03  0.26244203445E+02  0.16415330904E+03  0.47000000000E+01 0. -1.
        -13    1    4    4    0    0  0.36561752196E+02 -0.14877616017E+02 -0.27164159823E+02  0.47916560403E+02  0.00000000000E+00 0.  1.
         14    1    4    4    0    0 -0.19536735069E+02  0.74124826921E+01  0.26343624370E+02  0.33624625823E+02  0.00000000000E+00 0. -1.
         -5    1    5    5    0  502  0.16783224845E+02  0.87580978039E+02  0.95974808051E+02  0.13109293700E+03  0.47000000000E+01 0.  1.
         11    1    6    6    0    0 -0.53265384767E+02  0.81037993948E+02  0.28874951720E+02  0.10118359805E+03  0.00000000000E+00 0. -1.
        -12    1    6    6    0    0 -0.40677970610E+02 -0.10756934475E+02 -0.43249363682E+01  0.42297919652E+02  0.00000000000E+00 0.  1.
</event>
<event>
12    1  0.1050869E+000  0.2002119E+03  0.7818608E-02  0.1149995E+00
         21   -1    0    0  503  502  0.00000000000E+00  0.00000000000E+00  0.10188748373E+04  0.10188748373E+04  0.00000000000E+00 0. -1.
         21   -1    0    0  501  503 -0.00000000000E+00 -0.00000000000E+00 -0.62307343498E+02  0.62307343498E+02  0.00000000000E+00 0. -1.
          6    2    1    2  501    0 -0.94150300665E+02  0.38593896163E+02  0.80779758045E+03  0.83174825530E+03  0.17004252785E+03 0.  0.
         24    2    3    3    0    0 -0.65044587364E+02 -0.42939590245E+02  0.46397178367E+03  0.47715959151E+03  0.79604352763E+02 0.  0.
         -6    2    1    2    0  502  0.94150300665E+02 -0.38593896163E+02  0.14876991337E+03  0.24943392552E+03  0.17242687766E+03 0.  0.
        -24    2    5    5    0    0  0.82116370842E+02 -0.76235104034E+02  0.15764421515E+03  0.20865992364E+03  0.78309486759E+02 0.  0.
          5    1    3    3  501    0 -0.29105713301E+02  0.81533486408E+02  0.34382579678E+03  0.35458866379E+03  0.47000000000E+01 0. -1.
        -11    1    4    4    0    0  0.18255911882E+02 -0.59035585818E+01  0.58501353973E+02  0.61567351244E+02  0.00000000000E+00 0.  1.
         12    1    4    4    0    0 -0.83300499247E+02 -0.37036031663E+02  0.40547042969E+03  0.41559224027E+03  0.00000000000E+00 0. -1.
         -5    1    5    5    0  502  0.12033929824E+02  0.37641207871E+02 -0.88743017778E+01  0.40774001877E+02  0.47000000000E+01 0.  1.
         11    1    6    6    0    0  0.78958110922E+02 -0.25302351994E+02  0.11710971272E+03  0.14348964112E+03  0.00000000000E+00 0. -1.
        -12    1    6    6    0    0  0.31582599193E+01 -0.50932752040E+02  0.40534502434E+02  0.65170282520E+02  0.00000000000E+00 0.  1.
</event>
<event>
12    1  0.1050869E+000  0.1764694E+03  0.7818608E-02  0.1171613E+00
         21   -1    0    0  503  502  0.00000000000E+00  0.00000000000E+00  0.16132971653E+04  0.16132971653E+04  0.00000000000E+00 0.  1.
         21   -1    0    0  501  503 -0.00000000000E+00 -0.00000000000E+00 -0.21552015683E+02  0.21552015683E+02  0.00000000000E+00 0.  1.
          6    2    1    2  501    0  0.39840265973E+02 -0.16898448879E+02  0.10715467918E+04  0.10859806553E+04  0.17108083543E+03 0.  0.
         24    2    3    3    0    0 -0.28523479192E+02 -0.43615184315E+02  0.75220123380E+03  0.75827490156E+03  0.80363281647E+02 0.  0.
         -6    2    1    2    0  502 -0.39840265973E+02  0.16898448879E+02  0.52019835780E+03  0.54886852569E+03  0.16963939008E+03 0.  0.
        -24    2    5    5    0    0 -0.33928414962E+02  0.10000055503E+02  0.52888262455E+03  0.53545046686E+03  0.75757728734E+02 0.  0.
          5    1    3    3  501    0  0.68363745165E+02  0.26716735436E+02  0.31934555799E+03  0.32770575371E+03  0.47000000000E+01 0. -1.
        -11    1    4    4    0    0  0.12930339465E+02 -0.51887397704E+02  0.40970979491E+03  0.41318471870E+03  0.00000000000E+00 0.  1.
         12    1    4    4    0    0 -0.41453818657E+02  0.82722133890E+01  0.34249143889E+03  0.34509018286E+03  0.00000000000E+00 0. -1.
         -5    1    5    5    0  502 -0.59118510112E+01  0.68983933756E+01 -0.86842667516E+01  0.13418058822E+02  0.47000000000E+01 0.  1.
         11    1    6    6    0    0  0.99810324806E+01  0.95101269844E+01  0.37942633221E+03  0.37967671129E+03  0.00000000000E+00 0. -1.
        -12    1    6    6    0    0 -0.43909447443E+02  0.48992851849E+00  0.14945629234E+03  0.15577375557E+03  0.00000000000E+00 0.  1.
</event>
<event>
12    1  0.1050869E+000  0.2052805E+03  0.7818608E-02  0.1145874E+00
         21   -1    0    0  503  502  0.00000000000E+00  0.00000000000E+00  0.24514098359E+04  0.24514098359E+04  0.00000000000E+00 0.  1.
         21   -1    0    0  501  503 -0.00000000000E+00 -0.00000000000E+00 -0.17000280289E+02  0.17000280289E+02  0.00000000000E+00 0.  1.
          6    2    1    2  501    0  0.89193998252E+02  0.58252860986E+02  0.12516771103E+04  0.12679951350E+04  0.17253147234E+03 0.  0.
         24    2    3    3    0    0  0.25055806341E+02  0.27261699011E+02  0.10577001163E+04  0.10612989233E+04  0.79087766184E+02 0.  0.
         -6    2    1    2    0  502 -0.89193998252E+02 -0.58252860986E+02  0.11827324453E+04  0.12004149812E+04  0.17547399976E+03 0.  0.
        -24    2    5    5    0    0 -0.10397443634E+03 -0.67261571987E+02  0.11632978707E+04  0.11739686031E+04  0.98007869352E+02 0.  0.
          5    1    3    3  501    0  0.64138191910E+02  0.30991161975E+02  0.19397699391E+03  0.20669621174E+03  0.47000000000E+01 0. -1.
        -11    1    4    4    0    0 -0.18841398888E+02  0.20660203152E+02  0.15458469237E+03  0.15709318707E+03  0.00000000000E+00 0.  1.
         12    1    4    4    0    0  0.43897205229E+02  0.66014958592E+01  0.90311542397E+03  0.90420573621E+03  0.00000000000E+00 0. -1.
         -5    1    5    5    0  502  0.14780438089E+02  0.90087110011E+01  0.19434574610E+02  0.26446378094E+02  0.47000000000E+01 0.  1.
         13    1    6    6    0    0 -0.89931650678E+02 -0.57498901621E+02  0.54067910402E+03  0.55111497802E+03  0.00000000000E+00 0. -1.
        -14    1    6    6    0    0 -0.14042785663E+02 -0.97626703664E+01  0.62261876672E+03  0.62285362505E+03  0.00000000000E+00 0.  1.
</event>
<event>
12    1  0.1050869E+000  0.2237265E+03  0.7818608E-02  0.1131162E+00
         21   -1    0    0  503  502  0.00000000000E+00  0.00000000000E+00  0.13729879927E+03  0.13729879927E+03  0.00000000000E+00 0. -1.
         21   -1    0    0  501  503 -0.00000000000E+00 -0.00000000000E+00 -0.36630595061E+03  0.36630595061E+03  0.00000000000E+00 0. -1.
          6    2    1    2  501    0 -0.83141696933E+01  0.14407567779E+03 -0.95920849105E+02  0.24328667505E+03  0.17076495723E+03 0.  0.
         24    2    3    3    0    0 -0.62373565733E+02  0.67752947122E+02 -0.85795957190E+02  0.14909441978E+03  0.79920436648E+02 0.  0.
         -6    2    1    2    0  502  0.83141696933E+01 -0.14407567779E+03 -0.13308630223E+03  0.26031807483E+03  0.17095791849E+03 0.  0.
        -24    2    5    5    0    0 -0.35530359187E+01 -0.38357249474E+02 -0.12548301985E+03  0.15356079612E+03  0.79693332113E+02 0.  0.
          5    1    3    3  501    0  0.54059396040E+02  0.76322730663E+02 -0.10124891915E+02  0.94192255267E+02  0.47000000000E+01 0. -1.
        -11    1    4    4    0    0 -0.16055900780E+02  0.73526073133E+02 -0.53148149194E+02  0.92133604852E+02  0.00000000000E+00 0.  1.
         12    1    4    4    0    0 -0.46317664953E+02 -0.57731260102E+01 -0.32647807996E+02  0.56960814931E+02  0.00000000000E+00 0. -1.
         -5    1    5    5    0  502  0.11867205612E+02 -0.10571842831E+03 -0.76032823820E+01  0.10675727871E+03  0.47000000000E+01 0.  1.
         13    1    6    6    0    0  0.17251598522E+02  0.19174483829E+01  0.27290189743E+01  0.17571050180E+02  0.00000000000E+00 0. -1.
        -14    1    6    6    0    0 -0.20804634441E+02 -0.40274697856E+02 -0.12821203883E+03  0.13598974594E+03  0.00000000000E+00 0.  1.
</event>
<event>
12    1  0.1050869E+000  0.2719242E+03  0.7818608E-02  0.1100246E+00
         21   -1    0    0  501  502  0.00000000000E+00  0.00000000000E+00  0.35336891190E+03  0.35336891190E+03  0.00000000000E+00 0. -1.
         21   -1    0    0  502  503 -0.00000000000E+00 -0.00000000000E+00 -0.22918047663E+03  0.22918047663E+03  0.00000000000E+00 0. -1.
         -6    2    1    2    0  503  0.16392752823E+03 -0.13076972646E+03  0.14866538556E+03  0.30952577269E+03  0.17242926441E+03 0.  0.
        -24    2    3    3    0    0  0.95946024847E+02 -0.14859626841E+03  0.13907714337E+03  0.23843924240E+03  0.78894422098E+02 0.  0.
          6    2    1    2  501    0 -0.16392752823E+03  0.13076972646E+03 -0.24476950285E+02  0.27302361584E+03  0.17311793044E+03 0.  0.
         24    2    5    5    0    0 -0.67535713941E+02  0.11590262114E+03 -0.68407128919E+02  0.16595184889E+03  0.69756652863E+02 0.  0.
          5    1    5    5  501    0 -0.96391814290E+02  0.14867105320E+02  0.43930178634E+02  0.10707176695E+03  0.47000000000E+01 0. -1.
        -13    1    6    6    0    0 -0.47694805244E+02  0.11247162917E+03 -0.35233849879E+02  0.12714592401E+03  0.00000000000E+00 0.  1.
         14    1    6    6    0    0 -0.19840908697E+02  0.34309919762E+01 -0.33173279040E+02  0.38805924884E+02  0.00000000000E+00 0. -1.
         -5    1    3    3    0  503  0.67981503385E+02  0.17826541949E+02  0.95882421887E+01  0.71086530289E+02  0.47000000000E+01 0.  1.
         13    1    4    4    0    0  0.29524270352E+02 -0.11532029272E+03  0.78641472032E+02  0.14267071731E+03  0.00000000000E+00 0. -1.
        -14    1    4    4    0    0  0.66421754495E+02 -0.33275975688E+02  0.60435671338E+02  0.95768525092E+02  0.00000000000E+00 0.  1.
</event>
<event>
12    1  0.1050869E+000  0.2271262E+03  0.7818608E-02  0.1128772E+00
         21   -1    0    0  501  502  0.00000000000E+00  0.00000000000E+00  0.60487911483E+02  0.60487911483E+02  0.00000000000E+00 0.  1.
         21   -1    0    0  502  503 -0.00000000000E+00 -0.00000000000E+00 -0.94490990247E+03  0.94490990247E+03  0.00000000000E+00 0.  1.
         -6    2    1    2    0  503  0.95056050900E+02 -0.11122035063E+03 -0.28408910903E+03  0.36372094528E+03  0.17372589029E+03 0.  0.
        -24    2    3    3    0    0  0.12597403606E+03 -0.11566328026E+03 -0.26973113574E+03  0.32902364240E+03  0.79083623488E+02 0.  0.
          6    2    1    2  501    0 -0.95056050900E+02  0.11122035063E+03 -0.60033288196E+03  0.64167686868E+03  0.17304339175E+03 0.  0.
         24    2    5    5    0    0 -0.73123471199E+02  0.48640426570E+02 -0.17782477514E+03  0.21397080690E+03  0.80305183002E+02 0.  0.
          5    1    5    5  501    0 -0.21932579701E+02  0.62579924061E+02 -0.42250810683E+03  0.42770606178E+03  0.47000000000E+01 0. -1.
        -11    1    6    6    0    0 -0.57917186830E+02  0.47055817945E+02 -0.18315980840E+03  0.19777807246E+03  0.00000000000E+00 0.  1.
         12    1    6    6    0    0 -0.15206284369E+02  0.15846086249E+01  0.53350332636E+01  0.16192734443E+02  0.00000000000E+00 0. -1.
         -5    1    3    3    0  503 -0.30917985164E+02  0.44429296289E+01 -0.14357973285E+02  0.34697302880E+02  0.47000000000E+01 0.  1.
         13    1    4    4    0    0  0.19321974067E+02 -0.45711238708E+02 -0.13339504413E+03  0.14232741769E+03  0.00000000000E+00 0. -1.
        -14    1    4    4    0    0  0.10665206200E+03 -0.69952041551E+02 -0.13633609161E+03  0.18669622471E+03  0.00000000000E+00 0.  1.
</event>
<event>
12    1  0.1050869E+000  0.2029770E+03  0.7818608E-02  0.1147681E+00
         21   -1    0    0  501  502  0.00000000000E+00  0.00000000000E+00  0.12263028341E+02  0.12263028341E+02  0.00000000000E+00 0. -1.
         21   -1    0    0  502  503 -0.00000000000E+00 -0.00000000000E+00 -0.35331065424E+04  0.35331065424E+04  0.00000000000E+00 0. -1.
         -6    2    1    2    0  503 -0.96996545187E+01  0.10412645367E+03 -0.21815909323E+04  0.21908227289E+04  0.17154833653E+03 0.  0.
        -24    2    3    3    0    0 -0.35021029444E+02  0.38021055453E+02 -0.18114747180E+04  0.18139683833E+04  0.79803310796E+02 0.  0.
          6    2    1    2  501    0  0.96996545187E+01 -0.10412645367E+03 -0.13392525817E+04  0.13545468418E+04  0.17396340832E+03 0.  0.
         24    2    5    5    0    0  0.50870022243E+01 -0.14144494295E+03 -0.10532734601E+04  0.10660679099E+04  0.84162088620E+02 0.  0.
          5    1    5    5  501    0  0.46126522944E+01  0.37318489285E+02 -0.28597912154E+03  0.28847893192E+03  0.47000000000E+01 0. -1.
        -13    1    6    6    0    0  0.19621071802E+02 -0.34868680109E+02 -0.54870805842E+03  0.55016483410E+03  0.00000000000E+00 0.  1.
         14    1    6    6    0    0 -0.14534069578E+02 -0.10657626284E+03 -0.50456540173E+03  0.51590307578E+03  0.00000000000E+00 0. -1.
         -5    1    3    3    0  503  0.25321374925E+02  0.66105398215E+02 -0.37011621433E+03  0.37685434561E+03  0.47000000000E+01 0.  1.
         13    1    4    4    0    0 -0.34745105538E+01 -0.17956885098E+02 -0.13156154070E+03  0.13282680806E+03  0.00000000000E+00 0. -1.
        -14    1    4    4    0    0 -0.31546518890E+02  0.55977940552E+02 -0.16799131773E+04  0.16811415752E+04  0.00000000000E+00 0.  1.
</event>
<event>
12    1  0.1050869E+000  0.2291607E+03  0.7818608E-02  0.1127317E+00
         21   -1    0    0  503  502  0.00000000000E+00  0.00000000000E+00  0.28807240595E+04  0.28807240595E+04  0.00000000000E+00 0.  1.
         21   -1    0    0  501  503 -0.00000000000E+00 -0.00000000000E+00 -0.35501629434E+02  0.35501629434E+02  0.00000000000E+00 0.  1.
          6    2    1    2  501    0 -0.11657261255E+02  0.15048051354E+03  0.24400097623E+04  0.24507024206E+04  0.17179766418E+03 0.  0.
         24    2    3    3    0    0  0.22033527664E+01  0.17813316637E+03  0.21108985653E+04  0.21201074178E+04  0.85008414729E+02 0.  0.
         -6    2    1    2    0  502  0.11657261255E+02 -0.15048051354E+03  0.40521266773E+03  0.46552326832E+03  0.17243645369E+03 0.  0.
        -24    2    5    5    0    0  0.55843953269E+02 -0.10272714189E+03  0.16687050974E+03  0.21841616092E+03  0.78666635430E+02 0.  0.
          5    1    3    3  501    0 -0.13860614021E+02 -0.27652652824E+02  0.32911119702E+03  0.33059500273E+03  0.47000000000E+01 0. -1.
        -11    1    4    4    0    0  0.28049098491E+02  0.77622973450E+02  0.60018432086E+03  0.60583273016E+03  0.00000000000E+00 0.  1.
         12    1    4    4    0    0 -0.25845745724E+02  0.10051019292E+03  0.15107142444E+04  0.15142746877E+04  0.00000000000E+00 0. -1.
         -5    1    5    5    0  502 -0.44186692014E+02 -0.47753371652E+02  0.23834215799E+03  0.24710710740E+03  0.47000000000E+01 0.  1.
         13    1    6    6    0    0  0.18210669588E+02 -0.96125054401E+02  0.14333436717E+03  0.17354076001E+03  0.00000000000E+00 0. -1.
        -14    1    6    6    0    0  0.37633283681E+02 -0.66020874891E+01  0.23536142570E+02  0.44875400910E+02  0.00000000000E+00 0.  1.
</event>
<event>
12    1  0.1050869E+000  0.2452550E+03  0.7818608E-02  0.1116390E+00
         21   -1    0    0  503  502  0.00000000000E+00  0.00000000000E+00  0.41209420929E+03  0.41209420929E+03  0.00000000000E+00 0. -1.
         21   -1    0    0  501  503 -0.00000000000E+00 -0.00000000000E+00 -0.15663671856E+03  0.15663671856E+03  0.00000000000E+00 0. -1.
          6    2    1    2  501    0 -0.16643106479E+03  0.52529510752E+02  0.20251606546E+03  0.31782691409E+03  0.17187943951E+03 0.  0.
         24    2    3    3    0    0 -0.17004502457E+03  0.16032074794E+02  0.20676141906E+03  0.28060814781E+03  0.82573060974E+02 0.  0.
         -6    2    1    2    0  502  0.16643106479E+03 -0.52529510752E+02  0.52941425264E+02  0.25090401375E+03  0.17231187069E+03 0.  0.
        -24    2    5    5    0    0  0.74408728133E+02 -0.79198442954E+00  0.87723054621E+02  0.13965324380E+03  0.79185908664E+02 0.  0.
          5    1    3    3  501    0  0.36139597846E+01  0.36497435958E+02 -0.42453536029E+01  0.37218766289E+02  0.47000000000E+01 0. -1.
        -13    1    4    4    0    0 -0.10440523361E+03  0.37145326391E+02  0.81275141237E+02  0.13742589516E+03  0.00000000000E+00 0.  1.
         14    1    4    4    0    0 -0.65639790969E+02 -0.21113251597E+02  0.12548627782E+03  0.14318225265E+03  0.00000000000E+00 0. -1.
         -5    1    5    5    0  502  0.92022336657E+02 -0.51737526323E+02 -0.34781629357E+02  0.11125076995E+03  0.47000000000E+01 0.  1.
         11    1    6    6    0    0  0.32489372431E+02  0.36023280894E+01  0.91666117835E+02  0.97320158485E+02  0.00000000000E+00 0. -1.
        -12    1    6    6    0    0  0.41919355702E+02 -0.43943125189E+01 -0.39430632142E+01  0.42333085317E+02  0.00000000000E+00 0.  1.
</event>
<event>
12    1  0.1050869E+000  0.2442042E+03  0.7818608E-02  0.1117221E+00
         21   -1    0    0  503  502  0.00000000000E+00  0.00000000000E+00  0.21051462917E+03  0.21051462917E+03  0.00000000000E+00 0. -1.
         21   -1    0    0  501  503 -0.00000000000E+00 -0.00000000000E+00 -0.39702224276E+03  0.39702224276E+03  0.00000000000E+00 0. -1.
          6    2    1    2  501    0  0.15613666798E+03  0.70724696756E+02  0.70166917899E+02  0.25408476766E+03  0.17393973373E+03 0.  0.
         24    2    3    3    0    0  0.11487705461E+03  0.33881602215E+02 -0.22008123270E+02  0.14648319925E+03  0.81414185049E+02 0.  0.
         -6    2    1    2    0  502 -0.15613666798E+03 -0.70724696756E+02 -0.25667453148E+03  0.35345210427E+03  0.17223801287E+03 0.  0.
        -24    2    5    5    0    0 -0.12250876176E+03  0.10951989004E+02 -0.11244090226E+03  0.18425592561E+03  0.78606277422E+02 0.  0.
          5    1    3    3  501    0  0.41259613374E+02  0.36843094540E+02  0.92175041169E+02  0.10760156842E+03  0.47000000000E+01 0. -1.
        -11    1    4    4    0    0  0.12228331335E+02  0.39856217824E+02 -0.20401649027E+01  0.41739818630E+02  0.00000000000E+00 0.  1.
         12    1    4    4    0    0  0.10264872327E+03 -0.59746156085E+01 -0.19967958368E+02  0.10474338062E+03  0.00000000000E+00 0. -1.
         -5    1    5    5    0  502 -0.33627906227E+02 -0.81676685759E+02 -0.14423362922E+03  0.16919617866E+03  0.47000000000E+01 0.  1.
         11    1    6    6    0    0 -0.11108978670E+03  0.79254087394E+01 -0.12472540364E+03  0.16721297535E+03  0.00000000000E+00 0. -1.
        -12    1    6    6    0    0 -0.11418975057E+02  0.30265802643E+01  0.12284501377E+02  0.17042950259E+02  0.00000000000E+00 0.  1.
</event>
<event>
12    1  0.1050869E+000  0.2555655E+03  0.7818608E-02  0.1109982E+00
         21   -1    0    0  501  502  0.00000000000E+00  0.00000000000E+00  0.75794420124E+02  0.75794420124E+02  0.00000000000E+00 0.  1.
         21   -1    0    0  502  503 -0.00000000000E+00 -0.00000000000E+00 -0.98122806722E+03  0.98122806722E+03  0.00000000000E+00 0.  1.
         -6    2    1    2    0  503  0.56820026982E+02 -0.17985947894E+03 -0.26510232772E+03  0.36757493186E+03  0.17103841304E+03 0.  0.
        -24    2    3    3    0    0  0.53178424700E+01 -0.17298066090E+03 -0.15578376351E+03  0.24644511873E+03  0.80721912008E+02 0.  0.
          6    2    1    2  501    0 -0.56820026982E+02  0.17985947894E+03 -0.64033131937E+03  0.68944755548E+03  0.17244067258E+03 0.  0.
         24    2    5    5    0    0 -0.95252220387E+02  0.94882966403E+02 -0.32643947951E+03  0.36195981784E+03  0.79852446088E+02 0.  0.
          5    1    5    5  501    0  0.38432193405E+02  0.84976512542E+02 -0.31389183986E+03  0.32748773764E+03  0.47000000000E+01 0. -1.
        -11    1    6    6    0    0 -0.58367027455E+01 -0.12485551032E+02 -0.13732169705E+02  0.19455810657E+02  0.00000000000E+00 0.  1.
         12    1    6    6    0    0 -0.89415517641E+02  0.10736851743E+03 -0.31270730980E+03  0.34250400718E+03  0.00000000000E+00 0. -1.
         -5    1    3    3    0  503  0.51502184512E+02 -0.68788180415E+01 -0.10931856421E+03  0.12112981313E+03  0.47000000000E+01 0.  1.
         11    1    4    4    0    0  0.12355187626E+02 -0.10348913919E+03 -0.40832646443E+02  0.11193729319E+03  0.00000000000E+00 0. -1.
        -12    1    4    4    0    0 -0.70373451559E+01 -0.69491521715E+02 -0.11495111706E+03  0.13450782554E+03  0.00000000000E+00 0.  1.
</event>
<event>
12    1  0.1050869E+000  0.2663159E+03  0.7818608E-02  0.1104215E+00
         21   -1    0    0  503  502  0.00000000000E+00  0.00000000000E+00  0.14211733825E+03  0.14211733825E+03  0.00000000000E+00 0. -1.
         21   -1    0    0  501  503 -0.00000000000E+00 -0.00000000000E+00 -0.66631460681E+03  0.66631460681E+03  0.00000000000E+00 0. -1.
          6    2    1    2  501    0  0.67439565064E+02 -0.18378018097E+03 -0.46871342824E+03  0.53639772125E+03  0.17235715156E+03 0.  0.
         24    2    3    3    0    0  0.43646462945E+02 -0.20890002211E+02 -0.21550042918E+03  0.23434104621E+03  0.78319123087E+02 0.  0.
         -6    2    1    2    0  502 -0.67439565064E+02  0.18378018097E+03 -0.55483840315E+02  0.27203422382E+03  0.18055722788E+03 0.  0.
        -24    2    5    5    0    0 -0.75522443588E+00  0.48214913652E+02 -0.72213973561E+02  0.11995947133E+03  0.82765744850E+02 0.  0.
          5    1    3    3  501    0  0.23793102120E+02 -0.16289017875E+03 -0.25321299906E+03  0.30205667504E+03  0.47000000000E+01 0. -1.
        -11    1    4    4    0    0  0.59069693262E+02 -0.36342941980E+02 -0.14904589530E+03  0.16439196148E+03  0.00000000000E+00 0.  1.
         12    1    4    4    0    0 -0.15423230317E+02  0.15452939769E+02 -0.66454533882E+02  0.69949084729E+02  0.00000000000E+00 0. -1.
         -5    1    5    5    0  502 -0.66684340628E+02  0.13556526731E+03  0.16730133247E+02  0.15207475249E+03  0.47000000000E+01 0.  1.
         11    1    6    6    0    0 -0.33097033280E+02  0.23144380864E+02 -0.42267279880E+01  0.40607157091E+02  0.00000000000E+00 0. -1.
        -12    1    6    6    0    0  0.32341808844E+02  0.25070532788E+02 -0.67987245573E+02  0.79352314234E+02  0.00000000000E+00 0.  1.
</event>
<event>
12    1  0.1050869E+000  0.1969701E+03  0.7818608E-02  0.1152909E+00
         21   -1    0    0  503  502  0.00000000000E+00  0.00000000000E+00  0.90277764662E+02  0.90277764662E+02  0.00000000000E+00 0. -1.
         21   -1    0    0  501  503 -0.00000000000E+00 -0.00000000000E+00 -0.44268638174E+03  0.44268638174E+03  0.00000000000E+00 0. -1.
          6    2    1    2  501    0  0.93522831876E+02  0.10956928874E+02 -0.22999315244E+03  0.30105302575E+03  0.16991026977E+03 0.  0.
         24    2    3    3    0    0  0.62215834150E+02  0.60924620431E+02 -0.89230218621E+02  0.14836644532E+03  0.80423571105E+02 0.  0.
         -6    2    1    2    0  502 -0.93522831876E+02 -0.10956928874E+02 -0.12241546464E+03  0.23191112065E+03  0.17300476157E+03 0.  0.
        -24    2    5    5    0    0 -0.80744915372E+02 -0.41146321779E+02 -0.16693676801E+02  0.12112366189E+03  0.78609805180E+02 0.  0.
          5    1    3    3  501    0  0.31306997726E+02 -0.49967691557E+02 -0.14076293382E+03  0.15268658043E+03  0.47000000000E+01 0. -1.
        -11    1    4    4    0    0  0.38816394902E+02 -0.33547089486E+01 -0.41272620196E+01  0.39179087242E+02  0.00000000000E+00 0.  1.
         12    1    4    4    0    0  0.23399439248E+02  0.64279329380E+02 -0.85102956602E+02  0.10918735808E+03  0.00000000000E+00 0. -1.
         -5    1    5    5    0  502 -0.12777916503E+02  0.30189392904E+02 -0.10572178784E+03  0.11078745876E+03  0.47000000000E+01 0.  1.
         11    1    6    6    0    0  0.14573251209E+02 -0.15826547536E+01  0.53284086003E+01  0.15597319804E+02  0.00000000000E+00 0. -1.
        -12    1    6    6    0    0 -0.95318166581E+02 -0.39563667025E+02 -0.22022085401E+02  0.10552634209E+03  0.00000000000E+00 0.  1.
</event>
<event>
12    1  0.1050869E+000  0.4141896E+03  0.7818608E-02  0.1039070E+00
         21   -1    0    0  501  502  0.00000000000E+00  0.00000000000E+00  0.34994743913E+03  0.34994743913E+03  0.00000000000E+00 0.  1.
         21   -1    0    0  502  503 -0.00000000000E+00 -0.00000000000E+00 -0.51664752320E+03  0.51664752320E+03  0.00000000000E+00 0.  1.
         -6    2    1    2    0  503 -0.37266776455E+03 -0.50532771766E+02  0.17042448070E+02  0.41454003364E+03  0.17354587491E+03 0.  0.
        -24    2    3    3    0    0 -0.10249120036E+03 -0.56846415475E+02 -0.16832916267E+02  0.14213432841E+03  0.78631158829E+02 0.  0.
          6    2    1    2  501    0  0.37266776455E+03  0.50532771766E+02 -0.18374253213E+03  0.45205492869E+03  0.17075572224E+03 0.  0.
         24    2    5    5    0    0  0.22950965496E+03  0.64350473518E+02 -0.53963481084E+02  0.25827705246E+03  0.83542284958E+02 0.  0.
          5    1    5    5  501    0  0.14315810959E+03 -0.13817701752E+02 -0.12977905105E+03  0.19377787622E+03  0.47000000000E+01 0. -1.
        -11    1    6    6    0    0  0.20258275055E+02  0.17516216855E+02  0.17802065338E+02  0.32157877595E+02  0.00000000000E+00 0.  1.
         12    1    6    6    0    0  0.20925137991E+03  0.46834256663E+02 -0.71765546422E+02  0.22611917487E+03  0.00000000000E+00 0. -1.
         -5    1    3    3    0  503 -0.27017656419E+03  0.63136437084E+01  0.33875364338E+02  0.27240570524E+03  0.47000000000E+01 0.  1.
         11    1    4    4    0    0 -0.30593797965E+02  0.58714019915E+01  0.23022341711E+02  0.38736056241E+02  0.00000000000E+00 0. -1.
        -12    1    4    4    0    0 -0.71897402392E+02 -0.62717817466E+02 -0.39855257978E+02  0.10339827217E+03  0.00000000000E+00 0.  1.
</event>
<event>
12    1  0.1050869E+000  0.2079610E+03  0.7818608E-02  0.1143667E+00
         21   -1    0    0  501  502  0.00000000000E+00  0.00000000000E+00  0.40270206534E+02  0.40270206534E+02  0.00000000000E+00 0.  1.
         21   -1    0    0  502  503 -0.00000000000E+00 -0.00000000000E+00 -0.10625895659E+04  0.10625895659E+04  0.00000000000E+00 0.  1.
         -6    2    1    2    0  503 -0.48454656534E+02 -0.10106183955E+03 -0.49883780706E+03  0.54045066365E+03  0.17517537765E+03 0.  0.
        -24    2    3    3    0    0  0.22138859772E+02 -0.33049954809E+02 -0.12346050421E+03  0.15245675840E+03  0.80113285164E+02 0.  0.
          6    2    1    2  501    0  0.48454656534E+02  0.10106183955E+03 -0.52348155226E+03  0.56240910873E+03  0.17236508022E+03 0.  0.
         24    2    5    5    0    0 -0.86797881487E+01  0.54439806848E+02 -0.12841716450E+03  0.16049379529E+03  0.78919318913E+02 0.  0.
          5    1    5    5  501    0  0.57134444683E+02  0.46622032703E+02 -0.39506438776E+03  0.40191531344E+03  0.47000000000E+01 0. -1.
        -13    1    6    6    0    0  0.30759354296E+02  0.23991389330E+02 -0.26828836162E+02  0.47344599359E+02  0.00000000000E+00 0.  1.
         14    1    6    6    0    0 -0.39439142445E+02  0.30448417518E+02 -0.10158832834E+03  0.11314919594E+03  0.00000000000E+00 0. -1.
         -5    1    3    3    0  503 -0.70593516306E+02 -0.68011884742E+02 -0.37537730286E+03  0.38799390525E+03  0.47000000000E+01 0.  1.
         11    1    4    4    0    0 -0.64750370172E+00 -0.26453506004E+02  0.28002314491E+00  0.26462910912E+02  0.00000000000E+00 0. -1.
        -12    1    4    4    0    0  0.22786363473E+02 -0.65964488050E+01 -0.12374052735E+03  0.12599384749E+03  0.00000000000E+00 0.  1.
</event>
<event>
12    1  0.1050869E+000  0.3428307E+03  0.7818608E-02  0.1065621E+00
         21   -1    0    0  503  502  0.00000000000E+00  0.00000000000E+00  0.42514051930E+03  0.42514051930E+03  0.00000000000E+00 0. -1.
         21   -1    0    0  501  503 -0.00000000000E+00 -0.00000000000E+00 -0.65532468996E+03  0.65532468996E+03  0.00000000000E+00 0.  1.
          6    2    1    2  501    0  0.15871032942E+03  0.25008075826E+03 -0.52597840299E+03  0.62784245157E+03  0.17263692904E+03 0.  0.
         24    2    3    3    0    0  0.16213009450E+03  0.26114455040E+03 -0.52717181677E+03  0.61528790952E+03  0.78653947474E+02 0.  0.
         -6    2    1    2    0  502 -0.15871032942E+03 -0.25008075826E+03  0.29579423233E+03  0.45262275768E+03  0.17217368724E+03 0.  0.
        -24    2    5    5    0    0 -0.11648973161E+03 -0.26006419246E+03  0.24288287169E+03  0.38403740996E+03  0.85377989640E+02 0.  0.
          5    1    3    3  501    0 -0.34197650789E+01 -0.11063792142E+02  0.11934137817E+01  0.12554542055E+02  0.47000000000E+01 0. -1.
        -11    1    4    4    0    0  0.16669773260E+03  0.22501577443E+03 -0.47970349846E+03  0.55545988085E+03  0.00000000000E+00 0.  1.
         12    1    4    4    0    0 -0.45676381038E+01  0.36128775973E+02 -0.47468318309E+02  0.59828028667E+02  0.00000000000E+00 0. -1.
         -5    1    5    5    0  502 -0.42220597807E+02  0.99834342033E+01  0.52911360639E+02  0.68585347723E+02  0.47000000000E+01 0.  1.
         11    1    6    6    0    0 -0.50167896446E+01 -0.11142230827E+03  0.85341437018E+02  0.14043952375E+03  0.00000000000E+00 0. -1.
        -12    1    6    6    0    0 -0.11147294197E+03 -0.14864188419E+03  0.15754143467E+03  0.24359788621E+03  0.00000000000E+00 0.  1.
</event>
<event>
12    1  0.1050869E+000  0.2601590E+03  0.7818608E-02  0.1107238E+00
         21   -1    0    0  503  502  0.00000000000E+00  0.00000000000E+00  0.73294226991E+03  0.73294226991E+03  0.00000000000E+00 0. -1.
         21   -1    0    0  501  503 -0.00000000000E+00 -0.00000000000E+00 -0.15264547573E+03  0.15264547573E+03  0.00000000000E+00 0. -1.
          6    2    1    2  501    0 -0.13226187494E+03  0.14222168846E+03  0.10383061088E+02  0.25910201412E+03  0.17118946677E+03 0.  0.
         24    2    3    3    0    0 -0.10711396340E+03  0.13082756379E+03  0.64437546332E+02  0.19822327476E+03  0.80938351065E+02 0.  0.
         -6    2    1    2    0  502  0.13226187494E+03 -0.14222168846E+03  0.56991373309E+03  0.62648573151E+03  0.17309678330E+03 0.  0.
        -24    2    5    5    0    0  0.10649902404E+03 -0.49283370326E+02  0.45295940666E+03  0.47482275008E+03  0.80706426046E+02 0.  0.
          5    1    3    3  501    0 -0.25147911538E+02  0.11394124666E+02 -0.54054485244E+02  0.60878739364E+02  0.47000000000E+01 0. -1.
        -11    1    4    4    0    0 -0.50647507745E+02  0.34264661165E+02  0.60906543693E+02  0.86306686358E+02  0.00000000000E+00 0.  1.
         12    1    4    4    0    0 -0.56466455658E+02  0.96562902629E+02  0.35310026390E+01  0.11191658840E+03  0.00000000000E+00 0. -1.
         -5    1    5    5    0  502  0.25762850896E+02 -0.92938318134E+02  0.11695432644E+03  0.15166298143E+03  0.47000000000E+01 0.  1.
         13    1    6    6    0    0 -0.93052042140E+01  0.28257765292E+01  0.97142988695E+01  0.13745524398E+02  0.00000000000E+00 0. -1.
        -14    1    6    6    0    0  0.11580422826E+03 -0.52109146855E+02  0.44324510779E+03  0.46107722568E+03  0.00000000000E+00 0.  1.
</event>
<event>
12    1  0.1050869E+000  0.1755513E+03  0.7818608E-02  0.1172373E+00
         21   -1    0    0  501  502  0.00000000000E+00  0.00000000000E+00  0.12396212927E+03  0.12396212927E+03  0.00000000000E+00 0. -1.
         21   -1    0    0  502  503 -0.00000000000E+00 -0.00000000000E+00 -0.26719381118E+03  0.26719381118E+03  0.00000000000E+00 0. -1.
         -6    2    1    2    0  503  0.10478789663E+02 -0.31484039282E+02 -0.18686041380E+02  0.17654295638E+03  0.17238676731E+03 0.  0.
        -24    2    3    3    0    0 -0.52312686005E+02 -0.32537971425E+02 -0.43606978365E+02  0.10881538969E+03  0.78382930347E+02 0.  0.
          6    2    1    2  501    0 -0.10478789663E+02  0.31484039282E+02 -0.12454564053E+03  0.21461298408E+03  0.17159856234E+03 0.  0.
         24    2    5    5    0    0 -0.47478841469E+02  0.28585942621E+02 -0.14334348984E+03  0.17274590946E+03  0.78882169426E+02 0.  0.
          5    1    5    5  501    0  0.37000051806E+02  0.28980966612E+01  0.18797849313E+02  0.41867074613E+02  0.47000000000E+01 0. -1.
        -11    1    6    6    0    0 -0.44453745593E+02  0.46560225371E+02 -0.61965435301E+02  0.89351582280E+02  0.00000000000E+00 0.  1.
         12    1    6    6    0    0 -0.30250958755E+01 -0.17974282749E+02 -0.81378054543E+02  0.83394327185E+02  0.00000000000E+00 0. -1.
         -5    1    3    3    0  503  0.62791475668E+02  0.10539321428E+01  0.24920936985E+02  0.67727566690E+02  0.47000000000E+01 0.  1.
         13    1    4    4    0    0 -0.45539651028E+02 -0.51688623363E+02 -0.52527631238E+02  0.86629819603E+02  0.00000000000E+00 0. -1.
        -14    1    4    4    0    0 -0.67730349771E+01  0.19150651937E+02  0.89206528730E+01  0.22185570087E+02  0.00000000000E+00 0.  1.
</event>
<event>
12    1  0.1050869E+000  0.2045120E+03  0.7818608E-02  0.1148074E+00
         21   -1    0    0  501  502  0.00000000000E+00  0.00000000000E+00  0.12080523945E+03  0.12080523945E+03  0.00000000000E+00 0.  1.
         21   -1    0    0  502  503 -0.00000000000E+00 -0.00000000000E+00 -0.32974982909E+03  0.32974982909E+03  0.00000000000E+00 0. -1.
         -6    2    1    2    0  503  0.32643221335E+02  0.93989316736E+02 -0.10604080794E+03  0.22161324565E+03  0.16723697600E+03 0.  0.
        -24    2    3    3    0    0  0.82412249419E+02  0.84528441172E+02 -0.65595773479E+02  0.15661820634E+03  0.79307129806E+02 0.  0.
          6    2    1    2  501    0 -0.32643221335E+02 -0.93989316736E+02 -0.10290378171E+03  0.22894182289E+03  0.17867735843E+03 0.  0.
         24    2    5    5    0    0 -0.63257975363E+02 -0.32317419581E+02 -0.77240002991E+00  0.10567952051E+03  0.78240509956E+02 0.  0.
          5    1    5    5  501    0  0.30614754028E+02 -0.61671897155E+02 -0.10213138168E+03  0.12326230238E+03  0.47000000000E+01 0. -1.
        -11    1    6    6    0    0  0.21063882560E+01  0.17488893838E+02  0.13600123271E+02  0.22254474429E+02  0.00000000000E+00 0.  1.
         12    1    6    6    0    0 -0.65364363619E+02 -0.49806313419E+02 -0.14372523301E+02  0.83425046082E+02  0.00000000000E+00 0. -1.
         -5    1    3    3    0  503 -0.49769028084E+02  0.94608755638E+01 -0.40445034456E+02  0.64995039310E+02  0.47000000000E+01 0.  1.
         11    1    4    4    0    0  0.48810639741E+02  0.78359420319E+02 -0.12048856995E+02  0.93101301062E+02  0.00000000000E+00 0. -1.
        -12    1    4    4    0    0  0.33601609678E+02  0.61690208533E+01 -0.53546916485E+02  0.63516905279E+02  0.00000000000E+00 0.  1.
</event>
<event>
12    1  0.1050869E+000  0.1923676E+03  0.7818608E-02  0.1156671E+00
         21   -1    0    0  501  502  0.00000000000E+00  0.00000000000E+00  0.44460821751E+02  0.44460821751E+02  0.00000000000E+00 0. -1.
         21   -1    0    0  502  503 -0.00000000000E+00 -0.00000000000E+00 -0.94662442917E+03  0.94662442917E+03  0.00000000000E+00 0. -1.
         -6    2    1    2    0  503  0.27554702310E+02  0.81230062285E+02 -0.27567405398E+03  0.33615690738E+03  0.17218506817E+03 0.  0.
        -24    2    3    3    0    0 -0.39597963153E+02  0.10151087514E+02 -0.16923383369E+03  0.19154255252E+03  0.79858723378E+02 0.  0.
          6    2    1    2  501    0 -0.27554702310E+02 -0.81230062285E+02 -0.62648955343E+03  0.65492834354E+03  0.17054146115E+03 0.  0.
         24    2    5    5    0    0  0.21262580058E+02 -0.92925272408E+02 -0.54655569187E+03  0.56042216796E+03  0.79137086545E+02 0.  0.
          5    1    5    5  501    0 -0.48817282367E+02  0.11695210123E+02 -0.79933861565E+02  0.94506175577E+02  0.47000000000E+01 0. -1.
        -11    1    6    6    0    0 -0.13280562053E+02 -0.87067283270E+02 -0.36108140352E+03  0.37166768102E+03  0.00000000000E+00 0.  1.
         12    1    6    6    0    0  0.34543142110E+02 -0.58579891376E+01 -0.18547428835E+03  0.18875448694E+03  0.00000000000E+00 0. -1.
         -5    1    3    3    0  503  0.67152665463E+02  0.71078974771E+02 -0.10644022030E+03  0.14461435485E+03  0.47000000000E+01 0.  1.
         13    1    4    4    0    0  0.17695205480E+02 -0.18542566008E+02 -0.49311251970E+02  0.55574694079E+02  0.00000000000E+00 0. -1.
        -14    1    4    4    0    0 -0.57293168634E+02  0.28693653522E+02 -0.11992258172E+03  0.13596785845E+03  0.00000000000E+00 0.  1.
</event>
<event>
12    1  0.1050869E+000  0.4417717E+03  0.7818608E-02  0.1030219E+00
         21   -1    0    0  501  502  0.00000000000E+00  0.00000000000E+00  0.95272211979E+02  0.95272211979E+02  0.00000000000E+00 0.  1.
         21   -1    0    0  502  503 -0.00000000000E+00 -0.00000000000E+00 -0.24797572051E+04  0.24797572051E+04  0.00000000000E+00 0. -1.
         -6    2    1    2    0  503 -0.31657890319E+02  0.40583905668E+03 -0.65495635360E+03  0.79001903771E+03  0.17162369558E+03 0.  0.
        -24    2    3    3    0    0 -0.81289177671E+02  0.34297888978E+03 -0.54417333448E+03  0.65323587869E+03  0.79687175938E+02 0.  0.
          6    2    1    2  501    0  0.31657890319E+02 -0.40583905668E+03 -0.17295286395E+04  0.17850103794E+04  0.17112912545E+03 0.  0.
         24    2    5    5    0    0  0.10281851307E+02 -0.74729959917E+02 -0.43932884886E+03  0.45282129413E+03  0.79668083953E+02 0.  0.
          5    1    5    5  501    0  0.21376039011E+02 -0.33110909676E+03 -0.12901997907E+04  0.13321890852E+04  0.47000000000E+01 0. -1.
        -11    1    6    6    0    0  0.34549927437E+02 -0.57375287970E+02 -0.38552329146E+03  0.39129762255E+03  0.00000000000E+00 0.  1.
         12    1    6    6    0    0 -0.24268076130E+02 -0.17354671947E+02 -0.53805557402E+02  0.61523671581E+02  0.00000000000E+00 0. -1.
         -5    1    3    3    0  503  0.49631287352E+02  0.62860166895E+02 -0.11078301912E+03  0.13678315902E+03  0.47000000000E+01 0.  1.
         13    1    4    4    0    0  0.62771881918E+01  0.14092930053E+03 -0.21993965980E+03  0.26129279514E+03  0.00000000000E+00 0. -1.
        -14    1    4    4    0    0 -0.87566365863E+02  0.20204958925E+03 -0.32423367467E+03  0.39194308355E+03  0.00000000000E+00 0.  1.
</event>
<event>
12    1  0.1050869E+000  0.1823245E+03  0.7818608E-02  0.1165670E+00
         21   -1    0    0  503  502  0.00000000000E+00  0.00000000000E+00  0.75005168885E+03  0.75005168885E+03  0.00000000000E+00 0.  1.
         21   -1    0    0  501  503 -0.00000000000E+00 -0.00000000000E+00 -0.63516243586E+02  0.63516243586E+02  0.00000000000E+00 0.  1.
          6    2    1    2  501    0  0.59559649452E+02  0.70259226804E+01  0.56774953792E+03  0.59630677693E+03  0.17217874135E+03 0.  0.
         24    2    3    3    0    0  0.37588858583E+02  0.64565530582E+02  0.45405640006E+03  0.46691689431E+03  0.79136222591E+02 0.  0.
         -6    2    1    2    0  502 -0.59559649452E+02 -0.70259226804E+01  0.11878590734E+03  0.21726115550E+03  0.17174283821E+03 0.  0.
        -24    2    5    5    0    0 -0.30738642171E+02  0.50218128343E+02  0.17974615386E+02  0.97709750558E+02  0.75877427599E+02 0.  0.
          5    1    3    3  501    0  0.21970790869E+02 -0.57539607902E+02  0.11369313786E+03  0.12938988262E+03  0.47000000000E+01 0. -1.
        -11    1    4    4    0    0  0.34940681776E+02  0.13740404600E+02  0.33942669292E+03  0.34149689579E+03  0.00000000000E+00 0.  1.
         12    1    4    4    0    0  0.26481768066E+01  0.50825125982E+02  0.11462970714E+03  0.12541999853E+03  0.00000000000E+00 0. -1.
         -5    1    5    5    0  502 -0.28821007281E+02 -0.57244051024E+02  0.10081129196E+03  0.11955140494E+03  0.47000000000E+01 0.  1.
         11    1    6    6    0    0  0.12472407513E+02 -0.11601621199E+02  0.14224014784E+02  0.22191916551E+02  0.00000000000E+00 0. -1.
        -12    1    6    6    0    0 -0.43211049684E+02  0.61819749542E+02  0.37506006022E+01  0.75517834007E+02  0.00000000000E+00 0.  1.
</event>
<event>
12    1  0.1050869E+000  0.2893657E+03  0.7818608E-02  0.1090697E+00
         21   -1    0    0  501  502  0.00000000000E+00  0.00000000000E+00  0.40341797527E+03  0.40341797527E+03  0.00000000000E+00 0.  1.
         21   -1    0    0  502  503 -0.00000000000E+00 -0.00000000000E+00 -0.21629620173E+03  0.21629620173E+03  0.00000000000E+00 0.  1.
         -6    2    1    2    0  503  0.21638948123E+03 -0.85793061359E+02  0.30978767190E+02  0.29101925317E+03  0.17189434177E+03 0.  0.
        -24    2    3    3    0    0  0.40026805618E+02 -0.41436529858E+02  0.45033210516E+02  0.10856127824E+03  0.80239827454E+02 0.  0.
          6    2    1    2  501    0 -0.21638948123E+03  0.85793061359E+02  0.15614300634E+03  0.32869492384E+03  0.17168243231E+03 0.  0.
         24    2    5    5    0    0 -0.11845049410E+03  0.11807967879E+03  0.10076048890E+03  0.21154636814E+03  0.81399383605E+02 0.  0.
          5    1    5    5  501    0 -0.97938987126E+02 -0.32286617435E+02  0.55382517444E+02  0.11714855570E+03  0.47000000000E+01 0. -1.
        -13    1    6    6    0    0 -0.73422573925E+01  0.57182047741E+02  0.18773970520E+02  0.60631322735E+02  0.00000000000E+00 0.  1.
         14    1    6    6    0    0 -0.11110823671E+03  0.60897631053E+02  0.81986518380E+02  0.15091504540E+03  0.00000000000E+00 0. -1.
         -5    1    3    3    0  503  0.17636267561E+03 -0.44356531501E+02 -0.14054443326E+02  0.18245797492E+03  0.47000000000E+01 0. -1.
         13    1    4    4    0    0 -0.34326888119E+01  0.52719643212E+01  0.44313108392E+02  0.44757441121E+02  0.00000000000E+00 0. -1.
        -14    1    4    4    0    0  0.43459494430E+02 -0.46708494179E+02  0.72010212396E+00  0.63803837123E+02  0.00000000000E+00 0.  1.
</event>
<event>
12    1  0.1050869E+000  0.2155805E+03  0.7818608E-02  0.1137530E+00
         21   -1    0    0  501  502  0.00000000000E+00  0.00000000000E+00  0.13873499093E+04  0.13873499093E+04  0.00000000000E+00 0.  1.
         21   -1    0    0  502  503 -0.00000000000E+00 -0.00000000000E+00 -0.67078914315E+02  0.67078914315E+02  0.00000000000E+00 0.  1.
         -6    2    1    2    0  503  0.71297061458E+02  0.10015312120E+03  0.11777850786E+04  0.11973523403E+04  0.17709042024E+03 0.  0.
        -24    2    3    3    0    0  0.74960886670E+02  0.13448960603E+03  0.83770262511E+03  0.85548894224E+03  0.80056564503E+02 0.  0.
          6    2    1    2  501    0 -0.71297061458E+02 -0.10015312120E+03  0.14248591641E+03  0.25707648328E+03  0.17513470021E+03 0.  0.
         24    2    5    5    0    0 -0.84023283300E+02 -0.21896377836E+02  0.33016648339E+02  0.12182972636E+03  0.78822710293E+02 0.  0.
          5    1    5    5  501    0  0.12726221842E+02 -0.78256743368E+02  0.10946926807E+03  0.13524675692E+03  0.47000000000E+01 0. -1.
        -13    1    6    6    0    0  0.49534923292E+01  0.14867644084E+02 -0.75062598364E+01  0.17376071581E+02  0.00000000000E+00 0.  1.
         14    1    6    6    0    0 -0.88976775629E+02 -0.36764021920E+02  0.40522908176E+02  0.10445365478E+03  0.00000000000E+00 0. -1.
         -5    1    3    3    0  503 -0.36638252120E+01 -0.34336484821E+02  0.34008245346E+03  0.34186339810E+03  0.47000000000E+01 0.  1.
         11    1    4    4    0    0  0.79944989980E+02  0.70698432301E+02  0.44573064298E+03  0.45832878574E+03  0.00000000000E+00 0. -1.
        -12    1    4    4    0    0 -0.49841033107E+01  0.63791173724E+02  0.39197198213E+03  0.39716015649E+03  0.00000000000E+00 0.  1.
</event>
<event>
12    1  0.1050869E+000  0.1983574E+03  0.7818608E-02  0.1151185E+00
         21   -1    0    0  503  502  0.00000000000E+00  0.00000000000E+00  0.28908253064E+03  0.28908253064E+03  0.00000000000E+00 0.  1.
         21   -1    0    0  501  503 -0.00000000000E+00 -0.00000000000E+00 -0.15757459746E+03  0.15757459746E+03  0.00000000000E+00 0.  1.
          6    2    1    2  501    0  0.88901728651E+02  0.44103004995E+02  0.14847606483E+03  0.24757532623E+03  0.17146372188E+03 0.  0.
         24    2    3    3    0    0 -0.20480807898E+02  0.26004164864E+02  0.56069272747E+02  0.10316891176E+03  0.80027376094E+02 0.  0.
         -6    2    1    2    0  502 -0.88901728651E+02 -0.44103004995E+02 -0.16968131651E+02  0.19908180187E+03  0.17174706384E+03 0.  0.
        -24    2    5    5    0    0 -0.44740078638E+02  0.51554797670E+01 -0.68651061150E+02  0.11499931348E+03  0.80520930790E+02 0.  0.
          5    1    3    3  501    0  0.10938253655E+03  0.18098840131E+02  0.92406792086E+02  0.14440641447E+03  0.47000000000E+01 0. -1.
        -13    1    4    4    0    0  0.98086843284E+01  0.31794395244E+02 -0.60478822067E+01  0.33818201259E+02  0.00000000000E+00 0.  1.
         14    1    4    4    0    0 -0.30289492226E+02 -0.57902303802E+01  0.62117154954E+02  0.69350710499E+02  0.00000000000E+00 0. -1.
         -5    1    5    5    0  502 -0.44161650013E+02 -0.49258484762E+02  0.51682929499E+02  0.84082488394E+02  0.47000000000E+01 0.  1.
         13    1    6    6    0    0  0.29154510027E+01  0.32942190801E+02 -0.10156163885E+02  0.34595309713E+02  0.00000000000E+00 0. -1.
        -14    1    6    6    0    0 -0.47655529641E+02 -0.27786711034E+02 -0.58494897265E+02  0.80404003765E+02  0.00000000000E+00 0.  1.
</event>
<event>
12    1  0.1050869E+000  0.1786305E+03  0.7818608E-02  0.1169488E+00
         21   -1    0    0  503  502  0.00000000000E+00  0.00000000000E+00  0.13741273874E+03  0.13741273874E+03  0.00000000000E+00 0. -1.
         21   -1    0    0  501  503 -0.00000000000E+00 -0.00000000000E+00 -0.33203927977E+03  0.33203927977E+03  0.00000000000E+00 0. -1.
          6    2    1    2  501    0 -0.27200103114E+02 -0.36609092177E+02  0.32858177379E+02  0.18021481250E+03  0.17122396907E+03 0.  0.
         24    2    3    3    0    0 -0.63095873392E+02 -0.50171070103E+02  0.51347963632E+02  0.13736162400E+03  0.98657877862E+02 0.  0.
         -6    2    1    2    0  502  0.27200103114E+02  0.36609092177E+02 -0.22748471840E+03  0.28923720601E+03  0.17271014155E+03 0.  0.
        -24    2    5    5    0    0 -0.11138208506E+02  0.75561507716E+02 -0.96146230312E+02  0.14690307353E+03  0.80640028972E+02 0.  0.
          5    1    3    3  501    0  0.35895770279E+02  0.13561977925E+02 -0.18489786253E+02  0.42853188503E+02  0.47000000000E+01 0. -1.
        -13    1    4    4    0    0  0.25471894985E+02 -0.11059976571E+02  0.24132560195E+02  0.36790229374E+02  0.00000000000E+00 0.  1.
         14    1    4    4    0    0 -0.88567768377E+02 -0.39111093532E+02  0.27215403437E+02  0.10057139462E+03  0.00000000000E+00 0. -1.
         -5    1    5    5    0  502  0.38338311620E+02 -0.38952415539E+02 -0.13133848809E+03  0.14233413248E+03  0.47000000000E+01 0.  1.
         13    1    6    6    0    0 -0.35111066474E+02  0.58349111542E+02 -0.29886345145E+02  0.74368000059E+02  0.00000000000E+00 0. -1.
        -14    1    6    6    0    0  0.23972857968E+02  0.17212396174E+02 -0.66259885167E+02  0.72535073472E+02  0.00000000000E+00 0.  1.
</event>
<event>
12    1  0.1050869E+000  0.2145132E+03  0.7818608E-02  0.1138167E+00
         21   -1    0    0  503  502  0.00000000000E+00  0.00000000000E+00  0.77459864784E+03  0.77459864784E+03  0.00000000000E+00 0.  1.
         21   -1    0    0  501  503 -0.00000000000E+00 -0.00000000000E+00 -0.13330190932E+03  0.13330190932E+03  0.00000000000E+00 0.  1.
          6    2    1    2  501    0  0.12590310241E+03  0.17969625920E+02  0.65883118188E+03  0.69267189424E+03  0.17193408096E+03 0.  0.
         24    2    3    3    0    0  0.26668011544E+01 -0.19310595312E+02  0.19293925258E+03  0.20929380141E+03  0.78729468440E+02 0.  0.
         -6    2    1    2    0  502 -0.12590310241E+03 -0.17969625920E+02 -0.17534443366E+02  0.21522866292E+03  0.17274669892E+03 0.  0.
        -24    2    5    5    0    0 -0.11872168907E+03 -0.57978997805E+02  0.24852364348E+02  0.15631301132E+03  0.79747814079E+02 0.  0.
          5    1    3    3  501    0  0.12323630125E+03  0.37280221232E+02  0.46589192930E+03  0.48337809283E+03  0.47000000000E+01 0. -1.
        -11    1    4    4    0    0 -0.25793852650E+02 -0.18590300415E+02  0.29431253310E+02  0.43325751874E+02  0.00000000000E+00 0.  1.
         12    1    4    4    0    0  0.28460653805E+02 -0.72029489624E+00  0.16350799927E+03  0.16596804953E+03  0.00000000000E+00 0. -1.
         -5    1    5    5    0  502 -0.71814133316E+01  0.40009371885E+02 -0.42386807714E+02  0.58915651607E+02  0.47000000000E+01 0.  1.
         13    1    6    6    0    0 -0.17778561736E+02 -0.38021174382E+02 -0.16927346577E+02  0.45257286937E+02  0.00000000000E+00 0. -1.
        -14    1    6    6    0    0 -0.10094312734E+03 -0.19957823424E+02  0.41779710926E+02  0.11105572438E+03  0.00000000000E+00 0.  1.
</event>
<event>
12    1  0.1050869E+000  0.2037651E+03  0.7818608E-02  0.1146818E+00
         21   -1    0    0  501  502  0.00000000000E+00  0.00000000000E+00  0.12226222510E+03  0.12226222510E+03  0.00000000000E+00 0.  1.
         21   -1    0    0  502  503 -0.00000000000E+00 -0.00000000000E+00 -0.55200284516E+03  0.55200284516E+03  0.00000000000E+00 0.  1.
         -6    2    1    2    0  503  0.64132883237E+02 -0.88112057922E+02 -0.42451681565E+03  0.47043304693E+03  0.17092677793E+03 0.  0.
        -24    2    3    3    0    0  0.52305529751E+02  0.10503927016E+02 -0.26876204204E+03  0.28564495674E+03  0.80708147934E+02 0.  0.
          6    2    1    2  501    0 -0.64132883237E+02  0.88112057922E+02 -0.52238044138E+01  0.20383202333E+03  0.17217271601E+03 0.  0.
         24    2    5    5    0    0  0.10511169223E+02  0.22337035207E+02 -0.48975741246E+02  0.95045948127E+02  0.77625261382E+02 0.  0.
          5    1    5    5  501    0 -0.74644052460E+02  0.65775022715E+02  0.43751936832E+02  0.10878607520E+03  0.47000000000E+01 0. -1.
        -11    1    6    6    0    0  0.21065761828E+02 -0.18143412692E+02  0.34054070845E+01  0.28009757994E+02  0.00000000000E+00 0.  1.
         12    1    6    6    0    0 -0.10554592605E+02  0.40480447899E+02 -0.52381148330E+02  0.67036190133E+02  0.00000000000E+00 0. -1.
         -5    1    3    3    0  503  0.11827353486E+02 -0.98615984939E+02 -0.15575477361E+03  0.18478809019E+03  0.47000000000E+01 0.  1.
         13    1    4    4    0    0 -0.17945301409E+01 -0.73770865047E+01  0.28584929700E+01  0.81125042856E+01  0.00000000000E+00 0. -1.
        -14    1    4    4    0    0  0.54100059891E+02  0.17881013521E+02 -0.27162053501E+03  0.27753245246E+03  0.00000000000E+00 0.  1.
</event>
<event>
12    1  0.1050869E+000  0.3128317E+03  0.7818608E-02  0.1079375E+00
         21   -1    0    0  503  502  0.00000000000E+00  0.00000000000E+00  0.37236911756E+03  0.37236911756E+03  0.00000000000E+00 0.  1.
         21   -1    0    0  501  503 -0.00000000000E+00 -0.00000000000E+00 -0.31501400337E+03  0.31501400337E+03  0.00000000000E+00 0. -1.
          6    2    1    2  501    0 -0.23480979659E+03  0.10896313198E+03 -0.11487609486E+03  0.33027350162E+03  0.16992781996E+03 0.  0.
         24    2    3    3    0    0 -0.16771373648E+03  0.17757474538E+02 -0.11061410039E+03  0.21686888166E+03  0.79708263824E+02 0.  0.
         -6    2    1    2    0  502  0.23480979659E+03 -0.10896313198E+03  0.17223120906E+03  0.35710961931E+03  0.17565615880E+03 0.  0.
        -24    2    5    5    0    0  0.96202331363E+02 -0.11550637476E+03  0.69355569872E+02  0.18430819981E+03  0.81010531890E+02 0.  0.
          5    1    3    3  501    0 -0.67096060111E+02  0.91205657442E+02 -0.42619944717E+01  0.11340461996E+03  0.47000000000E+01 0. -1.
        -11    1    4    4    0    0 -0.88200642449E+02  0.66871999731E+01 -0.11311108890E+02  0.89174061006E+02  0.00000000000E+00 0.  1.
         12    1    4    4    0    0 -0.79513094028E+02  0.11070274565E+02 -0.99302991499E+02  0.12769482065E+03  0.00000000000E+00 0. -1.
         -5    1    5    5    0  502  0.13860746523E+03  0.65432427750E+01  0.10287563919E+03  0.17280141950E+03  0.47000000000E+01 0.  1.
         11    1    6    6    0    0  0.72833502220E+02 -0.33598879509E+02  0.10770776003E+02  0.80929681610E+02  0.00000000000E+00 0. -1.
        -12    1    6    6    0    0  0.23368829143E+02 -0.81907495247E+02  0.58584793869E+02  0.10337851820E+03  0.00000000000E+00 0.  1.
</event>
<event>
12    1  0.1050869E+000  0.4412676E+03  0.7818608E-02  0.1030459E+00
         21   -1    0    0  503  502  0.00000000000E+00  0.00000000000E+00  0.11167267707E+04  0.11167267707E+04  0.00000000000E+00 0.  1.
         21   -1    0    0  501  503 -0.00000000000E+00 -0.00000000000E+00 -0.19362068598E+03  0.19362068598E+03  0.00000000000E+00 0.  1.
          6    2    1    2  501    0 -0.27835100022E+03 -0.29422571613E+03  0.67155308938E+03  0.80355500941E+03  0.17512581173E+03 0.  0.
         24    2    3    3    0    0 -0.23647152605E+03 -0.20455092290E+03  0.60152769384E+03  0.68222444888E+03  0.76385662924E+02 0.  0.
         -6    2    1    2    0  502  0.27835100022E+03  0.29422571613E+03  0.25155299535E+03  0.50679244727E+03  0.17178947519E+03 0.  0.
        -24    2    5    5    0    0  0.23441401155E+03  0.24765144185E+03  0.26754374461E+03  0.44063040332E+03  0.79336823639E+02 0.  0.
          5    1    3    3  501    0 -0.41879474163E+02 -0.89674793231E+02  0.70025395536E+02  0.12133056052E+03  0.47000000000E+01 0. -1.
        -11    1    4    4    0    0 -0.74265715346E+02 -0.21912340620E+02  0.13571924276E+03  0.15625383196E+03  0.00000000000E+00 0.  1.
         12    1    4    4    0    0 -0.16220581071E+03 -0.18263858228E+03  0.46580845109E+03  0.52597061692E+03  0.00000000000E+00 0. -1.
         -5    1    5    5    0  502  0.43936988663E+02  0.46574274276E+02 -0.15990749267E+02  0.66162043947E+02  0.47000000000E+01 0.  1.
         11    1    6    6    0    0  0.13718225419E+03  0.19635602382E+03  0.17078156331E+03  0.29417851948E+03  0.00000000000E+00 0. -1.
        -12    1    6    6    0    0  0.97231757361E+02  0.51295418033E+02  0.96762181301E+02  0.14645188384E+03  0.00000000000E+00 0.  1.
</event>
<event>
12    1  0.1050869E+000  0.1716452E+03  0.7818608E-02  0.1176231E+00
         21   -1    0    0  503  502  0.00000000000E+00  0.00000000000E+00  0.35820136102E+02  0.35820136102E+02  0.00000000000E+00 0.  1.
         21   -1    0    0  501  503 -0.00000000000E+00 -0.00000000000E+00 -0.15560125535E+04  0.15560125535E+04  0.00000000000E+00 0.  1.
          6    2    1    2  501    0  0.56709149281E+01 -0.85496744146E+01 -0.21341822838E+03  0.27387846563E+03  0.17133831306E+03 0.  0.
         24    2    3    3    0    0  0.62125087242E+02  0.76024502165E+01 -0.17721022762E+03  0.20473315472E+03  0.81208842832E+02 0.  0.
         -6    2    1    2    0  502 -0.56709149281E+01  0.85496744146E+01 -0.13067741890E+04  0.13179542240E+04  0.17099502682E+03 0.  0.
        -24    2    5    5    0    0 -0.62838872049E+02  0.33012335379E+02 -0.78730653161E+03  0.79475700093E+03  0.82149727269E+02 0.  0.
          5    1    3    3  501    0 -0.56454172314E+02 -0.16152124631E+02 -0.36208000758E+02  0.69145310908E+02  0.47000000000E+01 0. -1.
        -11    1    4    4    0    0 -0.94200243570E+01 -0.11662017796E+02 -0.85635413701E+02  0.86937699519E+02  0.00000000000E+00 0.  1.
         12    1    4    4    0    0  0.71545111599E+02  0.19264468012E+02 -0.91574813919E+02  0.11779545520E+03  0.00000000000E+00 0. -1.
         -5    1    5    5    0  502  0.57167957121E+02 -0.24462660964E+02 -0.51946765743E+03  0.52319722306E+03  0.47000000000E+01 0.  1.
         13    1    6    6    0    0 -0.62307711644E+02 -0.11774292324E+02 -0.49315758989E+03  0.49721755134E+03  0.00000000000E+00 0. -1.
        -14    1    6    6    0    0 -0.53116040506E+00  0.44786627703E+02 -0.29414894172E+03  0.29753944960E+03  0.00000000000E+00 0.  1.
</event>
<event>
12    1  0.1050869E+000  0.1745977E+03  0.7818608E-02  0.1173218E+00
         21   -1    0    0  501  502  0.00000000000E+00  0.00000000000E+00  0.34067561118E+03  0.34067561118E+03  0.00000000000E+00 0. -1.
         21   -1    0    0  502  503 -0.00000000000E+00 -0.00000000000E+00 -0.90728959424E+02  0.90728959424E+02  0.00000000000E+00 0. -1.
         -6    2    1    2    0  503  0.12515647288E+02  0.25090706979E+02  0.15177597924E+03  0.23110016834E+03  0.17200335732E+03 0.  0.
        -24    2    3    3    0    0 -0.58407738631E+02  0.17743918894E+02  0.86495642416E+02  0.13431321498E+03  0.82657322549E+02 0.  0.
          6    2    1    2  501    0 -0.12515647288E+02 -0.25090706979E+02  0.98170672523E+02  0.20030440227E+03  0.17233162107E+03 0.  0.
         24    2    5    5    0    0  0.35611599241E+01 -0.33616600246E+02 -0.13027139754E+02  0.87529413725E+02  0.79680199704E+02 0.  0.
          5    1    5    5  501    0 -0.16076807212E+02  0.85258932672E+01  0.11119781228E+03  0.11277498855E+03  0.47000000000E+01 0. -1.
        -13    1    6    6    0    0 -0.21850141330E+02  0.17777764980E+02 -0.10751739041E+02  0.30150912030E+02  0.00000000000E+00 0.  1.
         14    1    6    6    0    0  0.25411301254E+02 -0.51394365226E+02 -0.22754007136E+01  0.57378501696E+02  0.00000000000E+00 0. -1.
         -5    1    3    3    0  503  0.70923385918E+02  0.73467880847E+01  0.65280336822E+02  0.96786953361E+02  0.47000000000E+01 0.  1.
         13    1    4    4    0    0 -0.32513581379E+02  0.37508561341E+02  0.88719561599E+02  0.10166211565E+03  0.00000000000E+00 0. -1.
        -14    1    4    4    0    0 -0.25894157252E+02 -0.19764642447E+02 -0.22239191829E+01  0.32651099329E+02  0.00000000000E+00 0.  1.
</event>
<event>
12    1  0.1050869E+000  0.1786661E+03  0.7818608E-02  0.1171415E+00
         21   -1    0    0  501  502  0.00000000000E+00  0.00000000000E+00  0.73540943908E+02  0.73540943908E+02  0.00000000000E+00 0.  1.
         21   -1    0    0  502  503 -0.00000000000E+00 -0.00000000000E+00 -0.55923111384E+03  0.55923111384E+03  0.00000000000E+00 0.  1.
         -6    2    1    2    0  503  0.88919946105E+01 -0.44412846751E+02 -0.40041911742E+03  0.43480048879E+03  0.16329245828E+03 0.  0.
        -24    2    3    3    0    0  0.31836414127E+02 -0.16394066976E+02 -0.38217272465E+03  0.39397746519E+03  0.88768963682E+02 0.  0.
          6    2    1    2  501    0 -0.88919946105E+01  0.44412846751E+02 -0.85271052511E+02  0.19797156896E+03  0.17282945696E+03 0.  0.
         24    2    5    5    0    0  0.23132936408E+01  0.64560139034E+01  0.21578344218E+02  0.83931386452E+02  0.80819683553E+02 0.  0.
          5    1    5    5  501    0 -0.11205288251E+02  0.37956832847E+02 -0.10684939673E+03  0.11404018251E+03  0.47000000000E+01 0. -1.
        -11    1    6    6    0    0 -0.25352048152E+02 -0.19212719204E+02 -0.11422606880E+02  0.33798385652E+02  0.00000000000E+00 0.  1.
         12    1    6    6    0    0  0.27665341793E+02  0.25668733107E+02  0.33000951098E+02  0.50133000800E+02  0.00000000000E+00 0. -1.
         -5    1    3    3    0  503 -0.22944419516E+02 -0.28018779775E+02 -0.18246392773E+02  0.40823023605E+02  0.47000000000E+01 0.  1.
         11    1    4    4    0    0 -0.15590401617E+02  0.22680164819E+02 -0.19606481868E+03  0.19798702892E+03  0.00000000000E+00 0. -1.
        -12    1    4    4    0    0  0.47426815743E+02 -0.39074231794E+02 -0.18610790597E+03  0.19599043627E+03  0.00000000000E+00 0.  1.
</event>
<event>
12    1  0.1050869E+000  0.2131720E+03  0.7818608E-02  0.1141941E+00
         21   -1    0    0  503  502  0.00000000000E+00  0.00000000000E+00  0.17911484795E+03  0.17911484795E+03  0.00000000000E+00 0. -1.
         21   -1    0    0  501  503 -0.00000000000E+00 -0.00000000000E+00 -0.23944207324E+03  0.23944207324E+03  0.00000000000E+00 0. -1.
          6    2    1    2  501    0  0.49764100218E+02 -0.87367397451E+02 -0.83468117786E+01  0.19913886906E+03  0.17168893994E+03 0.  0.
         24    2    3    3    0    0  0.60552547114E+02 -0.59733191759E+02  0.55780304916E+02  0.12832632069E+03  0.78240251832E+02 0.  0.
         -6    2    1    2    0  502 -0.49764100218E+02  0.87367397451E+02 -0.51980413513E+02  0.21941805212E+03  0.18797018487E+03 0.  0.
        -24    2    5    5    0    0  0.42329953854E+01 -0.14438913931E+02  0.16926764466E+02  0.85065900863E+02  0.81995680673E+02 0.  0.
          5    1    3    3  501    0 -0.10788446895E+02 -0.27634205693E+02 -0.64127116695E+02  0.70812548367E+02  0.47000000000E+01 0. -1.
        -13    1    4    4    0    0  0.47689917787E+02 -0.66542653645E+02  0.12690514258E+02  0.82845049127E+02  0.00000000000E+00 0.  1.
         14    1    4    4    0    0  0.12862629327E+02  0.68094618868E+01  0.43089790659E+02  0.45481271568E+02  0.00000000000E+00 0. -1.
         -5    1    5    5    0  502 -0.53997095604E+02  0.10180631138E+03 -0.68907177979E+02  0.13435215126E+03  0.47000000000E+01 0.  1.
         13    1    6    6    0    0  0.36025309297E+02  0.11525596664E+02 -0.56108853346E+01  0.38237995798E+02  0.00000000000E+00 0. -1.
        -14    1    6    6    0    0 -0.31792313911E+02 -0.25964510596E+02  0.22537649801E+02  0.46827905066E+02  0.00000000000E+00 0.  1.
</event>
<event>
12    1  0.1050869E+000  0.1991118E+03  0.7818608E-02  0.1150628E+00
         21   -1    0    0  503  502  0.00000000000E+00  0.00000000000E+00  0.20443652804E+02  0.20443652804E+02  0.00000000000E+00 0.  1.
         21   -1    0    0  501  503 -0.00000000000E+00 -0.00000000000E+00 -0.19425299066E+04  0.19425299066E+04  0.00000000000E+00 0.  1.
          6    2    1    2  501    0  0.59814800016E+02  0.80537289508E+02 -0.10314697644E+04  0.10505119539E+04  0.17199251454E+03 0.  0.
         24    2    3    3    0    0  0.10691415808E+03  0.53251149157E+02 -0.78319104638E+03  0.79629296401E+03  0.80174480455E+02 0.  0.
         -6    2    1    2    0  502 -0.59814800016E+02 -0.80537289508E+02 -0.89061648930E+03  0.91246160543E+03  0.17124364245E+03 0.  0.
        -24    2    5    5    0    0 -0.86081741989E+02 -0.10560068108E+03 -0.78193571888E+03  0.79778063187E+03  0.80429459700E+02 0.  0.
          5    1    3    3  501    0 -0.47099358068E+02  0.27286140352E+02 -0.24827871807E+03  0.25421898991E+03  0.47000000000E+01 0. -1.
        -13    1    4    4    0    0  0.36014021645E+02 -0.84461274844E+01 -0.40151499908E+03  0.40321537832E+03  0.00000000000E+00 0.  1.
         14    1    4    4    0    0  0.70900136439E+02  0.61697276641E+02 -0.38167604730E+03  0.39307758569E+03  0.00000000000E+00 0. -1.
         -5    1    5    5    0  502  0.26266941973E+02  0.25063391568E+02 -0.10868077042E+03  0.11468097356E+03  0.47000000000E+01 0.  1.
         13    1    6    6    0    0 -0.50073075475E+02 -0.89485437186E+02 -0.69222607077E+03  0.69977988640E+03  0.00000000000E+00 0. -1.
        -14    1    6    6    0    0 -0.36008666514E+02 -0.16115243891E+02 -0.89709648106E+02  0.98000745472E+02  0.00000000000E+00 0.  1.
</event>
<event>
12    1  0.1050869E+000  0.2154455E+03  0.7818608E-02  0.1137366E+00
         21   -1    0    0  501  502  0.00000000000E+00  0.00000000000E+00  0.68608094898E+03  0.68608094898E+03  0.00000000000E+00 0. -1.
         21   -1    0    0  502  503 -0.00000000000E+00 -0.00000000000E+00 -0.14131814652E+03  0.14131814652E+03  0.00000000000E+00 0. -1.
         -6    2    1    2    0  503  0.12565479074E+03  0.30549439166E+02  0.57126682357E+03  0.61054284180E+03  0.17232058289E+03 0.  0.
        -24    2    3    3    0    0  0.62399389523E+02 -0.34704025286E+02  0.42473254759E+03  0.43805039430E+03  0.79952221870E+02 0.  0.
          6    2    1    2  501    0 -0.12565479074E+03 -0.30549439166E+02 -0.26504021107E+02  0.21685625370E+03  0.17205166947E+03 0.  0.
         24    2    5    5    0    0 -0.12289795589E+03 -0.15650487154E+02 -0.76548877381E+02  0.16435714372E+03  0.76188547394E+02 0.  0.
          5    1    5    5  501    0 -0.27568348503E+01 -0.14898952012E+02  0.50044856274E+02  0.52499109983E+02  0.47000000000E+01 0. -1.
        -11    1    6    6    0    0 -0.74112333177E+02  0.17435492423E+02 -0.12228629113E+02  0.77111436862E+02  0.00000000000E+00 0.  1.
         12    1    6    6    0    0 -0.48785622711E+02 -0.33085979577E+02 -0.64320248269E+02  0.87245706858E+02  0.00000000000E+00 0. -1.
         -5    1    3    3    0  503  0.63255401215E+02  0.65253464451E+02  0.14653427599E+03  0.17249244750E+03  0.47000000000E+01 0.  1.
         13    1    4    4    0    0  0.41879032591E+02 -0.39477168797E+02  0.12538838543E+03  0.13796574729E+03  0.00000000000E+00 0. -1.
        -14    1    4    4    0    0  0.20520356933E+02  0.47731435111E+01  0.29934416216E+03  0.30008464700E+03  0.00000000000E+00 0.  1.
</event>
<event>
12    1  0.1050869E+000  0.1834849E+03  0.7818608E-02  0.1164890E+00
         21   -1    0    0  501  502  0.00000000000E+00  0.00000000000E+00  0.13830912697E+03  0.13830912697E+03  0.00000000000E+00 0.  1.
         21   -1    0    0  502  503 -0.00000000000E+00 -0.00000000000E+00 -0.24158074057E+03  0.24158074057E+03  0.00000000000E+00 0.  1.
         -6    2    1    2    0  503  0.37268566215E+02  0.47544720139E+02 -0.42797125321E+02  0.18669600558E+03  0.17138949245E+03 0.  0.
        -24    2    3    3    0    0  0.60088323642E+02  0.58126596332E+02 -0.81200113495E+02  0.14054844948E+03  0.78556351628E+02 0.  0.
          6    2    1    2  501    0 -0.37268566215E+02 -0.47544720139E+02 -0.60474488280E+02  0.19319386197E+03  0.17325489352E+03 0.  0.
         24    2    5    5    0    0 -0.67121701374E+02 -0.46728990261E+02 -0.93390234638E+02  0.14850145263E+03  0.81498614598E+02 0.  0.
          5    1    5    5  501    0  0.29853135159E+02 -0.81572987769E+00  0.32915746359E+02  0.44692409338E+02  0.47000000000E+01 0. -1.
        -11    1    6    6    0    0 -0.77434240690E+02 -0.60489694690E+02 -0.79886627696E+02  0.12663703281E+03  0.00000000000E+00 0.  1.
         12    1    6    6    0    0  0.10312539316E+02  0.13760704429E+02 -0.13503606942E+02  0.21864419818E+02  0.00000000000E+00 0. -1.
         -5    1    3    3    0  503 -0.22819757428E+02 -0.10581876193E+02  0.38402988173E+02  0.46147556094E+02  0.47000000000E+01 0.  1.
         13    1    4    4    0    0  0.14802708166E+02  0.42710990509E+02 -0.80943441715E+02  0.92710245583E+02  0.00000000000E+00 0. -1.
        -14    1    4    4    0    0  0.45285615476E+02  0.15415605823E+02 -0.25667177941E+00  0.47838203899E+02  0.00000000000E+00 0.  1.
</event>
<event>
12    1  0.1050869E+000  0.1879944E+03  0.7818608E-02  0.1160321E+00
         21   -1    0    0  501  502  0.00000000000E+00  0.00000000000E+00  0.46998133040E+02  0.46998133040E+02  0.00000000000E+00 0.  1.
         21   -1    0    0  502  503 -0.00000000000E+00 -0.00000000000E+00 -0.78331320512E+03  0.78331320512E+03  0.00000000000E+00 0.  1.
         -6    2    1    2    0  503 -0.53429068081E+02 -0.54113938886E+02 -0.28440419923E+03  0.34092177097E+03  0.17192708246E+03 0.  0.
        -24    2    3    3    0    0 -0.31117095589E+02 -0.10171413616E+03 -0.16563303427E+03  0.21095145696E+03  0.75843101329E+02 0.  0.
          6    2    1    2  501    0  0.53429068081E+02  0.54113938886E+02 -0.45191087284E+03  0.48938956719E+03  0.17174320300E+03 0.  0.
         24    2    5    5    0    0  0.98229389389E+02  0.19587751458E+02 -0.35152507256E+03  0.37407033502E+03  0.79536444219E+02 0.  0.
          5    1    5    5  501    0 -0.44800321309E+02  0.34526187428E+02 -0.10038580028E+03  0.11531923216E+03  0.47000000000E+01 0. -1.
        -13    1    6    6    0    0  0.84214646272E+02  0.28357047955E+02 -0.34506134744E+03  0.35631946665E+03  0.00000000000E+00 0.  1.
         14    1    6    6    0    0  0.14014743117E+02 -0.87692964971E+01 -0.64637251234E+01  0.17750868378E+02  0.00000000000E+00 0. -1.
         -5    1    3    3    0  503 -0.22311972492E+02  0.47600197278E+02 -0.11877116497E+03  0.12997031401E+03  0.47000000000E+01 0.  1.
         11    1    4    4    0    0 -0.44411268446E+02 -0.23073276831E+02 -0.52517014810E+02  0.72544977174E+02  0.00000000000E+00 0. -1.
        -12    1    4    4    0    0  0.13294172857E+02 -0.78640859332E+02 -0.11311601946E+03  0.13840647979E+03  0.00000000000E+00 0.  1.
</event>
<event>
12    1  0.1050869E+000  0.1855058E+03  0.7818608E-02  0.1164110E+00
         21   -1    0    0  501  502  0.00000000000E+00  0.00000000000E+00  0.92610835099E+03  0.92610835099E+03  0.00000000000E+00 0. -1.
         21   -1    0    0  502  503 -0.00000000000E+00 -0.00000000000E+00 -0.53711366633E+02  0.53711366633E+02  0.00000000000E+00 0. -1.
         -6    2    1    2    0  503 -0.46040251136E+00 -0.52333110821E+02  0.14874887380E+03  0.23277287787E+03  0.17122505294E+03 0.  0.
        -24    2    3    3    0    0 -0.36105666250E+02 -0.53231891646E+01  0.15078611393E+03  0.17355499283E+03  0.77800564931E+02 0.  0.
          6    2    1    2  501    0  0.46040251136E+00  0.52333110821E+02  0.72364811056E+03  0.74704683975E+03  0.17797029645E+03 0.  0.
         24    2    5    5    0    0 -0.64242130116E+02  0.27906638826E+02  0.52670266659E+03  0.53825826689E+03  0.86025758370E+02 0.  0.
          5    1    5    5  501    0  0.64702532627E+02  0.24426471995E+02  0.19694544396E+03  0.20878857287E+03  0.47000000000E+01 0. -1.
        -11    1    6    6    0    0 -0.18222643767E+02  0.48541707843E+02  0.37062894044E+03  0.37423812424E+03  0.00000000000E+00 0.  1.
         12    1    6    6    0    0 -0.46019486349E+02 -0.20635069017E+02  0.15607372616E+03  0.16402014265E+03  0.00000000000E+00 0. -1.
         -5    1    3    3    0  503  0.35645263738E+02 -0.47009921657E+02 -0.20372401300E+01  0.59217885039E+02  0.47000000000E+01 0.  1.
         11    1    4    4    0    0  0.95010287336E+01  0.12642512594E+02  0.10595218720E+03  0.10712594758E+03  0.00000000000E+00 0. -1.
        -12    1    4    4    0    0 -0.45606694983E+02 -0.17965701758E+02  0.44833926725E+02  0.66429045248E+02  0.00000000000E+00 0.  1.
</event>
<event>
12    1  0.1050869E+000  0.3510531E+03  0.7818608E-02  0.1062288E+00
         21   -1    0    0  503  502  0.00000000000E+00  0.00000000000E+00  0.51920903909E+03  0.51920903909E+03  0.00000000000E+00 0.  1.
         21   -1    0    0  501  503 -0.00000000000E+00 -0.00000000000E+00 -0.32221798727E+03  0.32221798727E+03  0.00000000000E+00 0.  1.
          6    2    1    2  501    0  0.22514315520E+03 -0.20528814389E+03 -0.11839229074E+03  0.36951075887E+03  0.17230439362E+03 0.  0.
         24    2    3    3    0    0  0.52657463273E+02 -0.27022635397E+02 -0.45414193955E+02  0.11090333816E+03  0.82061380323E+02 0.  0.
         -6    2    1    2    0  502 -0.22514315520E+03  0.20528814389E+03  0.31538334256E+03  0.47191626750E+03  0.17437215492E+03 0.  0.
        -24    2    5    5    0    0 -0.80658494575E+02  0.18934296859E+02  0.10019379821E+03  0.15264803630E+03  0.79989533318E+02 0.  0.
          5    1    3    3  501    0  0.17248569192E+03 -0.17826550849E+03 -0.72978096783E+02  0.25860742071E+03  0.47000000000E+01 0. -1.
        -13    1    4    4    0    0 -0.11852628240E+02 -0.24178911089E+02  0.69008658508E+01  0.27797958327E+02  0.00000000000E+00 0.  1.
         14    1    4    4    0    0  0.64510091512E+02 -0.28437243079E+01 -0.52315059806E+02  0.83105379834E+02  0.00000000000E+00 0. -1.
         -5    1    5    5    0  502 -0.14448466062E+03  0.18635384703E+03  0.21518954435E+03  0.31926823120E+03  0.47000000000E+01 0.  1.
         13    1    6    6    0    0 -0.35378741376E+02  0.46283571383E+02  0.32406397718E+02  0.66663325258E+02  0.00000000000E+00 0. -1.
        -14    1    6    6    0    0 -0.45279753198E+02 -0.27349274524E+02  0.67787400492E+02  0.85984711037E+02  0.00000000000E+00 0.  1.
</event>
<event>
12    1  0.1050869E+000  0.2362120E+03  0.7818608E-02  0.1122603E+00
         21   -1    0    0  503  502  0.00000000000E+00  0.00000000000E+00  0.10059367010E+04  0.10059367010E+04  0.00000000000E+00 0. -1.
         21   -1    0    0  501  503 -0.00000000000E+00 -0.00000000000E+00 -0.82422230974E+02  0.82422230974E+02  0.00000000000E+00 0. -1.
          6    2    1    2  501    0  0.64358714502E+02  0.14944175872E+03  0.77602676673E+03  0.81118041566E+03  0.17123446119E+03 0.  0.
         24    2    3    3    0    0 -0.18078792618E+02  0.26912961526E+02  0.26140725051E+03  0.27576974599E+03  0.81633644703E+02 0.  0.
         -6    2    1    2    0  502 -0.64358714502E+02 -0.14944175872E+03  0.14748770334E+03  0.27717851635E+03  0.16911659856E+03 0.  0.
        -24    2    5    5    0    0 -0.98560366095E+02 -0.91449954675E+02  0.13882319040E+03  0.20913466217E+03  0.79926145606E+02 0.  0.
          5    1    3    3  501    0  0.82437507121E+02  0.12252879719E+03  0.51461951622E+03  0.53541066967E+03  0.47000000000E+01 0. -1.
        -11    1    4    4    0    0 -0.22057986896E+02  0.34060836437E+02  0.26406749519E+03  0.26716724609E+03  0.00000000000E+00 0.  1.
         12    1    4    4    0    0  0.39791942773E+01 -0.71478749102E+01 -0.26602446872E+01  0.86024999055E+01  0.00000000000E+00 0. -1.
         -5    1    5    5    0  502  0.34201651593E+02 -0.57991804044E+02  0.86645129416E+01  0.68043854186E+02  0.47000000000E+01 0.  1.
         13    1    6    6    0    0 -0.49561578719E+02 -0.53829358248E+01  0.18219407795E+02  0.53077988881E+02  0.00000000000E+00 0. -1.
        -14    1    6    6    0    0 -0.48998787376E+02 -0.86067018851E+02  0.12060378261E+03  0.15605667329E+03  0.00000000000E+00 0.  1.
</event>
<event>
12    1  0.1050869E+000  0.1948438E+03  0.7818608E-02  0.1154183E+00
         21   -1    0    0  501  502  0.00000000000E+00  0.00000000000E+00  0.46041447731E+03  0.46041447731E+03  0.00000000000E+00 0.  1.
         21   -1    0    0  502  503 -0.00000000000E+00 -0.00000000000E+00 -0.85840968133E+02  0.85840968133E+02  0.00000000000E+00 0.  1.
         -6    2    1    2    0  503  0.30189727851E+01  0.92363582057E+02  0.24185885246E+03  0.31057980006E+03  0.17153414297E+03 0.  0.
        -24    2    3    3    0    0 -0.17435668667E+02  0.95111962431E+02  0.90745346614E+02  0.15799104687E+03  0.85884602922E+02 0.  0.
          6    2    1    2  501    0 -0.30189727851E+01 -0.92363582057E+02  0.13271465672E+03  0.23567564538E+03  0.17143419797E+03 0.  0.
         24    2    5    5    0    0 -0.12358963699E+02 -0.76576565218E+02  0.67436104453E+01  0.10828938305E+03  0.75262207489E+02 0.  0.
          5    1    5    5  501    0  0.93399909136E+01 -0.15787016838E+02  0.12597104627E+03  0.12738626233E+03  0.47000000000E+01 0. -1.
        -11    1    6    6    0    0 -0.12253238081E+02  0.12146991571E+02  0.91566941761E+01  0.19532954102E+02  0.00000000000E+00 0.  1.
         12    1    6    6    0    0 -0.10572561724E+00 -0.88723556790E+02 -0.24130837309E+01  0.88756428953E+02  0.00000000000E+00 0. -1.
         -5    1    3    3    0  503  0.20454641452E+02 -0.27483803739E+01  0.15111350585E+03  0.15258875319E+03  0.47000000000E+01 0.  1.
         11    1    4    4    0    0  0.27737243681E+02  0.45708010227E+01  0.18227301989E+02  0.33503454252E+02  0.00000000000E+00 0. -1.
        -12    1    4    4    0    0 -0.45172912348E+02  0.90541161408E+02  0.72518044625E+02  0.12448759262E+03  0.00000000000E+00 0.  1.
</event>
<event>
12    1  0.1050869E+000  0.2316919E+03  0.7818608E-02  0.1125667E+00
         21   -1    0    0  503  502  0.00000000000E+00  0.00000000000E+00  0.12415007852E+03  0.12415007852E+03  0.00000000000E+00 0. -1.
         21   -1    0    0  501  503 -0.00000000000E+00 -0.00000000000E+00 -0.77501459161E+03  0.77501459161E+03  0.00000000000E+00 0. -1.
          6    2    1    2  501    0 -0.53322934871E+02 -0.14553891961E+03 -0.25994193438E+02  0.23314549498E+03  0.17220978843E+03 0.  0.
         24    2    3    3    0    0 -0.87686798191E+02 -0.13708343866E+03 -0.52685086463E+02  0.18857124197E+03  0.79388608967E+02 0.  0.
         -6    2    1    2    0  502  0.53322934871E+02  0.14553891961E+03 -0.62487031965E+03  0.66601917515E+03  0.17056879194E+03 0.  0.
        -24    2    5    5    0    0  0.85654109083E+02  0.63056774514E+02 -0.28168014518E+03  0.31154746269E+03  0.80033331196E+02 0.  0.
          5    1    3    3  501    0  0.34363863320E+02 -0.84554809549E+01  0.26690893024E+02  0.44574253004E+02  0.47000000000E+01 0. -1.
        -11    1    4    4    0    0 -0.15177005537E+02 -0.66501484401E+02  0.10878070080E+02  0.69073304056E+02  0.00000000000E+00 0.  1.
         12    1    4    4    0    0 -0.72509792654E+02 -0.70581954255E+02 -0.63563156543E+02  0.11949793792E+03  0.00000000000E+00 0. -1.
         -5    1    5    5    0  502 -0.32331174212E+02  0.82482145096E+02 -0.34319017447E+03  0.35447171246E+03  0.47000000000E+01 0.  1.
         13    1    6    6    0    0  0.41223728153E+02  0.26454637796E+02 -0.40394209403E+02  0.63489650945E+02  0.00000000000E+00 0. -1.
        -14    1    6    6    0    0  0.44430380929E+02  0.36602136718E+02 -0.24128593578E+03  0.24805781174E+03  0.00000000000E+00 0.  1.
</event>
<event>
12    1  0.1050869E+000  0.2068691E+03  0.7818608E-02  0.1145830E+00
         21   -1    0    0  501  502  0.00000000000E+00  0.00000000000E+00  0.13968222857E+03  0.13968222857E+03  0.00000000000E+00 0. -1.
         21   -1    0    0  502  503 -0.00000000000E+00 -0.00000000000E+00 -0.33620637988E+03  0.33620637988E+03  0.00000000000E+00 0. -1.
         -6    2    1    2    0  503  0.39131097674E+02  0.89396567496E+02 -0.18448144929E+03  0.27717903350E+03  0.18240565340E+03 0.  0.
        -24    2    3    3    0    0 -0.34813480250E+02  0.72249573830E+02 -0.16168822771E+03  0.19778482120E+03  0.80893591784E+02 0.  0.
          6    2    1    2  501    0 -0.39131097674E+02 -0.89396567496E+02 -0.12042702012E+02  0.19870957495E+03  0.17267738537E+03 0.  0.
         24    2    5    5    0    0 -0.55497996268E+02 -0.33674426545E+01 -0.38863505739E+02  0.10700171704E+03  0.82750396437E+02 0.  0.
          5    1    5    5  501    0  0.16366898594E+02 -0.86029124842E+02  0.26820803727E+02  0.91707857914E+02  0.47000000000E+01 0. -1.
        -13    1    6    6    0    0 -0.50554960516E+02 -0.39218136933E+01 -0.63844123261E+02  0.81530710351E+02  0.00000000000E+00 0.  1.
         14    1    6    6    0    0 -0.49430357512E+01  0.55437103882E+00  0.24980617522E+02  0.25471006684E+02  0.00000000000E+00 0. -1.
         -5    1    3    3    0  503  0.73944577924E+02  0.17146993666E+02 -0.22793221586E+02  0.79394212298E+02  0.47000000000E+01 0.  1.
         13    1    4    4    0    0 -0.19255986362E+02  0.85462536670E+02 -0.15142039607E+03  0.17493648713E+03  0.00000000000E+00 0. -1.
        -14    1    4    4    0    0 -0.15557493888E+02 -0.13212962840E+02 -0.10267831642E+02  0.22848334068E+02  0.00000000000E+00 0.  1.
</event>
<event>
12    1  0.1050869E+000  0.2470362E+03  0.7818608E-02  0.1115198E+00
         21   -1    0    0  501  502  0.00000000000E+00  0.00000000000E+00  0.41138665781E+02  0.41138665781E+02  0.00000000000E+00 0. -1.
         21   -1    0    0  502  503 -0.00000000000E+00 -0.00000000000E+00 -0.15538043132E+04  0.15538043132E+04  0.00000000000E+00 0.  1.
         -6    2    1    2    0  503 -0.14191392158E+01  0.17731818928E+03 -0.92625035339E+03  0.95861776825E+03  0.17194346235E+03 0.  0.
        -24    2    3    3    0    0 -0.12784407981E+02  0.19022801377E+03 -0.91418507032E+03  0.93708885842E+03  0.77788479104E+02 0.  0.
          6    2    1    2  501    0  0.14191392158E+01 -0.17731818928E+03 -0.58641529404E+03  0.63632521074E+03  0.17199744921E+03 0.  0.
         24    2    5    5    0    0 -0.99599474464E+01 -0.75472901631E+02 -0.46277977780E+03  0.47567099478E+03  0.79387738996E+02 0.  0.
          5    1    5    5  501    0  0.11379086662E+02 -0.10184528765E+03 -0.12363551624E+03  0.16065421595E+03  0.47000000000E+01 0. -1.
        -13    1    6    6    0    0  0.33300246592E+02 -0.48771271331E+02 -0.25863447286E+03  0.26529103619E+03  0.00000000000E+00 0.  1.
         14    1    6    6    0    0 -0.43260194039E+02 -0.26701630299E+02 -0.20414530494E+03  0.21037995860E+03  0.00000000000E+00 0. -1.
         -5    1    3    3    0  503  0.11365268765E+02 -0.12909824497E+02 -0.12065283071E+02  0.21528909824E+02  0.47000000000E+01 0.  1.
         13    1    4    4    0    0  0.95579392145E+01  0.25963610995E+02 -0.49974896206E+02  0.57122268414E+02  0.00000000000E+00 0. -1.
        -14    1    4    4    0    0 -0.22342347195E+02  0.16426440278E+03 -0.86421017411E+03  0.87996659001E+03  0.00000000000E+00 0.  1.
</event>
<event>
12    1  0.1050869E+000  0.2619971E+03  0.7818608E-02  0.1108294E+00
         21   -1    0    0  501  502  0.00000000000E+00  0.00000000000E+00  0.38141138828E+03  0.38141138828E+03  0.00000000000E+00 0. -1.
         21   -1    0    0  502  503 -0.00000000000E+00 -0.00000000000E+00 -0.40155906570E+03  0.40155906570E+03  0.00000000000E+00 0. -1.
         -6    2    1    2    0  503  0.74490655129E+02  0.16113797271E+03 -0.30766256100E+03  0.40410235731E+03  0.19268668815E+03 0.  0.
        -24    2    3    3    0    0  0.12028441579E+03  0.77298598808E+02 -0.22303841673E+03  0.27639392013E+03  0.78765790110E+02 0.  0.
          6    2    1    2  501    0 -0.74490655129E+02 -0.16113797271E+03  0.28751488358E+03  0.37886809667E+03  0.17135320960E+03 0.  0.
         24    2    5    5    0    0 -0.11361354516E+03 -0.14830928406E+03  0.21875759551E+03  0.29858839537E+03  0.79977889920E+02 0.  0.
          5    1    5    5  501    0  0.39122890034E+02 -0.12828688653E+02  0.68757288074E+02  0.80279701297E+02  0.47000000000E+01 0. -1.
        -11    1    6    6    0    0 -0.76876841842E+02 -0.12132526024E+03  0.20622690368E+03  0.25131534650E+03  0.00000000000E+00 0.  1.
         12    1    6    6    0    0 -0.36736703321E+02 -0.26984023818E+02  0.12530691831E+02  0.47273048876E+02  0.00000000000E+00 0. -1.
         -5    1    3    3    0  503 -0.45793760660E+02  0.83839373900E+02 -0.84624144276E+02  0.12770843718E+03  0.47000000000E+01 0.  1.
         11    1    4    4    0    0  0.11381125173E+03  0.77323409391E+02 -0.15186423187E+03  0.20492597586E+03  0.00000000000E+00 0. -1.
        -12    1    4    4    0    0  0.64731640556E+01 -0.24810583186E-01 -0.71174184861E+02  0.71467944276E+02  0.00000000000E+00 0.  1.
</event>
<event>
12    1  0.1050869E+000  0.2467195E+03  0.7818608E-02  0.1115412E+00
         21   -1    0    0  501  502  0.00000000000E+00  0.00000000000E+00  0.61081539699E+03  0.61081539699E+03  0.00000000000E+00 0. -1.
         21   -1    0    0  502  503 -0.00000000000E+00 -0.00000000000E+00 -0.10410880042E+03  0.10410880042E+03  0.00000000000E+00 0.  1.
         -6    2    1    2    0  503  0.88588565766E+02 -0.15249219425E+03  0.17912369934E+03  0.30488654793E+03  0.17253609522E+03 0.  0.
        -24    2    3    3    0    0  0.84499284915E+02 -0.63031074205E+02  0.15704417476E+03  0.21253066223E+03  0.96919369043E+02 0.  0.
          6    2    1    2  501    0 -0.88588565766E+02  0.15249219425E+03  0.32758289722E+03  0.41003764948E+03  0.17239059180E+03 0.  0.
         24    2    5    5    0    0 -0.74186534055E+02  0.16993498005E+03  0.33011837098E+03  0.38679570634E+03  0.79064785518E+02 0.  0.
          5    1    5    5  501    0 -0.14402031711E+02 -0.17442785792E+02 -0.25354737515E+01  0.23241943136E+02  0.47000000000E+01 0. -1.
        -11    1    6    6    0    0  0.10429293423E+02  0.54458172606E+02  0.64522734222E+02  0.85074355457E+02  0.00000000000E+00 0.  1.
         12    1    6    6    0    0 -0.84615827477E+02  0.11547680744E+03  0.26559563675E+03  0.30172135088E+03  0.00000000000E+00 0. -1.
         -5    1    3    3    0  503  0.40892808507E+01 -0.89461120049E+02  0.22079524579E+02  0.92355885703E+02  0.47000000000E+01 0.  1.
         13    1    4    4    0    0 -0.10981557037E+02 -0.71048335247E+01  0.71444785300E+02  0.72632159550E+02  0.00000000000E+00 0. -1.
        -14    1    4    4    0    0  0.95480841952E+02 -0.55926240680E+02  0.85599389461E+02  0.13989850268E+03  0.00000000000E+00 0.  1.
</event>
<event>
12    1  0.1050869E+000  0.4772289E+03  0.7818608E-02  0.1019900E+00
         21   -1    0    0  501  502  0.00000000000E+00  0.00000000000E+00  0.36600050191E+03  0.36600050191E+03  0.00000000000E+00 0. -1.
         21   -1    0    0  502  503 -0.00000000000E+00 -0.00000000000E+00 -0.77481360578E+03  0.77481360578E+03  0.00000000000E+00 0. -1.
         -6    2    1    2    0  503 -0.36042065130E+03  0.26149173926E+03  0.48699800070E+02  0.47970731722E+03  0.17165798577E+03 0.  0.
        -24    2    3    3    0    0 -0.14302644375E+03  0.17670053749E+03  0.49302167645E+02  0.24631442481E+03  0.80996596091E+02 0.  0.
          6    2    1    2  501    0  0.36042065130E+03 -0.26149173926E+03 -0.45751290394E+03  0.66110679048E+03  0.17164834854E+03 0.  0.
         24    2    5    5    0    0  0.85444776606E+02 -0.38999427722E+02 -0.12917356379E+03  0.17846471539E+03  0.79637176266E+02 0.  0.
          5    1    5    5  501    0  0.27497587470E+03 -0.22249231153E+03 -0.32833934015E+03  0.48264207509E+03  0.47000000000E+01 0. -1.
        -13    1    6    6    0    0  0.10181559615E+02 -0.25857139994E+02  0.68485481909E+00  0.27797929257E+02  0.00000000000E+00 0.  1.
         14    1    6    6    0    0  0.75263216991E+02 -0.13142287728E+02 -0.12985841861E+03  0.15066678613E+03  0.00000000000E+00 0. -1.
         -5    1    3    3    0  503 -0.21739420756E+03  0.84791201769E+02 -0.60236757561E+00  0.23339289240E+03  0.47000000000E+01 0.  1.
         11    1    4    4    0    0 -0.61029356190E+02  0.12513882123E+03  0.37540186541E+01  0.13927813738E+03  0.00000000000E+00 0. -1.
        -12    1    4    4    0    0 -0.81997087557E+02  0.51561716253E+02  0.45548148991E+02  0.10703628743E+03  0.00000000000E+00 0.  1.
</event>
<event>
12    1  0.1050869E+000  0.3220733E+03  0.7818608E-02  0.1074810E+00
         21   -1    0    0  503  502  0.00000000000E+00  0.00000000000E+00  0.62170508220E+03  0.62170508220E+03  0.00000000000E+00 0. -1.
         21   -1    0    0  501  503 -0.00000000000E+00 -0.00000000000E+00 -0.24287736609E+03  0.24287736609E+03  0.00000000000E+00 0. -1.
          6    2    1    2  501    0  0.20064518766E+03  0.18362493477E+03  0.43187763431E+03  0.53816933145E+03  0.17067902713E+03 0.  0.
         24    2    3    3    0    0  0.12624937111E+03  0.19380043329E+03  0.34940802043E+03  0.42653777004E+03  0.79693116895E+02 0.  0.
         -6    2    1    2    0  502 -0.20064518766E+03 -0.18362493477E+03 -0.53049918199E+02  0.32641311683E+03  0.17249527824E+03 0.  0.
        -24    2    5    5    0    0 -0.89897516527E+02 -0.17157213324E+03 -0.39474477250E+02  0.21408903534E+03  0.82202921572E+02 0.  0.
          5    1    3    3  501    0  0.74395816550E+02 -0.10175498523E+02  0.82469613884E+02  0.11163156142E+03  0.47000000000E+01 0. -1.
        -13    1    4    4    0    0  0.70442444441E+02  0.55337101552E+02  0.88401610757E+02  0.12585379443E+03  0.00000000000E+00 0.  1.
         14    1    4    4    0    0  0.55806926666E+02  0.13846333174E+03  0.26100640967E+03  0.30068397561E+03  0.00000000000E+00 0. -1.
         -5    1    5    5    0  502 -0.11074767113E+03 -0.12052801529E+02 -0.13575440949E+02  0.11232408149E+03  0.47000000000E+01 0.  1.
         11    1    6    6    0    0 -0.16856016288E+02  0.46323004703E+01  0.50937794528E+01  0.18207967538E+02  0.00000000000E+00 0. -1.
        -12    1    6    6    0    0 -0.73041500239E+02 -0.17620443371E+03 -0.44568256703E+02  0.19588106780E+03  0.00000000000E+00 0.  1.
</event>
<event>
12    1  0.1050869E+000  0.1773418E+03  0.7818608E-02  0.1170520E+00
         21   -1    0    0  503  502  0.00000000000E+00  0.00000000000E+00  0.14284674232E+04  0.14284674232E+04  0.00000000000E+00 0.  1.
         21   -1    0    0  501  503 -0.00000000000E+00 -0.00000000000E+00 -0.38345251318E+02  0.38345251318E+02  0.00000000000E+00 0.  1.
          6    2    1    2  501    0 -0.73859384118E+01 -0.43548269689E+02  0.11739851656E+04  0.11872320812E+04  0.17125373536E+03 0.  0.
         24    2    3    3    0    0 -0.25647994488E+02 -0.70469300045E+02  0.45063511440E+03  0.46313565735E+03  0.76150436037E+02 0.  0.
         -6    2    1    2    0  502  0.73859384118E+01  0.43548269689E+02  0.21613700630E+03  0.27958059326E+03  0.17175301674E+03 0.  0.
        -24    2    5    5    0    0  0.45941783361E+01 -0.42459913145E+02  0.11174886817E+03  0.14421377746E+03  0.80534796038E+02 0.  0.
          5    1    3    3  501    0  0.18262056076E+02  0.26921030356E+02  0.72335005115E+03  0.72409642387E+03  0.47000000000E+01 0. -1.
        -11    1    4    4    0    0 -0.56259986315E+01  0.15291481881E+02  0.11457894383E+03  0.11573165362E+03  0.00000000000E+00 0.  1.
         12    1    4    4    0    0 -0.20021995857E+02 -0.85760781926E+02  0.33605617057E+03  0.34740400374E+03  0.00000000000E+00 0. -1.
         -5    1    5    5    0  502  0.27917600757E+01  0.86008182833E+02  0.10438813813E+03  0.13536681581E+03  0.47000000000E+01 0.  1.
         11    1    6    6    0    0  0.16927112086E+02  0.11903526926E+02  0.74127245069E+02  0.76961480874E+02  0.00000000000E+00 0. -1.
        -12    1    6    6    0    0 -0.12332933750E+02 -0.54363440070E+02  0.37621623099E+02  0.67252296584E+02  0.00000000000E+00 0.  1.
</event>
<event>
12    1  0.1050869E+000  0.1971345E+03  0.7818608E-02  0.1152577E+00
         21   -1    0    0  501  502  0.00000000000E+00  0.00000000000E+00  0.10866198902E+03  0.10866198902E+03  0.00000000000E+00 0. -1.
         21   -1    0    0  502  503 -0.00000000000E+00 -0.00000000000E+00 -0.36111082992E+03  0.36111082992E+03  0.00000000000E+00 0. -1.
         -6    2    1    2    0  503  0.95967470844E+02  0.21788752168E+02 -0.15788637011E+03  0.25113141247E+03  0.16868424728E+03 0.  0.
        -24    2    3    3    0    0  0.89453202914E+00  0.48386682495E+02 -0.98368992526E+02  0.13575931087E+03  0.80075343066E+02 0.  0.
          6    2    1    2  501    0 -0.95967470844E+02 -0.21788752168E+02 -0.94562470789E+02  0.21864140647E+03  0.17081422236E+03 0.  0.
         24    2    5    5    0    0 -0.36616295689E+02  0.21425361568E+02 -0.11113083568E+03  0.14323170992E+03  0.79783838336E+02 0.  0.
          5    1    5    5  501    0 -0.59351175155E+02 -0.43214113737E+02  0.16568364893E+02  0.75409696549E+02  0.47000000000E+01 0. -1.
        -11    1    6    6    0    0 -0.60710851456E+02  0.15735018992E+02 -0.61863129511E+02  0.88093388516E+02  0.00000000000E+00 0.  1.
         12    1    6    6    0    0  0.24094555767E+02  0.56903425766E+01 -0.49267706171E+02  0.55138321407E+02  0.00000000000E+00 0. -1.
         -5    1    3    3    0  503  0.95072938815E+02 -0.26597930326E+02 -0.59517377579E+02  0.11537210160E+03  0.47000000000E+01 0.  1.
         11    1    4    4    0    0  0.10717137421E+02  0.67269983918E+01 -0.91546652885E+02  0.92416985432E+02  0.00000000000E+00 0. -1.
        -12    1    4    4    0    0 -0.98226053922E+01  0.41659684103E+02 -0.68223396410E+01  0.43342325439E+02  0.00000000000E+00 0.  1.
</event>
<event>
12    1  0.1050869E+000  0.2684870E+03  0.7818608E-02  0.1103804E+00
         21   -1    0    0  503  502  0.00000000000E+00  0.00000000000E+00  0.12510059964E+04  0.12510059964E+04  0.00000000000E+00 0.  1.
         21   -1    0    0  501  503 -0.00000000000E+00 -0.00000000000E+00 -0.57930876519E+02  0.57930876519E+02  0.00000000000E+00 0.  1.
          6    2    1    2  501    0 -0.18625589683E+03  0.40472183168E+02  0.72547500111E+03  0.76973826292E+03  0.17278240491E+03 0.  0.
         24    2    3    3    0    0 -0.19064577337E+03 -0.86079635694E+01  0.60395272198E+03  0.63852131986E+03  0.80812607863E+02 0.  0.
         -6    2    1    2    0  502  0.18625589683E+03 -0.40472183168E+02  0.46760011880E+03  0.53919861003E+03  0.18909260494E+03 0.  0.
        -24    2    5    5    0    0  0.20337279815E+03 -0.70791723987E+02  0.43188291519E+03  0.48909799626E+03  0.79511221262E+02 0.  0.
          5    1    3    3  501    0  0.43898765382E+01  0.49080146737E+02  0.12152227913E+03  0.13121694305E+03  0.47000000000E+01 0. -1.
        -11    1    4    4    0    0  0.69545061241E-01  0.14449267492E+02  0.57401643659E+02  0.59192354763E+02  0.00000000000E+00 0.  1.
         12    1    4    4    0    0 -0.19071531843E+03 -0.23057231062E+02  0.54655107832E+03  0.57932896510E+03  0.00000000000E+00 0. -1.
         -5    1    5    5    0  502 -0.17116901316E+02  0.30319540819E+02  0.35717203609E+02  0.50100613766E+02  0.47000000000E+01 0.  1.
         13    1    6    6    0    0  0.17496014580E+03 -0.44243160541E+02  0.39995046967E+03  0.43878113914E+03  0.00000000000E+00 0. -1.
        -14    1    6    6    0    0  0.28412652343E+02 -0.26548563446E+02  0.31932445520E+02  0.50316857127E+02  0.00000000000E+00 0.  1.
</event>
<event>
12    1  0.1161333E+000  0.2715187E+03  0.7818608E-02  0.1100512E+00
         21   -1    0    0  503  502  0.00000000000E+00  0.00000000000E+00  0.68621094305E+03  0.68621094305E+03  0.00000000000E+00 0.  1.
         21   -1    0    0  501  503 -0.00000000000E+00 -0.00000000000E+00 -0.75747589348E+03  0.75747589348E+03  0.00000000000E+00 0.  1.
          6    2    1    2  501    0 -0.20522288772E+03  0.45882661887E+02  0.63321164264E+03  0.68869697506E+03  0.17066014993E+03 0.  0.
         24    2    3    3    0    0 -0.85888048080E+02  0.82282071497E+02  0.38297333429E+03  0.40904179106E+03  0.80619575552E+02 0.  0.
         -6    2    1    2    0  502  0.20522288772E+03 -0.45882661887E+02 -0.70447659307E+03  0.75498986147E+03  0.17175787734E+03 0.  0.
        -24    2    5    5    0    0  0.12466045564E+03 -0.79232724012E+01 -0.23882401999E+03  0.28087423261E+03  0.79059563446E+02 0.  0.
          5    1    3    3  501    0 -0.11933483964E+03 -0.36399409611E+02  0.25023830835E+03  0.27965518400E+03  0.47000000000E+01 0. -1.
        -11    1    4    4    0    0 -0.93900631860E+02  0.89142864000E+02  0.37169143333E+03  0.39359662153E+03  0.00000000000E+00 0.  1.
         12    1    4    4    0    0  0.80125837808E+01 -0.68607925030E+01  0.11281900962E+02  0.15445169534E+02  0.00000000000E+00 0. -1.
         -5    1    5    5    0  502  0.80562432078E+02 -0.37959389485E+02 -0.46565257308E+03  0.47411562886E+03  0.47000000000E+01 0.  1.
         13    1    6    6    0    0  0.11082452151E+03 -0.34731311812E+02 -0.20449291270E+03  0.23517161804E+03  0.00000000000E+00 0. -1.
        -14    1    6    6    0    0  0.13835934131E+02  0.26808039411E+02 -0.34331107294E+02  0.45702614568E+02  0.00000000000E+00 0.  1.
</event>
<event>
12    1  0.1050869E+000  0.2176976E+03  0.7818608E-02  0.1135887E+00
         21   -1    0    0  503  502  0.00000000000E+00  0.00000000000E+00  0.90005764831E+02  0.90005764831E+02  0.00000000000E+00 0.  1.
         21   -1    0    0  501  503 -0.00000000000E+00 -0.00000000000E+00 -0.16817455075E+04  0.16817455075E+04  0.00000000000E+00 0.  1.
          6    2    1    2  501    0  0.11772626239E+03  0.61608052473E+02 -0.61374598691E+02  0.22618376679E+03  0.17244486078E+03 0.  0.
         24    2    3    3    0    0  0.17478072008E+02  0.55620082913E+02  0.21460471147E+02  0.95917523081E+02  0.73079017425E+02 0.  0.
         -6    2    1    2    0  502 -0.11772626239E+03 -0.61608052473E+02 -0.15303651440E+04  0.15455675055E+04  0.17060602361E+03 0.  0.
        -24    2    5    5    0    0 -0.56537993639E+02  0.18370726186E+02 -0.47225009224E+03  0.48266103647E+03  0.80046850053E+02 0.  0.
          5    1    3    3  501    0  0.10024819039E+03  0.59879695600E+01 -0.82835069839E+02  0.13026624371E+03  0.47000000000E+01 0. -1.
        -13    1    4    4    0    0  0.33076774886E+02 -0.33711105105E+00  0.18154349793E+02  0.37732838445E+02  0.00000000000E+00 0.  1.
         14    1    4    4    0    0 -0.15598702879E+02  0.55957193964E+02  0.33061213547E+01  0.58184684636E+02  0.00000000000E+00 0. -1.
         -5    1    5    5    0  502 -0.61188268755E+02 -0.79978778659E+02 -0.10581150517E+04  0.10629064691E+04  0.47000000000E+01 0.  1.
         13    1    6    6    0    0  0.17613260029E+02 -0.33854002915E+01 -0.44357878356E+02  0.47846726494E+02  0.00000000000E+00 0. -1.
        -14    1    6    6    0    0 -0.74151253668E+02  0.21756126477E+02 -0.42789221388E+03  0.43481430998E+03  0.00000000000E+00 0.  1.
</event>
<event>
12    1  0.1050869E+000  0.1845756E+03  0.7818608E-02  0.1163606E+00
         21   -1    0    0  501  502  0.00000000000E+00  0.00000000000E+00  0.90476757537E+02  0.90476757537E+02  0.00000000000E+00 0. -1.
         21   -1    0    0  502  503 -0.00000000000E+00 -0.00000000000E+00 -0.49096095885E+03  0.49096095885E+03  0.00000000000E+00 0. -1.
         -6    2    1    2    0  503 -0.66284552342E+02  0.88494915512E+01 -0.59333476966E+02  0.19387779783E+03  0.17203541386E+03 0.  0.
        -24    2    3    3    0    0  0.24397208533E+02 -0.17351996078E+02 -0.48010649390E+02  0.98693785860E+02  0.80864858625E+02 0.  0.
          6    2    1    2  501    0  0.66284552342E+02 -0.88494915512E+01 -0.34115072435E+03  0.38755991856E+03  0.17130942289E+03 0.  0.
         24    2    5    5    0    0  0.77142208784E+02  0.41506722289E+02 -0.29598729427E+03  0.31889069407E+03  0.80056655093E+02 0.  0.
          5    1    5    5  501    0 -0.10857656442E+02 -0.50356213840E+02 -0.45163430077E+02  0.68669224490E+02  0.47000000000E+01 0. -1.
        -11    1    6    6    0    0  0.81391957948E+02  0.21841176884E+02 -0.28216535897E+03  0.29448086123E+03  0.00000000000E+00 0.  1.
         12    1    6    6    0    0 -0.42497491640E+01  0.19665545405E+02 -0.13821935299E+02  0.24409832843E+02  0.00000000000E+00 0. -1.
         -5    1    3    3    0  503 -0.90681760876E+02  0.26201487630E+02 -0.11322827577E+02  0.95184011966E+02  0.47000000000E+01 0.  1.
         11    1    4    4    0    0  0.25730231991E+02  0.27933977071E+02 -0.34775597185E+02  0.51494602366E+02  0.00000000000E+00 0. -1.
        -12    1    4    4    0    0 -0.13330234574E+01 -0.45285973149E+02 -0.13235052205E+02  0.47199183494E+02  0.00000000000E+00 0.  1.
</event>
<event>
12    1  0.1050869E+000  0.1797823E+03  0.7818608E-02  0.1168397E+00
         21   -1    0    0  503  502  0.00000000000E+00  0.00000000000E+00  0.48915063217E+02  0.48915063217E+02  0.00000000000E+00 0. -1.
         21   -1    0    0  501  503 -0.00000000000E+00 -0.00000000000E+00 -0.72040805956E+03  0.72040805956E+03  0.00000000000E+00 0. -1.
          6    2    1    2  501    0 -0.33955245659E+02  0.39407551697E+02 -0.45298961220E+03  0.48736152649E+03  0.17209228600E+03 0.  0.
         24    2    3    3    0    0  0.23786043079E+02  0.64038560736E+02 -0.36729001255E+03  0.38102595196E+03  0.74914014957E+02 0.  0.
         -6    2    1    2    0  502  0.33955245659E+02 -0.39407551697E+02 -0.21850338414E+03  0.28196159628E+03  0.17044852320E+03 0.  0.
        -24    2    5    5    0    0  0.34415806202E+01 -0.89602271692E+02 -0.16632790447E+03  0.20325350046E+03  0.74877246709E+02 0.  0.
          5    1    3    3  501    0 -0.57741288737E+02 -0.24631009038E+02 -0.85699599652E+02  0.10633557454E+03  0.47000000000E+01 0. -1.
        -11    1    4    4    0    0  0.34885978153E+02  0.47895751918E+01 -0.78867812378E+02  0.86371889707E+02  0.00000000000E+00 0.  1.
         12    1    4    4    0    0 -0.11099935075E+02  0.59248985544E+02 -0.28842220018E+03  0.29465406225E+03  0.00000000000E+00 0. -1.
         -5    1    5    5    0  502  0.30513665038E+02  0.50194719995E+02 -0.52175479668E+02  0.78708095823E+02  0.47000000000E+01 0.  1.
         11    1    6    6    0    0  0.15909845720E+02 -0.38352903619E+02 -0.13646491405E+03  0.14264200354E+03  0.00000000000E+00 0. -1.
        -12    1    6    6    0    0 -0.12468265100E+02 -0.51249368073E+02 -0.29862990422E+02  0.60611496924E+02  0.00000000000E+00 0.  1.
</event>
<event>
12    1  0.1050869E+000  0.2097718E+03  0.7818608E-02  0.1141817E+00
         21   -1    0    0  501  502  0.00000000000E+00  0.00000000000E+00  0.85232208103E+02  0.85232208103E+02  0.00000000000E+00 0.  1.
         21   -1    0    0  502  503 -0.00000000000E+00 -0.00000000000E+00 -0.54302941048E+03  0.54302941048E+03  0.00000000000E+00 0.  1.
         -6    2    1    2    0  503 -0.11879847131E+03 -0.22925115966E+02 -0.29992715308E+03  0.36600617530E+03  0.17136389782E+03 0.  0.
        -24    2    3    3    0    0 -0.48305031321E+02 -0.32334750381E+02 -0.56328321750E+02  0.11219453860E+03  0.77690556223E+02 0.  0.
          6    2    1    2  501    0  0.11879847131E+03  0.22925115966E+02 -0.15787004930E+03  0.26225544329E+03  0.17092784249E+03 0.  0.
         24    2    5    5    0    0  0.61127932343E+02  0.30110473202E+02 -0.17253127577E+03  0.20213421588E+03  0.80299037370E+02 0.  0.
          5    1    5    5  501    0  0.57670538968E+02 -0.71853572360E+01  0.14661226465E+02  0.60121227407E+02  0.47000000000E+01 0. -1.
        -13    1    6    6    0    0  0.84936016289E+01 -0.20542541708E+02 -0.86320960552E+02  0.89137228581E+02  0.00000000000E+00 0.  1.
         14    1    6    6    0    0  0.52634330714E+02  0.50653014910E+02 -0.86210315215E+02  0.11299698730E+03  0.00000000000E+00 0. -1.
         -5    1    3    3    0  503 -0.70493439990E+02  0.94096344152E+01 -0.24359883133E+03  0.25381163670E+03  0.47000000000E+01 0.  1.
         11    1    4    4    0    0 -0.33844858632E+02 -0.16837877920E+02 -0.74974075559E+02  0.83964877148E+02  0.00000000000E+00 0. -1.
        -12    1    4    4    0    0 -0.14460172689E+02 -0.15496872462E+02  0.18645753809E+02  0.28229661447E+02  0.00000000000E+00 0.  1.
</event>
<event>
12    1  0.1050869E+000  0.2377055E+03  0.7818608E-02  0.1121374E+00
         21   -1    0    0  503  502  0.00000000000E+00  0.00000000000E+00  0.54084729567E+03  0.54084729567E+03  0.00000000000E+00 0.  1.
         21   -1    0    0  501  503 -0.00000000000E+00 -0.00000000000E+00 -0.11599759581E+03  0.11599759581E+03  0.00000000000E+00 0.  1.
          6    2    1    2  501    0 -0.13119741069E+03  0.99728766494E+02  0.10850487838E+03  0.26129907854E+03  0.17130473541E+03 0.  0.
         24    2    3    3    0    0 -0.37715965440E+02  0.10789048778E+03  0.40452768117E+02  0.14528798419E+03  0.80058231936E+02 0.  0.
         -6    2    1    2    0  502  0.13119741069E+03 -0.99728766494E+02  0.31634482148E+03  0.39554581294E+03  0.17094986582E+03 0.  0.
        -24    2    5    5    0    0  0.11575810725E+03 -0.73989898895E+02  0.32676495941E+03  0.36342836176E+03  0.80189718154E+02 0.  0.
          5    1    3    3  501    0 -0.93481445250E+02 -0.81617212838E+01  0.68052110259E+02  0.11601109434E+03  0.47000000000E+01 0. -1.
        -11    1    4    4    0    0 -0.56017460369E+02  0.10459648018E+03  0.25345561419E+02  0.12132920925E+03  0.00000000000E+00 0.  1.
         12    1    4    4    0    0  0.18301494929E+02  0.32940075932E+01  0.15107206698E+02  0.23958774945E+02  0.00000000000E+00 0. -1.
         -5    1    5    5    0  502  0.15439303439E+02 -0.25738867600E+02 -0.10420137936E+02  0.32117451184E+02  0.47000000000E+01 0.  1.
         11    1    6    6    0    0  0.96856165307E+02 -0.48262988526E+02  0.15696040950E+03  0.19064889974E+03  0.00000000000E+00 0. -1.
        -12    1    6    6    0    0  0.18901941944E+02 -0.25726910368E+02  0.16980454991E+03  0.17277946202E+03  0.00000000000E+00 0.  1.
</event>
<event>
12    1  0.1050869E+000  0.4199490E+03  0.7818608E-02  0.1037140E+00
         21   -1    0    0  503  502  0.00000000000E+00  0.00000000000E+00  0.97694227878E+03  0.97694227878E+03  0.00000000000E+00 0.  1.
         21   -1    0    0  501  503 -0.00000000000E+00 -0.00000000000E+00 -0.83237919242E+03  0.83237919242E+03  0.00000000000E+00 0. -1.
          6    2    1    2  501    0  0.38197109468E+03  0.24149566040E+02 -0.72846632289E+03  0.84084502034E+03  0.17283531448E+03 0.  0.
         24    2    3    3    0    0  0.23376228389E+03  0.24066854783E+01 -0.57756362167E+03  0.62816610816E+03  0.79764182792E+02 0.  0.
         -6    2    1    2    0  502 -0.38197109468E+03 -0.24149566040E+02  0.87302940925E+03  0.96847645087E+03  0.17111740930E+03 0.  0.
        -24    2    5    5    0    0 -0.12160067273E+03  0.27214473495E+01  0.20280998279E+03  0.24894119976E+03  0.77754112011E+02 0.  0.
          5    1    3    3  501    0  0.14820881079E+03  0.21742880562E+02 -0.15090270122E+03  0.21267891218E+03  0.47000000000E+01 0. -1.
        -11    1    4    4    0    0  0.87279919442E+02  0.60022257870E+01 -0.32100728252E+03  0.33271532349E+03  0.00000000000E+00 0.  1.
         12    1    4    4    0    0  0.14648236445E+03 -0.35955403088E+01 -0.25655633915E+03  0.29545078467E+03  0.00000000000E+00 0. -1.
         -5    1    5    5    0  502 -0.26037042194E+03 -0.26871013390E+02  0.67021942645E+03  0.71953525110E+03  0.47000000000E+01 0.  1.
         13    1    6    6    0    0 -0.73465582325E+02  0.34474469161E+01  0.18236907277E+03  0.19664067580E+03  0.00000000000E+00 0. -1.
        -14    1    6    6    0    0 -0.48135090409E+02 -0.72599956667E+00  0.20440910019E+02  0.52300523960E+02  0.00000000000E+00 0.  1.
</event>
<event>
12    1  0.1050869E+000  0.3231725E+03  0.7818608E-02  0.1074400E+00
         21   -1    0    0  503  502  0.00000000000E+00  0.00000000000E+00  0.10421669070E+03  0.10421669070E+03  0.00000000000E+00 0. -1.
         21   -1    0    0  501  503 -0.00000000000E+00 -0.00000000000E+00 -0.12206586442E+04  0.12206586442E+04  0.00000000000E+00 0. -1.
          6    2    1    2  501    0 -0.99651620501E+02  0.25130684873E+03 -0.84324865357E+03  0.90305523430E+03  0.17707311131E+03 0.  0.
         24    2    3    3    0    0 -0.56176036249E+02  0.22078546974E+03 -0.49572765315E+03  0.55146653035E+03  0.80420503043E+02 0.  0.
         -6    2    1    2    0  502  0.99651620501E+02 -0.25130684873E+03 -0.27319329992E+03  0.42182010061E+03  0.17381611107E+03 0.  0.
        -24    2    5    5    0    0  0.12975933636E+03 -0.23561201394E+03 -0.26630415996E+03  0.38685794045E+03  0.79941566154E+02 0.  0.
          5    1    3    3  501    0 -0.43475584253E+02  0.30521378991E+02 -0.34752100043E+03  0.35158870394E+03  0.47000000000E+01 0. -1.
        -11    1    4    4    0    0 -0.65361278271E+02  0.95174541636E+02 -0.24816157049E+03  0.27370505136E+03  0.00000000000E+00 0.  1.
         12    1    4    4    0    0  0.91852420226E+01  0.12561092810E+03 -0.24756608265E+03  0.27776147899E+03  0.00000000000E+00 0. -1.
         -5    1    5    5    0  502 -0.30107715855E+02 -0.15694834792E+02 -0.68891399626E+01  0.34962160153E+02  0.47000000000E+01 0.  1.
         13    1    6    6    0    0  0.12130033262E+01  0.52414180901E+01  0.13464713280E+00  0.53816326998E+01  0.00000000000E+00 0. -1.
        -14    1    6    6    0    0  0.12854633303E+03 -0.24085343203E+03 -0.26643880709E+03  0.38147630775E+03  0.00000000000E+00 0.  1.
</event>
<event>
12    1  0.1050869E+000  0.1900585E+03  0.7818608E-02  0.1158481E+00
         21   -1    0    0  503  502  0.00000000000E+00  0.00000000000E+00  0.15605182171E+03  0.15605182171E+03  0.00000000000E+00 0. -1.
         21   -1    0    0  501  503 -0.00000000000E+00 -0.00000000000E+00 -0.23181769371E+03  0.23181769371E+03  0.00000000000E+00 0.  1.
          6    2    1    2  501    0  0.31093422651E+02  0.72444059869E+02 -0.26958010258E+02  0.19164404815E+03  0.17258552700E+03 0.  0.
         24    2    3    3    0    0  0.18262887691E+02  0.58018350822E+02 -0.85335389221E+02  0.12997775198E+03  0.76892296470E+02 0.  0.
         -6    2    1    2    0  502 -0.31093422651E+02 -0.72444059869E+02 -0.48807861744E+02  0.19622546727E+03  0.17293722530E+03 0.  0.
        -24    2    5    5    0    0  0.12067546003E+02  0.17765936156E+02  0.50136541392E+01  0.82561232919E+02  0.79561085332E+02 0.  0.
          5    1    3    3  501    0  0.12830534960E+02  0.14425709047E+02  0.58377378963E+02  0.61666296171E+02  0.47000000000E+01 0. -1.
        -13    1    4    4    0    0 -0.10877154432E+02  0.63377358058E+02 -0.39712864534E+02  0.75578526133E+02  0.00000000000E+00 0.  1.
         14    1    4    4    0    0  0.29140042123E+02 -0.53590072364E+01 -0.45622524687E+02  0.54399225843E+02  0.00000000000E+00 0. -1.
         -5    1    5    5    0  502 -0.43160968654E+02 -0.90209996025E+02 -0.53821515883E+02  0.11366423435E+03  0.47000000000E+01 0.  1.
         13    1    6    6    0    0 -0.19494380482E+02 -0.89771927168E+01  0.27965865407E+02  0.35252099050E+02  0.00000000000E+00 0. -1.
        -14    1    6    6    0    0  0.31561926485E+02  0.26743128873E+02 -0.22952211267E+02  0.47309133869E+02  0.00000000000E+00 0.  1.
</event>
<event>
12    1  0.1050869E+000  0.1839638E+03  0.7818608E-02  0.1164210E+00
         21   -1    0    0  501  502  0.00000000000E+00  0.00000000000E+00  0.26321945949E+03  0.26321945949E+03  0.00000000000E+00 0.  1.
         21   -1    0    0  502  503 -0.00000000000E+00 -0.00000000000E+00 -0.21653354642E+03  0.21653354642E+03  0.00000000000E+00 0.  1.
         -6    2    1    2    0  503  0.99666127480E+01  0.66293830226E+02 -0.13005944102E+03  0.22464204482E+03  0.17045346815E+03 0.  0.
        -24    2    3    3    0    0  0.25992798837E+00  0.11042695375E+03 -0.10891382422E+03  0.17453037521E+03  0.80027814458E+02 0.  0.
          6    2    1    2  501    0 -0.99666127480E+01 -0.66293830226E+02  0.17674535409E+03  0.25511096109E+03  0.17131397194E+03 0.  0.
         24    2    5    5    0    0 -0.24985784381E+01  0.25266668612E+02  0.49179132582E+02  0.97839452693E+02  0.80680381660E+02 0.  0.
          5    1    5    5  501    0 -0.74680343098E+01 -0.91560498838E+02  0.12756622151E+03  0.15727150840E+03  0.47000000000E+01 0. -1.
        -11    1    6    6    0    0  0.59802343338E-01 -0.10619661670E+02 -0.18420273061E+02  0.21262343472E+02  0.00000000000E+00 0.  1.
         12    1    6    6    0    0 -0.25583807815E+01  0.35886330282E+02  0.67599405643E+02  0.76577109221E+02  0.00000000000E+00 0. -1.
         -5    1    3    3    0  503  0.97066847596E+01 -0.44133123525E+02 -0.21145616802E+02  0.50111669609E+02  0.47000000000E+01 0.  1.
         11    1    4    4    0    0  0.12977637694E+01 -0.57442832498E+01 -0.37931389997E+02  0.38385821965E+02  0.00000000000E+00 0. -1.
        -12    1    4    4    0    0 -0.10378357810E+01  0.11617123700E+03 -0.70982434219E+02  0.13614455324E+03  0.00000000000E+00 0.  1.
</event>
<event>
12    1  0.1050869E+000  0.2215124E+03  0.7818608E-02  0.1133835E+00
         21   -1    0    0  503  502  0.00000000000E+00  0.00000000000E+00  0.17679674840E+04  0.17679674840E+04  0.00000000000E+00 0. -1.
         21   -1    0    0  501  503 -0.00000000000E+00 -0.00000000000E+00 -0.42033215905E+02  0.42033215905E+02  0.00000000000E+00 0.  1.
          6    2    1    2  501    0  0.11981605174E+03 -0.54419474990E+02  0.14107333185E+04  0.14280182880E+04  0.17818633382E+03 0.  0.
         24    2    3    3    0    0 -0.64296318086E+01  0.54598415027E+01  0.59237996047E+03  0.59780878813E+03  0.79938598700E+02 0.  0.
         -6    2    1    2    0  502 -0.11981605174E+03  0.54419474990E+02  0.31520094962E+03  0.38198241188E+03  0.17100163400E+03 0.  0.
        -24    2    5    5    0    0 -0.10551327297E+03 -0.11309664423E+02  0.13821517515E+03  0.19258615106E+03  0.82006290340E+02 0.  0.
          5    1    3    3  501    0  0.12624568355E+03 -0.59879316493E+02  0.81835335803E+03  0.83020949992E+03  0.47000000000E+01 0. -1.
        -11    1    4    4    0    0 -0.21457997953E+02 -0.10651823772E+02  0.55164904401E+02  0.60142112562E+02  0.00000000000E+00 0.  1.
         12    1    4    4    0    0  0.15028366145E+02  0.16111665275E+02  0.53721505607E+03  0.53766667557E+03  0.00000000000E+00 0. -1.
         -5    1    5    5    0  502 -0.14302778774E+02  0.65729139413E+02  0.17698577447E+03  0.18939626082E+03  0.47000000000E+01 0.  1.
         11    1    6    6    0    0 -0.65484631995E+02 -0.84423504940E+01  0.13740638881E+03  0.15244679726E+03  0.00000000000E+00 0. -1.
        -12    1    6    6    0    0 -0.40028640975E+02 -0.28673139294E+01  0.80878633336E+00  0.40139353791E+02  0.00000000000E+00 0.  1.
</event>
<event>
12    1  0.1050869E+000  0.2941361E+03  0.7818608E-02  0.1088210E+00
         21   -1    0    0  501  502  0.00000000000E+00  0.00000000000E+00  0.43586618083E+03  0.43586618083E+03  0.00000000000E+00 0.  1.
         21   -1    0    0  502  503 -0.00000000000E+00 -0.00000000000E+00 -0.24073578484E+03  0.24073578484E+03  0.00000000000E+00 0.  1.
         -6    2    1    2    0  503  0.36654793425E+02 -0.23616071403E+03 -0.44154957225E+02  0.29743186647E+03  0.17146602640E+03 0.  0.
        -24    2    3    3    0    0  0.93668374588E+02 -0.16484267555E+03 -0.26604994316E+02  0.20433566757E+03  0.71402851775E+02 0.  0.
          6    2    1    2  501    0 -0.36654793425E+02  0.23616071403E+03  0.23928535321E+03  0.37917009920E+03  0.17145561272E+03 0.  0.
         24    2    5    5    0    0  0.35455563550E+02  0.92351936341E+02  0.14428150816E+03  0.19227791451E+03  0.79797654590E+02 0.  0.
          5    1    5    5  501    0 -0.72110356974E+02  0.14380877769E+03  0.95003845047E+02  0.18689218469E+03  0.47000000000E+01 0. -1.
        -13    1    6    6    0    0  0.22559559263E+02  0.65718404842E+02  0.14696762507E+03  0.16256483405E+03  0.00000000000E+00 0.  1.
         14    1    6    6    0    0  0.12896004287E+02  0.26633531498E+02 -0.26861169084E+01  0.29713080464E+02  0.00000000000E+00 0. -1.
         -5    1    3    3    0  503 -0.57013581163E+02 -0.71318038485E+02 -0.17549962910E+02  0.93096198894E+02  0.47000000000E+01 0.  1.
         11    1    4    4    0    0  0.25779764680E+02 -0.11258448217E+03 -0.27213344226E+02  0.11866097925E+03  0.00000000000E+00 0. -1.
        -12    1    4    4    0    0  0.67888609908E+02 -0.52258193378E+02  0.60834991049E+00  0.85674688327E+02  0.00000000000E+00 0.  1.
</event>
<event>
12    1  0.1050869E+000  0.1751507E+03  0.7818608E-02  0.1174171E+00
         21   -1    0    0  503  502  0.00000000000E+00  0.00000000000E+00  0.73593344745E+02  0.73593344745E+02  0.00000000000E+00 0. -1.
         21   -1    0    0  501  503 -0.00000000000E+00 -0.00000000000E+00 -0.48166906882E+03  0.48166906882E+03  0.00000000000E+00 0. -1.
          6    2    1    2  501    0  0.28871755745E+02  0.13950257420E+02 -0.31988296187E+03  0.36469557378E+03  0.17219048836E+03 0.  0.
         24    2    3    3    0    0  0.31870484261E+02 -0.57086491169E+02 -0.16882150198E+03  0.19767202249E+03  0.79365822014E+02 0.  0.
         -6    2    1    2    0  502 -0.28871755745E+02 -0.13950257420E+02 -0.88192762210E+02  0.19056683978E+03  0.16586008910E+03 0.  0.
        -24    2    5    5    0    0 -0.28628657189E+01 -0.12929369680E+02  0.18660512483E+02  0.80488609036E+02  0.77167589427E+02 0.  0.
          5    1    3    3  501    0 -0.29987285154E+01  0.71036748589E+02 -0.15106145988E+03  0.16702355129E+03  0.47000000000E+01 0. -1.
        -11    1    4    4    0    0  0.28739096069E+00  0.37169467377E+00  0.85536534036E+01  0.85665475568E+01  0.00000000000E+00 0.  1.
         12    1    4    4    0    0  0.31583093300E+02 -0.57458185843E+02 -0.17737515539E+03  0.18910547494E+03  0.00000000000E+00 0. -1.
         -5    1    5    5    0  502 -0.26008890026E+02 -0.10208877404E+01 -0.10685327469E+03  0.11007823075E+03  0.47000000000E+01 0.  1.
         11    1    6    6    0    0  0.31682037823E+02  0.76266524435E+01 -0.62732547882E+01  0.33185404529E+02  0.00000000000E+00 0. -1.
        -12    1    6    6    0    0 -0.34544903542E+02 -0.20556022123E+02  0.24933767271E+02  0.47303204507E+02  0.00000000000E+00 0.  1.
</event>
<event>
12    1  0.1050869E+000  0.2102354E+03  0.7818608E-02  0.1141421E+00
         21   -1    0    0  503  502  0.00000000000E+00  0.00000000000E+00  0.46465398498E+02  0.46465398498E+02  0.00000000000E+00 0. -1.
         21   -1    0    0  501  503 -0.00000000000E+00 -0.00000000000E+00 -0.95417239943E+03  0.95417239943E+03  0.00000000000E+00 0. -1.
          6    2    1    2  501    0  0.92953318676E+02  0.71749490510E+02 -0.42162239393E+03  0.47103682961E+03  0.17413196990E+03 0.  0.
         24    2    3    3    0    0  0.64995359992E+02  0.10162138947E+03 -0.39851546529E+03  0.42381397547E+03  0.79072157652E+02 0.  0.
         -6    2    1    2    0  502 -0.92953318676E+02 -0.71749490510E+02 -0.48608460701E+03  0.52960096833E+03  0.17438644340E+03 0.  0.
        -24    2    5    5    0    0 -0.59028201410E+02 -0.40626115999E+02 -0.46712283356E+03  0.47958880106E+03  0.81650882456E+02 0.  0.
          5    1    3    3  501    0  0.27957958684E+02 -0.29871898958E+02 -0.23106928642E+02  0.47222854132E+02  0.47000000000E+01 0. -1.
        -13    1    4    4    0    0  0.63323481646E+02  0.34880456058E+02 -0.26285708374E+03  0.27261760034E+03  0.00000000000E+00 0.  1.
         14    1    4    4    0    0  0.16718783458E+01  0.66740933410E+02 -0.13565838155E+03  0.15119637513E+03  0.00000000000E+00 0. -1.
         -5    1    5    5    0  502 -0.33925117266E+02 -0.31123374511E+02 -0.18961773449E+02  0.50012167268E+02  0.47000000000E+01 0.  1.
         11    1    6    6    0    0 -0.68562470784E+02 -0.56833538272E+02 -0.36169222299E+03  0.37249446660E+03  0.00000000000E+00 0. -1.
        -12    1    6    6    0    0  0.95342693737E+01  0.16207422274E+02 -0.10543061056E+03  0.10709433446E+03  0.00000000000E+00 0.  1.
</event>
<event>
12    1  0.1050869E+000  0.1945275E+03  0.7818608E-02  0.1155455E+00
         21   -1    0    0  503  502  0.00000000000E+00  0.00000000000E+00  0.68840669521E+02  0.68840669521E+02  0.00000000000E+00 0.  1.
         21   -1    0    0  501  503 -0.00000000000E+00 -0.00000000000E+00 -0.54934770859E+03  0.54934770859E+03  0.00000000000E+00 0.  1.
          6    2    1    2  501    0  0.31262139188E+02 -0.67655276018E+02 -0.19636924108E+03  0.27640877091E+03  0.17968408964E+03 0.  0.
         24    2    3    3    0    0 -0.36357939279E+02 -0.59930903413E+01 -0.45312951125E+02  0.99731684418E+02  0.80841378370E+02 0.  0.
         -6    2    1    2    0  502 -0.31262139188E+02  0.67655276018E+02 -0.28413779799E+03  0.34177960721E+03  0.17471248936E+03 0.  0.
        -24    2    5    5    0    0  0.24142262393E+02 -0.29353157914E+01 -0.20775767441E+03  0.22384448672E+03  0.79697164610E+02 0.  0.
          5    1    3    3  501    0  0.67620078467E+02 -0.61662185676E+02 -0.15105628996E+03  0.17667708649E+03  0.47000000000E+01 0. -1.
        -11    1    4    4    0    0 -0.60632286350E+02 -0.15474400026E+02 -0.28843350334E+02  0.68903338545E+02  0.00000000000E+00 0.  1.
         12    1    4    4    0    0  0.24274347071E+02  0.94813096850E+01 -0.16469600791E+02  0.30828345873E+02  0.00000000000E+00 0. -1.
         -5    1    5    5    0  502 -0.55404401581E+02  0.70590591809E+02 -0.76380123584E+02  0.11793512049E+03  0.47000000000E+01 0.  1.
         13    1    6    6    0    0 -0.14676381690E+02  0.13284775047E+02 -0.11015591136E+02  0.22654462599E+02  0.00000000000E+00 0. -1.
        -14    1    6    6    0    0  0.38818644083E+02 -0.16220090839E+02 -0.19674208327E+03  0.20119002412E+03  0.00000000000E+00 0.  1.
</event>
<event>
12    1  0.1050869E+000  0.1785077E+03  0.7818608E-02  0.1169747E+00
         21   -1    0    0  501  502  0.00000000000E+00  0.00000000000E+00  0.29444519201E+02  0.29444519201E+02  0.00000000000E+00 0.  1.
         21   -1    0    0  502  503 -0.00000000000E+00 -0.00000000000E+00 -0.10709216226E+04  0.10709216226E+04  0.00000000000E+00 0.  1.
         -6    2    1    2    0  503  0.19687918209E+02  0.36031473912E+02 -0.53284515261E+03  0.56131933020E+03  0.17166698158E+03 0.  0.
        -24    2    3    3    0    0  0.35097914859E+01 -0.46116129240E+02 -0.26846034655E+03  0.28395427083E+03  0.80125240963E+02 0.  0.
          6    2    1    2  501    0 -0.19687918209E+02 -0.36031473912E+02 -0.50863195083E+03  0.53904681163E+03  0.17372139331E+03 0.  0.
         24    2    5    5    0    0  0.39521394704E+02  0.24668787428E+02 -0.28987218450E+03  0.30438068748E+03  0.80319548373E+02 0.  0.
          5    1    5    5  501    0 -0.59209312913E+02 -0.60700261339E+02 -0.21875976633E+03  0.23466612416E+03  0.47000000000E+01 0. -1.
        -13    1    6    6    0    0  0.17208054050E+02  0.48505953141E+02 -0.23464744282E+03  0.24022565858E+03  0.00000000000E+00 0.  1.
         14    1    6    6    0    0  0.22313340654E+02 -0.23837165713E+02 -0.55224741673E+02  0.64155028900E+02  0.00000000000E+00 0. -1.
         -5    1    3    3    0  503  0.16178126723E+02  0.82147603151E+02 -0.26438480606E+03  0.27736505937E+03  0.47000000000E+01 0.  1.
         11    1    4    4    0    0 -0.37882190150E+02 -0.16377349906E+02 -0.10928713819E+03  0.11682018872E+03  0.00000000000E+00 0. -1.
        -12    1    4    4    0    0  0.41391981636E+02 -0.29738779334E+02 -0.15917320837E+03  0.16713408211E+03  0.00000000000E+00 0.  1.
</event>
<event>
12    1  0.1050869E+000  0.2167921E+03  0.7818608E-02  0.1136350E+00
         21   -1    0    0  503  502  0.00000000000E+00  0.00000000000E+00  0.19582352811E+03  0.19582352811E+03  0.00000000000E+00 0.  1.
         21   -1    0    0  501  503 -0.00000000000E+00 -0.00000000000E+00 -0.25603475395E+03  0.25603475395E+03  0.00000000000E+00 0.  1.
          6    2    1    2  501    0  0.13192864590E+03 -0.28936409893E+01 -0.87153443418E+02  0.23339840411E+03  0.17165532783E+03 0.  0.
         24    2    3    3    0    0  0.11063910596E+03  0.44058228142E+02 -0.75211302400E+01  0.13841883879E+03  0.70150326426E+02 0.  0.
         -6    2    1    2    0  502 -0.13192864590E+03  0.28936409893E+01  0.26942217579E+02  0.21845987795E+03  0.17200376281E+03 0.  0.
        -24    2    5    5    0    0 -0.41233279525E+02 -0.52633982609E+02 -0.12535630027E+02  0.10492769346E+03  0.79888418240E+02 0.  0.
          5    1    3    3  501    0  0.21289539939E+02 -0.46951869132E+02 -0.79632313178E+02  0.94979565317E+02  0.47000000000E+01 0. -1.
        -11    1    4    4    0    0  0.39271896472E+02 -0.17233698701E+02  0.62570295627E+01  0.43340888804E+02  0.00000000000E+00 0.  1.
         12    1    4    4    0    0  0.71367209486E+02  0.61291926843E+02 -0.13778159803E+02  0.95077949986E+02  0.00000000000E+00 0. -1.
         -5    1    5    5    0  502 -0.90695366372E+02  0.55527623599E+02  0.39477847606E+02  0.11353218449E+03  0.47000000000E+01 0.  1.
         13    1    6    6    0    0  0.20546871337E+02  0.14598723185E+01 -0.96874649413E+01  0.22762955123E+02  0.00000000000E+00 0. -1.
        -14    1    6    6    0    0 -0.61780150863E+02 -0.54093854928E+02 -0.28481650855E+01  0.82164738337E+02  0.00000000000E+00 0.  1.
</event>
<event>
12    1  0.1050869E+000  0.1935362E+03  0.7818608E-02  0.1155871E+00
         21   -1    0    0  503  502  0.00000000000E+00  0.00000000000E+00  0.20430916142E+02  0.20430916142E+02  0.00000000000E+00 0.  1.
         21   -1    0    0  501  503 -0.00000000000E+00 -0.00000000000E+00 -0.19381136657E+04  0.19381136657E+04  0.00000000000E+00 0.  1.
          6    2    1    2  501    0  0.82110258135E+02 -0.11816040562E+02 -0.70061692908E+03  0.72618688725E+03  0.17205115694E+03 0.  0.
         24    2    3    3    0    0  0.58275312264E+02  0.31085541824E+02 -0.21908565395E+03  0.24213822302E+03  0.79183788445E+02 0.  0.
         -6    2    1    2    0  502 -0.82110258135E+02  0.11816040562E+02 -0.12170658205E+04  0.12323576946E+04  0.17485583412E+03 0.  0.
        -24    2    5    5    0    0 -0.47896763727E+02  0.77956115415E+01 -0.11705437556E+04  0.11742791308E+04  0.80024507281E+02 0.  0.
          5    1    3    3  501    0  0.23834945871E+02 -0.42901582386E+02 -0.48153127513E+03  0.48404866423E+03  0.47000000000E+01 0. -1.
        -13    1    4    4    0    0 -0.90882666731E+00  0.37636202681E+02 -0.48102493547E+02  0.61083218674E+02  0.00000000000E+00 0.  1.
         14    1    4    4    0    0  0.59184138931E+02 -0.65506608569E+01 -0.17098316040E+03  0.18105500435E+03  0.00000000000E+00 0. -1.
         -5    1    5    5    0  502 -0.34213494407E+02  0.40204290202E+01 -0.46522064882E+02  0.58078563773E+02  0.47000000000E+01 0.  1.
         13    1    6    6    0    0 -0.56927072286E+02  0.22343321905E+02 -0.53160846211E+03  0.53511444811E+03  0.00000000000E+00 0. -1.
        -14    1    6    6    0    0  0.90303085590E+01 -0.14547710364E+02 -0.63893529350E+03  0.63916468272E+03  0.00000000000E+00 0.  1.
</event>
<event>
12    1  0.1050869E+000  0.2172885E+03  0.7818608E-02  0.1136021E+00
         21   -1    0    0  501  502  0.00000000000E+00  0.00000000000E+00  0.38970564625E+03  0.38970564625E+03  0.00000000000E+00 0.  1.
         21   -1    0    0  502  503 -0.00000000000E+00 -0.00000000000E+00 -0.14593141842E+03  0.14593141842E+03  0.00000000000E+00 0. -1.
         -6    2    1    2    0  503  0.80647470012E+02  0.10494412573E+03  0.10755004568E+02  0.21702718029E+03  0.17166200196E+03 0.  0.
        -24    2    3    3    0    0  0.12178050122E+03  0.86876975779E+02  0.23808065839E+01  0.17108629049E+03  0.82986451630E+02 0.  0.
          6    2    1    2  501    0 -0.80647470012E+02 -0.10494412573E+03  0.23301922326E+03  0.31860988437E+03  0.17232822190E+03 0.  0.
         24    2    5    5    0    0 -0.12385224121E+03 -0.85554644945E+02  0.18204231164E+03  0.24887223501E+03  0.78351842403E+02 0.  0.
          5    1    5    5  501    0  0.43204771197E+02 -0.19389480790E+02  0.50976911623E+02  0.69737649359E+02  0.47000000000E+01 0. -1.
        -13    1    6    6    0    0 -0.65236632413E+02 -0.87760616767E+02  0.13466436024E+03  0.17347113300E+03  0.00000000000E+00 0.  1.
         14    1    6    6    0    0 -0.58615608796E+02  0.22059718224E+01  0.47377951399E+02  0.75401102014E+02  0.00000000000E+00 0. -1.
         -5    1    3    3    0  503 -0.41133031213E+02  0.18067149956E+02  0.83741979841E+01  0.45940889806E+02  0.47000000000E+01 0.  1.
         11    1    4    4    0    0  0.25891166366E+01 -0.13892387240E+02  0.49827999034E+01  0.14984333254E+02  0.00000000000E+00 0. -1.
        -12    1    4    4    0    0  0.11919138459E+03  0.10076936302E+03 -0.26019933194E+01  0.15610195723E+03  0.00000000000E+00 0.  1.
</event>
<event>
12    1  0.1050869E+000  0.1793799E+03  0.7818608E-02  0.1168500E+00
         21   -1    0    0  501  502  0.00000000000E+00  0.00000000000E+00  0.30730639046E+03  0.30730639046E+03  0.00000000000E+00 0. -1.
         21   -1    0    0  502  503 -0.00000000000E+00 -0.00000000000E+00 -0.16209533348E+03  0.16209533348E+03  0.00000000000E+00 0. -1.
         -6    2    1    2    0  503  0.49045301391E+02  0.14473318665E+02 -0.67372591634E+02  0.19124896136E+03  0.17152894967E+03 0.  0.
        -24    2    3    3    0    0 -0.92869266478E+00  0.78354889938E-01  0.28209509584E+02  0.82333199702E+02  0.77344105998E+02 0.  0.
          6    2    1    2  501    0 -0.49045301391E+02 -0.14473318665E+02  0.21258364861E+03  0.27815276259E+03  0.17193671258E+03 0.  0.
         24    2    5    5    0    0 -0.43025802907E+02  0.45162592313E+02  0.73561395485E+02  0.12668674955E+03  0.82142401629E+02 0.  0.
          5    1    5    5  501    0 -0.60194984838E+01 -0.59635910978E+02  0.13902225313E+03  0.15146601304E+03  0.47000000000E+01 0. -1.
        -13    1    6    6    0    0 -0.47815139222E+02 -0.68769099850E+01  0.21350241500E+02  0.52814886555E+02  0.00000000000E+00 0.  1.
         14    1    6    6    0    0  0.47893363145E+01  0.52039502298E+02  0.52211153985E+02  0.73871862994E+02  0.00000000000E+00 0. -1.
         -5    1    3    3    0  503  0.49973994056E+02  0.14394963775E+02 -0.95582101218E+02  0.10891576166E+03  0.47000000000E+01 0.  1.
         13    1    4    4    0    0 -0.28566095963E+02 -0.26486581142E+02  0.12603751856E+02  0.40944051828E+02  0.00000000000E+00 0. -1.
        -14    1    4    4    0    0  0.27637403299E+02  0.26564936032E+02  0.15605757728E+02  0.41389147874E+02  0.00000000000E+00 0.  1.
</event>
<event>
12    1  0.1050869E+000  0.2226785E+03  0.7818608E-02  0.1132971E+00
         21   -1    0    0  503  502  0.00000000000E+00  0.00000000000E+00  0.80639907109E+02  0.80639907109E+02  0.00000000000E+00 0. -1.
         21   -1    0    0  501  503 -0.00000000000E+00 -0.00000000000E+00 -0.69146727835E+03  0.69146727835E+03  0.00000000000E+00 0. -1.
          6    2    1    2  501    0 -0.99803241475E+02 -0.10068450228E+03 -0.44301188525E+03  0.49327433610E+03  0.16420104803E+03 0.  0.
         24    2    3    3    0    0 -0.11463712677E+03 -0.12504667793E+03 -0.39379234045E+03  0.43619357449E+03  0.80087979942E+02 0.  0.
         -6    2    1    2    0  502  0.99803241475E+02  0.10068450228E+03 -0.16781548599E+03  0.27883284936E+03  0.17171972669E+03 0.  0.
        -24    2    5    5    0    0  0.20496296119E+01  0.81821715065E+02 -0.46485771037E+02  0.12181513347E+03  0.77324031159E+02 0.  0.
          5    1    3    3  501    0  0.14833885296E+02  0.24362175658E+02 -0.49219544800E+02  0.57080761611E+02  0.47000000000E+01 0. -1.
        -11    1    4    4    0    0 -0.51900329062E+02 -0.10735881352E+02 -0.15929844047E+03  0.16788358003E+03  0.00000000000E+00 0.  1.
         12    1    4    4    0    0 -0.62736797709E+02 -0.11431079658E+03 -0.23449389998E+03  0.26830999446E+03  0.00000000000E+00 0. -1.
         -5    1    5    5    0  502  0.97753611863E+02  0.18862787212E+02 -0.12132971495E+03  0.15701771589E+03  0.47000000000E+01 0.  1.
         13    1    6    6    0    0  0.17557833015E+02  0.92251461858E+02 -0.38803271024E+02  0.10160858014E+03  0.00000000000E+00 0. -1.
        -14    1    6    6    0    0 -0.15508203403E+02 -0.10429746794E+02 -0.76825000132E+01  0.20206553329E+02  0.00000000000E+00 0.  1.
</event>
<event>
12    1  0.1050869E+000  0.1984243E+03  0.7818608E-02  0.1151278E+00
         21   -1    0    0  501  502  0.00000000000E+00  0.00000000000E+00  0.22506905712E+03  0.22506905712E+03  0.00000000000E+00 0.  1.
         21   -1    0    0  502  503 -0.00000000000E+00 -0.00000000000E+00 -0.23208076426E+03  0.23208076426E+03  0.00000000000E+00 0.  1.
         -6    2    1    2    0  503 -0.94039168077E+02 -0.30278144757E+02  0.11075186259E+03  0.22641087564E+03  0.17098473136E+03 0.  0.
        -24    2    3    3    0    0 -0.12834512774E+03 -0.14740822922E+02  0.11201143310E+03  0.18843741443E+03  0.79198070280E+02 0.  0.
          6    2    1    2  501    0  0.94039168077E+02  0.30278144757E+02 -0.11776356972E+03  0.23073894573E+03  0.17208158397E+03 0.  0.
         24    2    5    5    0    0  0.16169058273E+02  0.27587491429E+02  0.12456431845E+02  0.78915586444E+02  0.71063344705E+02 0.  0.
          5    1    5    5  501    0  0.77870109804E+02  0.26906533279E+01 -0.13022000157E+03  0.15182335929E+03  0.47000000000E+01 0. -1.
        -11    1    6    6    0    0 -0.15702233761E+02  0.38891140998E+02  0.16052682824E+02  0.44908458213E+02  0.00000000000E+00 0.  1.
         12    1    6    6    0    0  0.31871292033E+02 -0.11303649569E+02 -0.35962509791E+01  0.34007128232E+02  0.00000000000E+00 0. -1.
         -5    1    3    3    0  503  0.34305959665E+02 -0.15537321835E+02 -0.12595705164E+01  0.37973461210E+02  0.47000000000E+01 0.  1.
         11    1    4    4    0    0 -0.71055531964E+02 -0.32476190410E+01  0.10871060940E+03  0.12991317196E+03  0.00000000000E+00 0. -1.
        -12    1    4    4    0    0 -0.57289595778E+02 -0.11493203881E+02  0.33008237027E+01  0.58524242473E+02  0.00000000000E+00 0.  1.
</event>
<event>
12    1  0.1050869E+000  0.1796089E+03  0.7818608E-02  0.1168564E+00
         21   -1    0    0  501  502  0.00000000000E+00  0.00000000000E+00  0.82694104671E+02  0.82694104671E+02  0.00000000000E+00 0. -1.
         21   -1    0    0  502  503 -0.00000000000E+00 -0.00000000000E+00 -0.48800998902E+03  0.48800998902E+03  0.00000000000E+00 0. -1.
         -6    2    1    2    0  503  0.26474554514E+02 -0.36302337261E+02 -0.33196054884E+03  0.37669281078E+03  0.17228147311E+03 0.  0.
        -24    2    3    3    0    0  0.50434005319E+00 -0.83231784917E+02 -0.18923788439E+03  0.22415208164E+03  0.86633679581E+02 0.  0.
          6    2    1    2  501    0 -0.26474554514E+02  0.36302337261E+02 -0.73355335508E+02  0.19401128291E+03  0.17389827752E+03 0.  0.
         24    2    5    5    0    0 -0.10910881753E+02 -0.18120411316E+02 -0.10153988076E+03  0.13060369612E+03  0.79369902401E+02 0.  0.
          5    1    5    5  501    0 -0.15563672761E+02  0.54422748577E+02  0.28184545253E+02  0.63407586798E+02  0.47000000000E+01 0. -1.
        -11    1    6    6    0    0 -0.44652364441E+02 -0.66736863464E+01 -0.44795279096E+02  0.63600226171E+02  0.00000000000E+00 0.  1.
         12    1    6    6    0    0  0.33741482688E+02 -0.11446724970E+02 -0.56744601665E+02  0.67003469945E+02  0.00000000000E+00 0. -1.
         -5    1    3    3    0  503  0.25970214461E+02  0.46929447656E+02 -0.14272266445E+03  0.15254072913E+03  0.47000000000E+01 0.  1.
         11    1    4    4    0    0  0.38857529894E+02 -0.35964815390E+02 -0.12450539122E+03  0.13529585366E+03  0.00000000000E+00 0. -1.
        -12    1    4    4    0    0 -0.38353189841E+02 -0.47266969526E+02 -0.64732493172E+02  0.88856227984E+02  0.00000000000E+00 0.  1.
</event>
<event>
12    1  0.1091858E+000  0.3036440E+03  0.7818608E-02  0.1083983E+00
         21   -1    0    0  501  502  0.00000000000E+00  0.00000000000E+00  0.47635823851E+03  0.47635823851E+03  0.00000000000E+00 0. -1.
         21   -1    0    0  502  503 -0.00000000000E+00 -0.00000000000E+00 -0.33341322547E+03  0.33341322547E+03  0.00000000000E+00 0. -1.
         -6    2    1    2    0  503 -0.12311211753E+03 -0.21126289293E+03  0.33603035684E+03  0.44993588172E+03  0.17244504496E+03 0.  0.
        -24    2    3    3    0    0 -0.36254884717E+02 -0.15088273099E+03  0.13229535864E+03  0.22032755796E+03  0.83439533212E+02 0.  0.
          6    2    1    2  501    0  0.12311211753E+03  0.21126289293E+03 -0.19308534380E+03  0.35983558226E+03  0.18003081087E+03 0.  0.
         24    2    5    5    0    0  0.12917999050E+03  0.23336846378E+03 -0.18986897922E+03  0.33621545639E+03  0.76434900475E+02 0.  0.
          5    1    5    5  501    0 -0.60678729705E+01 -0.22105570855E+02 -0.32163645760E+01  0.23620125874E+02  0.47000000000E+01 0. -1.
        -13    1    6    6    0    0  0.16089486387E+02  0.10559651983E+03 -0.75298150548E+02  0.13068782670E+03  0.00000000000E+00 0.  1.
         14    1    6    6    0    0  0.11309050411E+03  0.12777194396E+03 -0.11457082867E+03  0.20552762969E+03  0.00000000000E+00 0. -1.
         -5    1    3    3    0  503 -0.86857232808E+02 -0.60380161937E+02  0.20373499820E+03  0.22960832375E+03  0.47000000000E+01 0.  1.
         13    1    4    4    0    0 -0.42281689312E+02 -0.38399922901E+02  0.18079917377E+02  0.59909754984E+02  0.00000000000E+00 0. -1.
        -14    1    4    4    0    0  0.60268045946E+01 -0.11248280809E+03  0.11421544126E+03  0.16041780298E+03  0.00000000000E+00 0.  1.
</event>
<event>
12    1  0.1050869E+000  0.2300783E+03  0.7818608E-02  0.1126719E+00
         21   -1    0    0  503  502  0.00000000000E+00  0.00000000000E+00  0.60759714623E+02  0.60759714623E+02  0.00000000000E+00 0. -1.
         21   -1    0    0  501  503 -0.00000000000E+00 -0.00000000000E+00 -0.90330254674E+03  0.90330254674E+03  0.00000000000E+00 0. -1.
          6    2    1    2  501    0  0.15041394390E+03 -0.87650607215E+01 -0.32713575444E+03  0.39994228066E+03  0.17388169893E+03 0.  0.
         24    2    3    3    0    0  0.71123509603E+02 -0.66015839054E+02 -0.12974736999E+03  0.17960415662E+03  0.77502441461E+02 0.  0.
         -6    2    1    2    0  502 -0.15041394390E+03  0.87650607215E+01 -0.51540707768E+03  0.56411998070E+03  0.17287485674E+03 0.  0.
        -24    2    5    5    0    0 -0.73948504239E+01  0.20258594697E+02 -0.15251143981E+03  0.17386122499E+03  0.80640509735E+02 0.  0.
          5    1    3    3  501    0  0.79290434299E+02  0.57250778332E+02 -0.19738838445E+03  0.22033812404E+03  0.47000000000E+01 0. -1.
        -11    1    4    4    0    0  0.68375627994E+02 -0.57875689613E+02 -0.56621993557E+02  0.10597580906E+03  0.00000000000E+00 0.  1.
         12    1    4    4    0    0  0.27478816083E+01 -0.81401494410E+01 -0.73125376428E+02  0.73628347558E+02  0.00000000000E+00 0. -1.
         -5    1    5    5    0  502 -0.14301909348E+03 -0.11493533976E+02 -0.36289563787E+03  0.39025875571E+03  0.47000000000E+01 0.  1.
         13    1    6    6    0    0 -0.21979132584E+02  0.27912075722E+02 -0.15330885385E+03  0.15737144248E+03  0.00000000000E+00 0. -1.
        -14    1    6    6    0    0  0.14584282161E+02 -0.76534810251E+01  0.79741404224E+00  0.16489782506E+02  0.00000000000E+00 0.  1.
</event>
<event>
12    1  0.1050869E+000  0.2827466E+03  0.7818608E-02  0.1094260E+00
         21   -1    0    0  501  502  0.00000000000E+00  0.00000000000E+00  0.37123407289E+03  0.37123407289E+03  0.00000000000E+00 0.  1.
         21   -1    0    0  502  503 -0.00000000000E+00 -0.00000000000E+00 -0.26219887090E+03  0.26219887090E+03  0.00000000000E+00 0.  1.
         -6    2    1    2    0  503 -0.19088996187E+03 -0.11748442902E+03  0.18892594563E+03  0.34005687869E+03  0.17234877199E+03 0.  0.
        -24    2    3    3    0    0 -0.93980238198E+02 -0.80433912418E+02  0.17778325228E+03  0.23560361192E+03  0.92737682310E+02 0.  0.
          6    2    1    2  501    0  0.19088996187E+03  0.11748442902E+03 -0.79890743645E+02  0.29337606510E+03  0.17159666678E+03 0.  0.
         24    2    5    5    0    0  0.15686303723E+03  0.15015228124E+03 -0.74577372363E+02  0.24567551916E+03  0.87424002627E+02 0.  0.
          5    1    5    5  501    0  0.34026924640E+02 -0.32667852215E+02 -0.53133712816E+01  0.47700545942E+02  0.47000000000E+01 0. -1.
        -11    1    6    6    0    0  0.18691642918E+00  0.11969553331E+02  0.14299731728E+02  0.18649060893E+02  0.00000000000E+00 0.  1.
         12    1    6    6    0    0  0.15667612080E+03  0.13818272791E+03 -0.88877104091E+02  0.22702645827E+03  0.00000000000E+00 0. -1.
         -5    1    3    3    0  503 -0.96909723674E+02 -0.37050516605E+02  0.11142693346E+02  0.10445326677E+03  0.47000000000E+01 0.  1.
         11    1    4    4    0    0 -0.10851607528E+03 -0.84657313467E+02  0.16952472319E+03  0.21836032398E+03  0.00000000000E+00 0. -1.
        -12    1    4    4    0    0  0.14535837083E+02  0.42234010490E+01  0.82585290898E+01  0.17243287936E+02  0.00000000000E+00 0.  1.
</event>
<event>
12    1  0.1050869E+000  0.2388735E+03  0.7818608E-02  0.1120774E+00
         21   -1    0    0  503  502  0.00000000000E+00  0.00000000000E+00  0.31138760688E+02  0.31138760688E+02  0.00000000000E+00 0. -1.
         21   -1    0    0  501  503 -0.00000000000E+00 -0.00000000000E+00 -0.24393348104E+04  0.24393348104E+04  0.00000000000E+00 0. -1.
          6    2    1    2  501    0  0.78990317428E+02  0.14454797785E+03 -0.18229098380E+04  0.18383181342E+04  0.17111311104E+03 0.  0.
         24    2    3    3    0    0 -0.84248328824E+01  0.13940987409E+02 -0.49663596147E+03  0.50275679898E+03  0.76497004920E+02 0.  0.
         -6    2    1    2    0  502 -0.78990317428E+02 -0.14454797785E+03 -0.58528621166E+03  0.63215543687E+03  0.17299410007E+03 0.  0.
        -24    2    5    5    0    0  0.67607640309E+01 -0.60745401807E+02 -0.14937583501E+03  0.18003148684E+03  0.79765182866E+02 0.  0.
          5    1    3    3  501    0  0.87415150310E+02  0.13060699044E+03 -0.13262738766E+04  0.13355613352E+04  0.47000000000E+01 0. -1.
        -11    1    4    4    0    0  0.12260086902E+02 -0.23720350574E+02 -0.90574287947E+02  0.94428101745E+02  0.00000000000E+00 0.  1.
         12    1    4    4    0    0 -0.20684919784E+02  0.37661337983E+02 -0.40606167352E+03  0.40832869724E+03  0.00000000000E+00 0. -1.
         -5    1    5    5    0  502 -0.85751081459E+02 -0.83802576042E+02 -0.43591037665E+03  0.45212395003E+03  0.47000000000E+01 0.  1.
         11    1    6    6    0    0  0.25842810572E+02  0.96227159561E+01 -0.41717902351E+02  0.50008308282E+02  0.00000000000E+00 0. -1.
        -12    1    6    6    0    0 -0.19082046541E+02 -0.70368117763E+02 -0.10765793266E+03  0.13002317856E+03  0.00000000000E+00 0.  1.
</event>
<event>
12    1  0.1050869E+000  0.2380230E+03  0.7818608E-02  0.1121273E+00
         21   -1    0    0  503  502  0.00000000000E+00  0.00000000000E+00  0.75338928753E+02  0.75338928753E+02  0.00000000000E+00 0.  1.
         21   -1    0    0  501  503 -0.00000000000E+00 -0.00000000000E+00 -0.11695760735E+04  0.11695760735E+04  0.00000000000E+00 0.  1.
          6    2    1    2  501    0 -0.62862245788E+02 -0.15052976997E+03 -0.17320799767E+03  0.29362660300E+03  0.17206015790E+03 0.  0.
         24    2    3    3    0    0 -0.97478418508E+02 -0.68951869795E+02 -0.13062967378E+03  0.19519776131E+03  0.82350785817E+02 0.  0.
         -6    2    1    2    0  502  0.62862245788E+02  0.15052976997E+03 -0.92102914708E+03  0.95128839926E+03  0.17333221051E+03 0.  0.
        -24    2    5    5    0    0 -0.16742120836E+02  0.12086729484E+03 -0.61974699677E+03  0.63822332342E+03  0.91397313825E+02 0.  0.
          5    1    3    3  501    0  0.34616172720E+02 -0.81577900175E+02 -0.42578323884E+02  0.98428841686E+02  0.47000000000E+01 0. -1.
        -13    1    4    4    0    0 -0.50135122292E+02 -0.81465237515E+01 -0.10021168383E+03  0.11234891149E+03  0.00000000000E+00 0.  1.
         14    1    4    4    0    0 -0.47343296215E+02 -0.60805346043E+02 -0.30417989952E+02  0.82848849821E+02  0.00000000000E+00 0. -1.
         -5    1    5    5    0  502  0.79604366623E+02  0.29662475127E+02 -0.30128215031E+03  0.31306507584E+03  0.47000000000E+01 0.  1.
         13    1    6    6    0    0  0.15566670641E+02  0.44664099128E+01 -0.22067160795E+03  0.22126506414E+03  0.00000000000E+00 0. -1.
        -14    1    6    6    0    0 -0.32308791477E+02  0.11640088493E+03 -0.39907538882E+03  0.41695825928E+03  0.00000000000E+00 0.  1.
</event>
<event>
12    1  0.1050869E+000  0.3325821E+03  0.7818608E-02  0.1070073E+00
         21   -1    0    0  501  502  0.00000000000E+00  0.00000000000E+00  0.11896010620E+04  0.11896010620E+04  0.00000000000E+00 0. -1.
         21   -1    0    0  502  503 -0.00000000000E+00 -0.00000000000E+00 -0.93068160131E+02  0.93068160131E+02  0.00000000000E+00 0. -1.
         -6    2    1    2    0  503 -0.34006562955E+02  0.28230697094E+03  0.51298489740E+03  0.61100029942E+03  0.17121386849E+03 0.  0.
        -24    2    3    3    0    0 -0.74121323850E+01  0.25109210774E+03  0.32586832063E+03  0.41938523027E+03  0.81188808978E+02 0.  0.
          6    2    1    2  501    0  0.34006562955E+02 -0.28230697094E+03  0.58354800449E+03  0.67166892274E+03  0.17250274218E+03 0.  0.
         24    2    5    5    0    0  0.48253223926E+02 -0.13120551706E+03  0.19505250713E+03  0.25455328147E+03  0.84903658613E+02 0.  0.
          5    1    5    5  501    0 -0.14246660971E+02 -0.15110145388E+03  0.38849549736E+03  0.41711564126E+03  0.47000000000E+01 0. -1.
        -11    1    6    6    0    0  0.70624047133E+01 -0.78510153961E+02  0.16153176093E+03  0.17973934357E+03  0.00000000000E+00 0.  1.
         12    1    6    6    0    0  0.41190819213E+02 -0.52695363104E+02  0.33520746193E+02  0.74813937909E+02  0.00000000000E+00 0. -1.
         -5    1    3    3    0  503 -0.26594430570E+02  0.31214863202E+02  0.18711657677E+03  0.19161506915E+03  0.47000000000E+01 0.  1.
         13    1    4    4    0    0 -0.25936270944E+02  0.10112845769E+03  0.18695991001E+03  0.21413468438E+03  0.00000000000E+00 0. -1.
        -14    1    4    4    0    0  0.18524138559E+02  0.14996365005E+03  0.13890841062E+03  0.20525054589E+03  0.00000000000E+00 0.  1.
</event>
<event>
12    1  0.1050869E+000  0.1748564E+03  0.7818608E-02  0.1174356E+00
         21   -1    0    0  501  502  0.00000000000E+00  0.00000000000E+00  0.20234062801E+03  0.20234062801E+03  0.00000000000E+00 0.  1.
         21   -1    0    0  502  503 -0.00000000000E+00 -0.00000000000E+00 -0.14851834548E+03  0.14851834548E+03  0.00000000000E+00 0.  1.
         -6    2    1    2    0  503 -0.28991945862E+02  0.53563448599E+01  0.49520859952E+02  0.18173356207E+03  0.17235297693E+03 0.  0.
        -24    2    3    3    0    0 -0.56964873761E+02  0.46666462255E+02  0.67313971845E+02  0.12855748357E+03  0.81074658391E+02 0.  0.
          6    2    1    2  501    0  0.28991945862E+02 -0.53563448599E+01  0.43014225745E+01  0.16912541142E+03  0.16648026668E+03 0.  0.
         24    2    5    5    0    0  0.40951214170E+02  0.10549247824E+02  0.58473218587E+02  0.11122303271E+03  0.84635436672E+02 0.  0.
          5    1    5    5  501    0 -0.11959268308E+02 -0.15905592684E+02 -0.54171796012E+02  0.57902378710E+02  0.47000000000E+01 0. -1.
        -13    1    6    6    0    0  0.47402485961E+02 -0.10451479104E+02  0.70944065652E+02  0.85960976856E+02  0.00000000000E+00 0.  1.
         14    1    6    6    0    0 -0.64512717916E+01  0.21000726928E+02 -0.12470847065E+02  0.25262055850E+02  0.00000000000E+00 0. -1.
         -5    1    3    3    0  503  0.27972927899E+02 -0.41310117395E+02 -0.17793111893E+02  0.53176078506E+02  0.47000000000E+01 0.  1.
         13    1    4    4    0    0  0.11096765960E+02  0.33522776031E+02  0.41735755727E+02  0.54669809162E+02  0.00000000000E+00 0. -1.
        -14    1    4    4    0    0 -0.68061639721E+02  0.13143686224E+02  0.25578216118E+02  0.73887674404E+02  0.00000000000E+00 0.  1.
</event>
<event>
12    1  0.1050869E+000  0.3055235E+03  0.7818608E-02  0.1082538E+00
         21   -1    0    0  501  502  0.00000000000E+00  0.00000000000E+00  0.23193999862E+04  0.23193999862E+04  0.00000000000E+00 0. -1.
         21   -1    0    0  502  503 -0.00000000000E+00 -0.00000000000E+00 -0.41918710417E+02  0.41918710417E+02  0.00000000000E+00 0. -1.
         -6    2    1    2    0  503  0.27001009335E+02 -0.25062422048E+03  0.13769869900E+04  0.14104743088E+04  0.17263560113E+03 0.  0.
        -24    2    3    3    0    0  0.30983749414E+02 -0.41663164729E+02  0.37541867184E+03  0.38732145074E+03  0.79893147452E+02 0.  0.
          6    2    1    2  501    0 -0.27001009335E+02  0.25062422048E+03  0.90049428575E+03  0.95084438778E+03  0.17226008447E+03 0.  0.
         24    2    5    5    0    0  0.46992081115E+02  0.12181821450E+03  0.44043191834E+03  0.46737211710E+03  0.86072574463E+02 0.  0.
          5    1    5    5  501    0 -0.73993090450E+02  0.12880600598E+03  0.46006236741E+03  0.48347227068E+03  0.47000000000E+01 0. -1.
        -11    1    6    6    0    0  0.18100797989E+01  0.10892991740E+03  0.29083403092E+03  0.31056953624E+03  0.00000000000E+00 0.  1.
         12    1    6    6    0    0  0.45182001316E+02  0.12888297097E+02  0.14959788742E+03  0.15680258086E+03  0.00000000000E+00 0. -1.
         -5    1    3    3    0  503 -0.39827400788E+01 -0.20896105575E+03  0.10015683181E+04  0.10231528581E+04  0.47000000000E+01 0.  1.
         13    1    4    4    0    0 -0.12196165970E+02 -0.64174459916E+01  0.24630617266E+03  0.24669142824E+03  0.00000000000E+00 0. -1.
        -14    1    4    4    0    0  0.43179915384E+02 -0.35245718738E+02  0.12911249919E+03  0.14063002250E+03  0.00000000000E+00 0.  1.
</event>
<event>
12    1  0.1050869E+000  0.2182740E+03  0.7818608E-02  0.1135304E+00
         21   -1    0    0  503  502  0.00000000000E+00  0.00000000000E+00  0.35562719567E+03  0.35562719567E+03  0.00000000000E+00 0.  1.
         21   -1    0    0  501  503 -0.00000000000E+00 -0.00000000000E+00 -0.13580687108E+03  0.13580687108E+03  0.00000000000E+00 0.  1.
          6    2    1    2  501    0  0.63917691554E+02  0.11715318407E+03  0.78101489266E+02  0.23118843759E+03  0.17186596876E+03 0.  0.
         24    2    3    3    0    0  0.50001533129E+02  0.11674961296E+02 -0.74707360147E+01  0.94572147625E+02  0.79067194040E+02 0.  0.
         -6    2    1    2    0  502 -0.63917691554E+02 -0.11715318407E+03  0.14171883533E+03  0.26024562915E+03  0.17272295555E+03 0.  0.
        -24    2    5    5    0    0 -0.35074576736E+02 -0.11301559729E+03  0.27314010015E+02  0.14209488243E+03  0.73770924523E+02 0.  0.
          5    1    3    3  501    0  0.13916158425E+02  0.10547822277E+03  0.85572225280E+02  0.13661628997E+03  0.47000000000E+01 0. -1.
        -11    1    4    4    0    0 -0.12354689469E+02 -0.20040245428E+02  0.33580484269E+01  0.23780796411E+02  0.00000000000E+00 0.  1.
         12    1    4    4    0    0  0.62356222598E+02  0.31715206724E+02 -0.10828784442E+02  0.70791351214E+02  0.00000000000E+00 0. -1.
         -5    1    5    5    0  502 -0.28843114818E+02 -0.41375867786E+01  0.11440482531E+03  0.11815074672E+03  0.47000000000E+01 0.  1.
         13    1    6    6    0    0 -0.18609755442E+02 -0.95333802699E+02  0.49742040629E+02  0.10912894914E+03  0.00000000000E+00 0. -1.
        -14    1    6    6    0    0 -0.16464821294E+02 -0.17681794592E+02 -0.22428030615E+02  0.32965933287E+02  0.00000000000E+00 0.  1.
</event>
<event>
12    1  0.1050869E+000  0.1853436E+03  0.7818608E-02  0.1163497E+00
         21   -1    0    0  503  502  0.00000000000E+00  0.00000000000E+00  0.21812695468E+03  0.21812695468E+03  0.00000000000E+00 0. -1.
         21   -1    0    0  501  503 -0.00000000000E+00 -0.00000000000E+00 -0.42883529856E+03  0.42883529856E+03  0.00000000000E+00 0.  1.
          6    2    1    2  501    0  0.31360162532E+02  0.59603991105E+02 -0.36430972335E+03  0.40874667331E+03  0.17267360209E+03 0.  0.
         24    2    3    3    0    0 -0.15168537930E+02 -0.21997701374E+02 -0.22495775815E+03  0.24062523985E+03  0.81120464072E+02 0.  0.
         -6    2    1    2    0  502 -0.31360162532E+02 -0.59603991105E+02  0.15360137947E+03  0.23821557993E+03  0.16916614081E+03 0.  0.
        -24    2    5    5    0    0 -0.74207683781E+02 -0.30786349238E+02  0.14829036409E+03  0.18609395827E+03  0.78653350800E+02 0.  0.
          5    1    3    3  501    0  0.46528700462E+02  0.81601692479E+02 -0.13935196520E+03  0.16812143346E+03  0.47000000000E+01 0. -1.
        -13    1    4    4    0    0  0.13273631137E+02  0.47693019041E+01 -0.18208139910E+03  0.18262686391E+03  0.00000000000E+00 0.  1.
         14    1    4    4    0    0 -0.28442169067E+02 -0.26767003278E+02 -0.42876359048E+02  0.57998375934E+02  0.00000000000E+00 0. -1.
         -5    1    5    5    0  502  0.42847521249E+02 -0.28817641867E+02  0.53110153822E+01  0.52121621658E+02  0.47000000000E+01 0.  1.
         11    1    6    6    0    0 -0.32818935812E+00 -0.13809413814E+01  0.83531715314E+02  0.83543773978E+02  0.00000000000E+00 0. -1.
        -12    1    6    6    0    0 -0.73879494423E+02 -0.29405407857E+02  0.64758648777E+02  0.10255018429E+03  0.00000000000E+00 0.  1.
</event>
<event>
12    1  0.1050869E+000  0.2478661E+03  0.7818608E-02  0.1114741E+00
         21   -1    0    0  501  502  0.00000000000E+00  0.00000000000E+00  0.48184954997E+03  0.48184954997E+03  0.00000000000E+00 0.  1.
         21   -1    0    0  502  503 -0.00000000000E+00 -0.00000000000E+00 -0.12975818404E+03  0.12975818404E+03  0.00000000000E+00 0. -1.
         -6    2    1    2    0  503 -0.47332201558E+02 -0.17268461120E+03  0.13333187438E+03  0.28101229716E+03  0.17067574574E+03 0.  0.
        -24    2    3    3    0    0 -0.30023694743E+02 -0.19840125945E+03  0.11369460037E+03  0.24401712266E+03  0.79708293172E+02 0.  0.
          6    2    1    2  501    0  0.47332201558E+02  0.17268461120E+03  0.21875949155E+03  0.33059543685E+03  0.17139811981E+03 0.  0.
         24    2    5    5    0    0  0.36691392056E+02  0.77167137623E+02  0.20236333390E+03  0.23298530126E+03  0.77654403078E+02 0.  0.
          5    1    5    5  501    0  0.10640809502E+02  0.95517473572E+02  0.16396157657E+02  0.97610135593E+02  0.47000000000E+01 0. -1.
        -11    1    6    6    0    0 -0.69390084418E+01  0.63983270307E+02  0.81725165107E+02  0.10402409014E+03  0.00000000000E+00 0.  1.
         12    1    6    6    0    0  0.43630400498E+02  0.13183867316E+02  0.12063816879E+03  0.12896121112E+03  0.00000000000E+00 0. -1.
         -5    1    3    3    0  503 -0.17308506814E+02  0.25716648258E+02  0.19637274007E+02  0.36995174499E+02  0.47000000000E+01 0.  1.
         13    1    4    4    0    0 -0.18371097839E+02 -0.18737909486E+03  0.12354634474E+03  0.22519352061E+03  0.00000000000E+00 0. -1.
        -14    1    4    4    0    0 -0.11652596904E+02 -0.11022164590E+02 -0.98517443726E+01  0.18823602048E+02  0.00000000000E+00 0.  1.
</event>
<event>
12    1  0.1050869E+000  0.1850892E+03  0.7818608E-02  0.1164168E+00
         21   -1    0    0  503  502  0.00000000000E+00  0.00000000000E+00  0.67106272822E+02  0.67106272822E+02  0.00000000000E+00 0. -1.
         21   -1    0    0  501  503 -0.00000000000E+00 -0.00000000000E+00 -0.50423410493E+03  0.50423410493E+03  0.00000000000E+00 0. -1.
          6    2    1    2  501    0  0.69112354042E+02 -0.13597229685E+02 -0.25667192595E+03  0.31644666676E+03  0.17116253444E+03 0.  0.
         24    2    3    3    0    0 -0.33711783666E+01  0.43259366985E+02 -0.16654923628E+03  0.18748650140E+03  0.74362641346E+02 0.  0.
         -6    2    1    2    0  502 -0.69112354042E+02  0.13597229685E+02 -0.18045590616E+03  0.25489371099E+03  0.16566552960E+03 0.  0.
        -24    2    5    5    0    0  0.22025105011E+01  0.53893305418E+02 -0.81465463647E+02  0.12632162486E+03  0.80069917682E+02 0.  0.
          5    1    3    3  501    0  0.72483532409E+02 -0.56856596670E+02 -0.90122689667E+02  0.12896016535E+03  0.47000000000E+01 0. -1.
        -13    1    4    4    0    0  0.55127516549E+01  0.16342425074E+02 -0.15644720669E+03  0.15739502460E+03  0.00000000000E+00 0.  1.
         14    1    4    4    0    0 -0.88839300215E+01  0.26916941911E+02 -0.10102029593E+02  0.30091476806E+02  0.00000000000E+00 0. -1.
         -5    1    5    5    0  502 -0.71314864543E+02 -0.40296075732E+02 -0.98990442513E+02  0.12857208614E+03  0.47000000000E+01 0.  1.
         13    1    6    6    0    0 -0.14836815920E+02  0.18287175094E+02 -0.83538310649E+02  0.86794016071E+02  0.00000000000E+00 0. -1.
        -14    1    6    6    0    0  0.17039326421E+02  0.35606130324E+02  0.20728470029E+01  0.39527608785E+02  0.00000000000E+00 0.  1.
</event>
<event>
12    1  0.1050869E+000  0.2095781E+03  0.7818608E-02  0.1142173E+00
         21   -1    0    0  503  502  0.00000000000E+00  0.00000000000E+00  0.77760776168E+02  0.77760776168E+02  0.00000000000E+00 0. -1.
         21   -1    0    0  501  503 -0.00000000000E+00 -0.00000000000E+00 -0.65845137238E+03  0.65845137238E+03  0.00000000000E+00 0. -1.
          6    2    1    2  501    0  0.81006306670E+02 -0.88927149517E+02 -0.14966483147E+03  0.25753161744E+03  0.17161850880E+03 0.  0.
         24    2    3    3    0    0  0.79453629355E+02 -0.12688122956E+03 -0.12585440822E+03  0.21245446964E+03  0.82980985581E+02 0.  0.
         -6    2    1    2    0  502 -0.81006306670E+02  0.88927149517E+02 -0.43102576474E+03  0.47868053111E+03  0.16994640728E+03 0.  0.
        -24    2    5    5    0    0 -0.21856681304E+02 -0.91416301115E+01 -0.11313509845E+03  0.14075638365E+03  0.80321386433E+02 0.  0.
          5    1    3    3  501    0  0.15526773150E+01  0.37954080043E+02 -0.23810423249E+02  0.45077147803E+02  0.47000000000E+01 0. -1.
        -13    1    4    4    0    0  0.91002414462E+02 -0.78276372655E+02 -0.77195588585E+02  0.14271576245E+03  0.00000000000E+00 0.  1.
         14    1    4    4    0    0 -0.11548785107E+02 -0.48604856905E+02 -0.48658819634E+02  0.69738707190E+02  0.00000000000E+00 0. -1.
         -5    1    5    5    0  502 -0.59149625365E+02  0.98068779628E+02 -0.31789066629E+03  0.33792414745E+03  0.47000000000E+01 0.  1.
         11    1    6    6    0    0  0.57364840558E+01  0.32878462505E+02 -0.41845079014E+02  0.53524865097E+02  0.00000000000E+00 0. -1.
        -12    1    6    6    0    0 -0.27593165360E+02 -0.42020092616E+02 -0.71290019439E+02  0.87231518556E+02  0.00000000000E+00 0.  1.
</event>
<event>
12    1  0.1050869E+000  0.3050549E+03  0.7818608E-02  0.1082807E+00
         21   -1    0    0  501  502  0.00000000000E+00  0.00000000000E+00  0.16402135508E+03  0.16402135508E+03  0.00000000000E+00 0. -1.
         21   -1    0    0  502  503 -0.00000000000E+00 -0.00000000000E+00 -0.12572569921E+04  0.12572569921E+04  0.00000000000E+00 0. -1.
         -6    2    1    2    0  503 -0.23547242347E+03 -0.89342698279E+02 -0.19593946460E+02  0.30513993612E+03  0.17116389201E+03 0.  0.
        -24    2    3    3    0    0 -0.11140425593E+03  0.18687070404E+02  0.80757034870E+01  0.13825362558E+03  0.79301533141E+02 0.  0.
          6    2    1    2  501    0  0.23547242347E+03  0.89342698279E+02 -0.10736416906E+04  0.11161384111E+04  0.17213103435E+03 0.  0.
         24    2    5    5    0    0  0.34231847642E+02 -0.63711770566E+01 -0.30273376996E+03  0.31365474933E+03  0.74291015719E+02 0.  0.
          5    1    5    5  501    0  0.20124057582E+03  0.95713875336E+02 -0.77090792062E+03  0.80248366174E+03  0.47000000000E+01 0. -1.
        -13    1    6    6    0    0  0.30036651586E+02  0.51302914769E+01 -0.38324054401E+02  0.48961755227E+02  0.00000000000E+00 0.  1.
         14    1    6    6    0    0  0.41951960552E+01 -0.11501468533E+02 -0.26440971556E+03  0.26469299411E+03  0.00000000000E+00 0. -1.
         -5    1    3    3    0  503 -0.12406816753E+03 -0.10802976868E+03 -0.27669649947E+02  0.16688631054E+03  0.47000000000E+01 0.  1.
         11    1    4    4    0    0 -0.43614013646E+02  0.35349153933E+02  0.31804052056E+02  0.64523194258E+02  0.00000000000E+00 0. -1.
        -12    1    4    4    0    0 -0.67790242289E+02 -0.16662083529E+02 -0.23728348569E+02  0.73730431322E+02  0.00000000000E+00 0.  1.
</event>
<event>
12    1  0.1050869E+000  0.1923251E+03  0.7818608E-02  0.1157460E+00
         21   -1    0    0  501  502  0.00000000000E+00  0.00000000000E+00  0.74115293661E+02  0.74115293661E+02  0.00000000000E+00 0. -1.
         21   -1    0    0  502  503 -0.00000000000E+00 -0.00000000000E+00 -0.61701432226E+03  0.61701432226E+03  0.00000000000E+00 0. -1.
         -6    2    1    2    0  503  0.41330285001E+02 -0.65980440703E+02 -0.10995024239E+03  0.21738538761E+03  0.17060404429E+03 0.  0.
        -24    2    3    3    0    0  0.72956323858E+02 -0.92746032676E+02 -0.10241157145E+03  0.17501175422E+03  0.78844989556E+02 0.  0.
          6    2    1    2  501    0 -0.41330285001E+02  0.65980440703E+02 -0.43294878621E+03  0.47374422832E+03  0.17586168249E+03 0.  0.
         24    2    5    5    0    0  0.29866195670E+02  0.73796832978E+02 -0.18889104414E+03  0.21935023013E+03  0.78081590029E+02 0.  0.
          5    1    5    5  501    0 -0.71196480672E+02 -0.78163922747E+01 -0.24405774207E+03  0.25439399819E+03  0.47000000000E+01 0. -1.
        -13    1    6    6    0    0  0.85744072467E+01  0.57464660119E+02 -0.18283015595E+03  0.19183996859E+03  0.00000000000E+00 0.  1.
         14    1    6    6    0    0  0.21291788424E+02  0.16332172859E+02 -0.60608881859E+01  0.27510261543E+02  0.00000000000E+00 0. -1.
         -5    1    3    3    0  503 -0.31626038857E+02  0.26765591973E+02 -0.75386709417E+01  0.42373633394E+02  0.47000000000E+01 0.  1.
         11    1    4    4    0    0  0.38193515481E+02  0.30772970059E+01 -0.40477741069E+02  0.55737437183E+02  0.00000000000E+00 0. -1.
        -12    1    4    4    0    0  0.34762808377E+02 -0.95823329682E+02 -0.61933830384E+02  0.11927431703E+03  0.00000000000E+00 0.  1.
</event>
<event>
12    1  0.1050869E+000  0.2141494E+03  0.7818608E-02  0.1138323E+00
         21   -1    0    0  503  502  0.00000000000E+00  0.00000000000E+00  0.71389672572E+03  0.71389672572E+03  0.00000000000E+00 0. -1.
         21   -1    0    0  501  503 -0.00000000000E+00 -0.00000000000E+00 -0.76118265492E+02  0.76118265492E+02  0.00000000000E+00 0. -1.
          6    2    1    2  501    0  0.86438160696E+02 -0.94578320102E+02  0.16283520542E+03  0.26902652987E+03  0.17159066230E+03 0.  0.
         24    2    3    3    0    0 -0.66127198854E+01 -0.10425820661E+02  0.30957881402E+02  0.86944602893E+02  0.80302850202E+02 0.  0.
         -6    2    1    2    0  502 -0.86438160696E+02  0.94578320102E+02  0.47494325480E+03  0.52098846134E+03  0.17158457773E+03 0.  0.
        -24    2    5    5    0    0 -0.24656070134E+02 -0.11513055554E+02  0.13922473977E+03  0.16349521940E+03  0.81281525323E+02 0.  0.
          5    1    3    3  501    0  0.93050880581E+02 -0.84152499441E+02  0.13187732402E+03  0.18208192697E+03  0.47000000000E+01 0. -1.
        -11    1    4    4    0    0 -0.11302056911E+02  0.32746049245E+02  0.18999991109E+01  0.34693662652E+02  0.00000000000E+00 0.  1.
         12    1    4    4    0    0  0.46893370256E+01 -0.43171869906E+02  0.29057882291E+02  0.52250940242E+02  0.00000000000E+00 0. -1.
         -5    1    5    5    0  502 -0.61782090562E+02  0.10609137566E+03  0.33571851503E+03  0.35749324194E+03  0.47000000000E+01 0.  1.
         13    1    6    6    0    0  0.13924709023E+02 -0.15799556811E+02  0.11676249778E+03  0.11864655243E+03  0.00000000000E+00 0. -1.
        -14    1    6    6    0    0 -0.38580779157E+02  0.42865012569E+01  0.22462241998E+02  0.44848666970E+02  0.00000000000E+00 0.  1.
</event>
<event>
12    1  0.1050869E+000  0.5900534E+03  0.7818608E-02  0.9926528E-01
         21   -1    0    0  503  502  0.00000000000E+00  0.00000000000E+00  0.73951788933E+03  0.73951788933E+03  0.00000000000E+00 0. -1.
         21   -1    0    0  501  503 -0.00000000000E+00 -0.00000000000E+00 -0.53813605113E+03  0.53813605113E+03  0.00000000000E+00 0.  1.
          6    2    1    2  501    0 -0.28200489972E+02  0.56378206505E+03 -0.12592871919E+03  0.60334158015E+03  0.17180668063E+03 0.  0.
         24    2    3    3    0    0  0.92526638370E+01  0.44808389699E+03 -0.14943622959E+03  0.47939200222E+03  0.81367773410E+02 0.  0.
         -6    2    1    2    0  502  0.28200489972E+02 -0.56378206505E+03  0.32731055739E+03  0.67431236030E+03  0.17005726615E+03 0.  0.
        -24    2    5    5    0    0  0.84173416794E+02 -0.43929933081E+03  0.25118496390E+03  0.51795982388E+03  0.71550170659E+02 0.  0.
          5    1    3    3  501    0 -0.37453153809E+02  0.11569816807E+03  0.23507510398E+02  0.12394957793E+03  0.47000000000E+01 0. -1.
        -11    1    4    4    0    0 -0.17410152344E+02  0.10417105196E+03 -0.59167390703E+01  0.10578151668E+03  0.00000000000E+00 0.  1.
         12    1    4    4    0    0  0.26662816181E+02  0.34391284503E+03 -0.14351949052E+03  0.37361048553E+03  0.00000000000E+00 0. -1.
         -5    1    5    5    0  502 -0.55972926822E+02 -0.12448273425E+03  0.76125593491E+02  0.15635253643E+03  0.47000000000E+01 0.  1.
         13    1    6    6    0    0  0.10973869977E+02 -0.55933727596E+02  0.62045813613E+02  0.84253728060E+02  0.00000000000E+00 0. -1.
        -14    1    6    6    0    0  0.73199546818E+02 -0.38336560321E+03  0.18913915028E+03  0.43370609582E+03  0.00000000000E+00 0.  1.
</event>
<event>
12    1  0.1050869E+000  0.2572981E+03  0.7818608E-02  0.1110059E+00
         21   -1    0    0  503  502  0.00000000000E+00  0.00000000000E+00  0.10548841273E+03  0.10548841273E+03  0.00000000000E+00 0. -1.
         21   -1    0    0  501  503 -0.00000000000E+00 -0.00000000000E+00 -0.64712031350E+03  0.64712031350E+03  0.00000000000E+00 0. -1.
          6    2    1    2  501    0 -0.52691542795E+02 -0.17247352537E+03 -0.17363821819E+03  0.30358573803E+03  0.17172813947E+03 0.  0.
         24    2    3    3    0    0 -0.31860492181E+02 -0.12999704679E+03 -0.34412195886E+02  0.15646619756E+03  0.73369943553E+02 0.  0.
         -6    2    1    2    0  502  0.52691542795E+02  0.17247352537E+03 -0.36799368258E+03  0.44902298820E+03  0.18351778626E+03 0.  0.
        -24    2    5    5    0    0  0.23120225519E+02  0.76732490461E+01 -0.16874045998E+03  0.18872022102E+03  0.80923145072E+02 0.  0.
          5    1    3    3  501    0 -0.20831050614E+02 -0.42476478578E+02 -0.13922602230E+03  0.14711954047E+03  0.47000000000E+01 0. -1.
        -13    1    4    4    0    0 -0.46119865924E+02 -0.45639652706E+02 -0.28011770335E+02  0.70673044432E+02  0.00000000000E+00 0.  1.
         14    1    4    4    0    0  0.14259373744E+02 -0.84357394088E+02 -0.64004255507E+01  0.85793153131E+02  0.00000000000E+00 0. -1.
         -5    1    5    5    0  502  0.29571317276E+02  0.16480027633E+03 -0.19925322260E+03  0.26030276717E+03  0.47000000000E+01 0.  1.
         11    1    6    6    0    0 -0.21931309318E+02 -0.20538193035E+02 -0.45749909705E+02  0.54734394484E+02  0.00000000000E+00 0. -1.
        -12    1    6    6    0    0  0.45051534837E+02  0.28211442081E+02 -0.12299055028E+03  0.13398582654E+03  0.00000000000E+00 0.  1.
</event>
<event>
12    1  0.1050869E+000  0.1841396E+03  0.7818608E-02  0.1164772E+00
         21   -1    0    0  503  502  0.00000000000E+00  0.00000000000E+00  0.16280114703E+03  0.16280114703E+03  0.00000000000E+00 0. -1.
         21   -1    0    0  501  503 -0.00000000000E+00 -0.00000000000E+00 -0.22905705697E+03  0.22905705697E+03  0.00000000000E+00 0. -1.
          6    2    1    2  501    0 -0.41852385447E+02 -0.41526533865E+02 -0.98324276038E+02  0.20874643016E+03  0.17444579004E+03 0.  0.
         24    2    3    3    0    0  0.20054444492E+02 -0.44204597035E+02 -0.11165513851E+03  0.14518992373E+03  0.79101307539E+02 0.  0.
         -6    2    1    2    0  502  0.41852385447E+02  0.41526533865E+02  0.32068366092E+02  0.18311177384E+03  0.17036861927E+03 0.  0.
        -24    2    5    5    0    0  0.16246624601E+02 -0.40737582703E+02  0.31738851697E+02  0.96825978702E+02  0.80277095046E+02 0.  0.
          5    1    3    3  501    0 -0.61906829939E+02  0.26780631695E+01  0.13330862472E+02  0.63556506430E+02  0.47000000000E+01 0. -1.
        -11    1    4    4    0    0 -0.62087862447E+00  0.56788693033E+01 -0.84600298878E+02  0.84792957355E+02  0.00000000000E+00 0.  1.
         12    1    4    4    0    0  0.20675323117E+02 -0.49883466338E+02 -0.27054839633E+02  0.60396966376E+02  0.00000000000E+00 0. -1.
         -5    1    5    5    0  502  0.25605760846E+02  0.82264116569E+02  0.32951439479E+00  0.86285795141E+02  0.47000000000E+01 0.  1.
         11    1    6    6    0    0 -0.78150954248E+01 -0.32279425972E+01 -0.24009557397E+02  0.25454944045E+02  0.00000000000E+00 0. -1.
        -12    1    6    6    0    0  0.24061720025E+02 -0.37509640106E+02  0.55748409095E+02  0.71371034657E+02  0.00000000000E+00 0.  1.
</event>
<event>
12    1  0.1050869E+000  0.2146153E+03  0.7818608E-02  0.1138097E+00
         21   -1    0    0  503  502  0.00000000000E+00  0.00000000000E+00  0.30746944800E+03  0.30746944800E+03  0.00000000000E+00 0.  1.
         21   -1    0    0  501  503 -0.00000000000E+00 -0.00000000000E+00 -0.21900759539E+03  0.21900759539E+03  0.00000000000E+00 0.  1.
          6    2    1    2  501    0  0.97924370270E+02 -0.82754847960E+02  0.19267593131E+03  0.28789727682E+03  0.17124041677E+03 0.  0.
         24    2    3    3    0    0  0.10949292661E+03 -0.80789514366E+01  0.99004016775E+02  0.16745293867E+03  0.78642996499E+02 0.  0.
         -6    2    1    2    0  502 -0.97924370270E+02  0.82754847960E+02 -0.10421407870E+03  0.23857976657E+03  0.17211096323E+03 0.  0.
        -24    2    5    5    0    0 -0.33423442490E+02  0.10940890974E+03 -0.43241721288E+02  0.14578684086E+03  0.79350617332E+02 0.  0.
          5    1    3    3  501    0 -0.11568556341E+02 -0.74675896523E+02  0.93671914540E+02  0.12044433814E+03  0.47000000000E+01 0. -1.
        -11    1    4    4    0    0  0.88335566334E+02 -0.35569204389E+02  0.91287612252E+02  0.13191576377E+03  0.00000000000E+00 0.  1.
         12    1    4    4    0    0  0.21157360277E+02  0.27490252952E+02  0.77164045227E+01  0.35537174902E+02  0.00000000000E+00 0. -1.
         -5    1    5    5    0  502 -0.64500927780E+02 -0.26654061777E+02 -0.60972357412E+02  0.92792925712E+02  0.47000000000E+01 0.  1.
         13    1    6    6    0    0  0.48324646158E+01  0.89436557124E+02 -0.77324188674E+01  0.89900171112E+02  0.00000000000E+00 0. -1.
        -14    1    6    6    0    0 -0.38255907106E+02  0.19972352613E+02 -0.35509302420E+02  0.55886669750E+02  0.00000000000E+00 0.  1.
</event>
<event>
12    1  0.1050869E+000  0.2188481E+03  0.7818608E-02  0.1134942E+00
         21   -1    0    0  503  502  0.00000000000E+00  0.00000000000E+00  0.72465590094E+03  0.72465590094E+03  0.00000000000E+00 0. -1.
         21   -1    0    0  501  503 -0.00000000000E+00 -0.00000000000E+00 -0.86591525542E+02  0.86591525542E+02  0.00000000000E+00 0. -1.
          6    2    1    2  501    0 -0.12481621430E+03  0.48805517079E+02  0.51848686965E+03  0.56278157957E+03  0.17301273497E+03 0.  0.
         24    2    3    3    0    0 -0.24252560980E+02  0.99166474997E+01  0.94650889528E+02  0.12542083535E+03  0.78006848668E+02 0.  0.
         -6    2    1    2    0  502  0.12481621430E+03 -0.48805517079E+02  0.11957750575E+03  0.24846584691E+03  0.17168410337E+03 0.  0.
        -24    2    5    5    0    0  0.13808768756E+02 -0.15886509870E+02  0.98448812243E+02  0.13067439692E+03  0.83310059942E+02 0.  0.
          5    1    3    3  501    0 -0.10056365332E+03  0.38888869579E+02  0.42383598012E+03  0.43736074423E+03  0.47000000000E+01 0. -1.
        -11    1    4    4    0    0 -0.21070013246E+02 -0.30728386256E+02  0.65312640639E+02  0.75192554201E+02  0.00000000000E+00 0.  1.
         12    1    4    4    0    0 -0.31825477339E+01  0.40645033755E+02  0.29338248889E+02  0.50228281147E+02  0.00000000000E+00 0. -1.
         -5    1    5    5    0  502  0.11100744554E+03 -0.32919007209E+02  0.21128693506E+02  0.11779144999E+03  0.47000000000E+01 0.  1.
         13    1    6    6    0    0 -0.12161126736E+02  0.30112712363E+02  0.29989485897E+02  0.44204498794E+02  0.00000000000E+00 0. -1.
        -14    1    6    6    0    0  0.25969895492E+02 -0.45999222232E+02  0.68459326347E+02  0.86469898125E+02  0.00000000000E+00 0.  1.
</event>
<event>
12    1  0.1050869E+000  0.2866613E+03  0.7818608E-02  0.1092166E+00
         21   -1    0    0  503  502  0.00000000000E+00  0.00000000000E+00  0.67572333380E+02  0.67572333380E+02  0.00000000000E+00 0. -1.
         21   -1    0    0  501  503 -0.00000000000E+00 -0.00000000000E+00 -0.12469061154E+04  0.12469061154E+04  0.00000000000E+00 0. -1.
          6    2    1    2  501    0 -0.22197943501E+03  0.56576805012E+02 -0.69662678433E+03  0.75330180130E+03  0.17233375397E+03 0.  0.
         24    2    3    3    0    0 -0.83128779454E+02 -0.17668205439E+02 -0.19101808963E+03  0.22372265870E+03  0.79632643996E+02 0.  0.
         -6    2    1    2    0  502  0.22197943501E+03 -0.56576805012E+02 -0.48270699772E+03  0.56117664752E+03  0.17157324860E+03 0.  0.
        -24    2    5    5    0    0  0.14596079844E+03  0.25501980956E+02 -0.24169189745E+03  0.29542087849E+03  0.83088004187E+02 0.  0.
          5    1    3    3  501    0 -0.13885065555E+03  0.74245010451E+02 -0.50560869470E+03  0.52957914260E+03  0.47000000000E+01 0. -1.
        -11    1    4    4    0    0 -0.95182573640E+02 -0.25616986027E+02 -0.18115888354E+03  0.20623892306E+03  0.00000000000E+00 0.  1.
         12    1    4    4    0    0  0.12053794186E+02  0.79487805879E+01 -0.98592060918E+01  0.17483735638E+02  0.00000000000E+00 0. -1.
         -5    1    5    5    0  502  0.76018636565E+02 -0.82078785968E+02 -0.24101510027E+03  0.26575576903E+03  0.47000000000E+01 0.  1.
         11    1    6    6    0    0  0.24616325586E+02 -0.22623719321E+02 -0.22491610799E+02  0.40294772832E+02  0.00000000000E+00 0. -1.
        -12    1    6    6    0    0  0.12134447286E+03  0.48125700276E+02 -0.21920028665E+03  0.25512610566E+03  0.00000000000E+00 0.  1.
</event>
<event>
12    1  0.1050869E+000  0.1780724E+03  0.7818608E-02  0.1170304E+00
         21   -1    0    0  503  502  0.00000000000E+00  0.00000000000E+00  0.57460847056E+02  0.57460847056E+02  0.00000000000E+00 0. -1.
         21   -1    0    0  501  503 -0.00000000000E+00 -0.00000000000E+00 -0.57005223352E+03  0.57005223352E+03  0.00000000000E+00 0. -1.
          6    2    1    2  501    0  0.37041060389E+02  0.10361356408E+02 -0.32153085058E+03  0.36633515219E+03  0.17128910647E+03 0.  0.
         24    2    3    3    0    0 -0.30672796817E+02 -0.22125926934E+02 -0.10506075681E+03  0.13715840483E+03  0.79651040704E+02 0.  0.
         -6    2    1    2    0  502 -0.37041060389E+02 -0.10361356408E+02 -0.19106053588E+03  0.26117792838E+03  0.17386887025E+03 0.  0.
        -24    2    5    5    0    0 -0.10823285814E+02 -0.36330915277E+01 -0.17650332670E+02  0.85605066501E+02  0.82984036401E+02 0.  0.
          5    1    3    3  501    0  0.67713857206E+02  0.32487283342E+02 -0.21647009377E+03  0.22917674736E+03  0.47000000000E+01 0. -1.
        -11    1    4    4    0    0  0.15695002086E+02 -0.27119528586E+02 -0.12930068033E+02  0.33896734069E+02  0.00000000000E+00 0.  1.
         12    1    4    4    0    0 -0.46367798903E+02  0.49936016518E+01 -0.92130688782E+02  0.10326167076E+03  0.00000000000E+00 0. -1.
         -5    1    5    5    0  502 -0.26217774575E+02 -0.67282648800E+01 -0.17341020321E+03  0.17557286188E+03  0.47000000000E+01 0.  1.
         11    1    6    6    0    0  0.15603040065E+01  0.26697204479E+02 -0.38423029254E+02  0.46813507161E+02  0.00000000000E+00 0. -1.
        -12    1    6    6    0    0 -0.12383589820E+02 -0.30330296007E+02  0.20772696584E+02  0.38791559340E+02  0.00000000000E+00 0.  1.
</event>
<event>
12    1  0.1050869E+000  0.1762566E+03  0.7818608E-02  0.1172138E+00
         21   -1    0    0  503  502  0.00000000000E+00  0.00000000000E+00  0.12259800377E+03  0.12259800377E+03  0.00000000000E+00 0.  1.
         21   -1    0    0  501  503 -0.00000000000E+00 -0.00000000000E+00 -0.34494671596E+03  0.34494671596E+03  0.00000000000E+00 0.  1.
          6    2    1    2  501    0  0.19757439980E+02 -0.22374687018E+02  0.11109873927E+02  0.17660636147E+03  0.17371066334E+03 0.  0.
         24    2    3    3    0    0 -0.38145341725E+02  0.83950308668E+01  0.47572816479E+02  0.10143227120E+03  0.80621269739E+02 0.  0.
         -6    2    1    2    0  502 -0.19757439980E+02  0.22374687018E+02 -0.23345858612E+03  0.29093835826E+03  0.17102992084E+03 0.  0.
        -24    2    5    5    0    0 -0.73119134930E+02 -0.47193533146E+01 -0.10955552105E+03  0.15325895878E+03  0.78212633662E+02 0.  0.
          5    1    3    3  501    0  0.57902781705E+02 -0.30769717885E+02 -0.36462942553E+02  0.75174090267E+02  0.47000000000E+01 0. -1.
        -11    1    4    4    0    0 -0.41256475417E+02 -0.28691472486E+02  0.38004827074E+02  0.63005271511E+02  0.00000000000E+00 0.  1.
         12    1    4    4    0    0  0.31111336921E+01  0.37086503353E+02  0.95679894058E+01  0.38426999688E+02  0.00000000000E+00 0. -1.
         -5    1    5    5    0  502  0.53361694950E+02  0.27094040333E+02 -0.12390306506E+03  0.13767939948E+03  0.47000000000E+01 0.  1.
         11    1    6    6    0    0 -0.55171826853E+02 -0.36195052037E+02 -0.91406019945E+02  0.11273452334E+03  0.00000000000E+00 0. -1.
        -12    1    6    6    0    0 -0.17947308077E+02  0.31475698723E+02 -0.18149501107E+02  0.40524435440E+02  0.00000000000E+00 0.  1.
</event>
<event>
12    1  0.1050869E+000  0.1878769E+03  0.7818608E-02  0.1160582E+00
         21   -1    0    0  501  502  0.00000000000E+00  0.00000000000E+00  0.79447943062E+03  0.79447943062E+03  0.00000000000E+00 0. -1.
         21   -1    0    0  502  503 -0.00000000000E+00 -0.00000000000E+00 -0.49212006615E+02  0.49212006615E+02  0.00000000000E+00 0. -1.
         -6    2    1    2    0  503  0.30696818876E+02 -0.68033522050E+02  0.23768437979E+03  0.30245369490E+03  0.17150369778E+03 0.  0.
        -24    2    3    3    0    0  0.67392120878E+02  0.55597256485E+01  0.11069194465E+03  0.15108764891E+03  0.77473624789E+02 0.  0.
          6    2    1    2  501    0 -0.30696818876E+02  0.68033522050E+02  0.50758304421E+03  0.54123774233E+03  0.17241488375E+03 0.  0.
         24    2    5    5    0    0  0.37133851654E+02  0.79673017996E+02  0.31331785064E+03  0.33508844409E+03  0.79934204812E+02 0.  0.
          5    1    5    5  501    0 -0.67830670530E+02 -0.11639495946E+02  0.19426519358E+03  0.20614929824E+03  0.47000000000E+01 0. -1.
        -13    1    6    6    0    0  0.60391484588E+02  0.64371536185E+02  0.26513216625E+03  0.27943852930E+03  0.00000000000E+00 0.  1.
         14    1    6    6    0    0 -0.23257632934E+02  0.15301481811E+02  0.48185684390E+02  0.55649914784E+02  0.00000000000E+00 0. -1.
         -5    1    3    3    0  503 -0.36695302002E+02 -0.73593247698E+02  0.12699243514E+03  0.15136604599E+03  0.47000000000E+01 0.  1.
         11    1    4    4    0    0  0.37943128565E+01  0.29099540692E+02  0.12835484180E+02  0.32030137881E+02  0.00000000000E+00 0. -1.
        -12    1    4    4    0    0  0.63597808022E+02 -0.23539815043E+02  0.97856460471E+02  0.11905751103E+03  0.00000000000E+00 0.  1.
</event>
<event>
12    1  0.1050869E+000  0.1897967E+03  0.7818608E-02  0.1159168E+00
         21   -1    0    0  503  502  0.00000000000E+00  0.00000000000E+00  0.71012664189E+02  0.71012664189E+02  0.00000000000E+00 0.  1.
         21   -1    0    0  501  503 -0.00000000000E+00 -0.00000000000E+00 -0.52000104115E+03  0.52000104115E+03  0.00000000000E+00 0.  1.
          6    2    1    2  501    0 -0.69569304918E+02  0.40694674909E+02 -0.28209611435E+03  0.34000147401E+03  0.17183375641E+03 0.  0.
         24    2    3    3    0    0 -0.30505717930E+02  0.61729445085E+02 -0.27517524612E+03  0.29485267777E+03  0.80470878565E+02 0.  0.
         -6    2    1    2    0  502  0.69569304918E+02 -0.40694674909E+02 -0.16689226261E+03  0.25101223133E+03  0.16928723580E+03 0.  0.
        -24    2    5    5    0    0  0.31506839700E+02 -0.41775015777E+02 -0.18612445163E+03  0.20809503793E+03  0.76963630533E+02 0.  0.
          5    1    3    3  501    0 -0.39063586988E+02 -0.21034770176E+02 -0.69208682367E+01  0.45148796239E+02  0.47000000000E+01 0. -1.
        -11    1    4    4    0    0 -0.24232079164E+01 -0.38880120622E+01 -0.15508887741E+03  0.15515652893E+03  0.00000000000E+00 0.  1.
         12    1    4    4    0    0 -0.28082510014E+02  0.65617457147E+02 -0.12008636871E+03  0.13969614884E+03  0.00000000000E+00 0. -1.
         -5    1    5    5    0  502  0.38062465218E+02  0.10803408678E+01  0.19232189021E+02  0.42917193401E+02  0.47000000000E+01 0.  1.
         11    1    6    6    0    0 -0.20321674156E+02  0.45321281065E+01 -0.24447682825E+02  0.32112300155E+02  0.00000000000E+00 0. -1.
        -12    1    6    6    0    0  0.51828513856E+02 -0.46307143883E+02 -0.16167676880E+03  0.17598273777E+03  0.00000000000E+00 0.  1.
</event>
<event>
12    1  0.1050869E+000  0.3255603E+03  0.7818608E-02  0.1073217E+00
         21   -1    0    0  501  502  0.00000000000E+00  0.00000000000E+00  0.76528561200E+02  0.76528561200E+02  0.00000000000E+00 0. -1.
         21   -1    0    0  502  503 -0.00000000000E+00 -0.00000000000E+00 -0.18207166604E+04  0.18207166604E+04  0.00000000000E+00 0.  1.
         -6    2    1    2    0  503 -0.16135881786E+03 -0.22305181748E+03 -0.40692870882E+03  0.52113381283E+03  0.17378347284E+03 0.  0.
        -24    2    3    3    0    0 -0.17659149420E+03 -0.23505268086E+03 -0.39169150062E+03  0.49602768481E+03  0.78656937632E+02 0.  0.
          6    2    1    2  501    0  0.16135881786E+03  0.22305181748E+03 -0.13372593903E+04  0.13761114087E+04  0.17213701171E+03 0.  0.
         24    2    5    5    0    0  0.10452234321E+03  0.11603991213E+03 -0.10469281737E+04  0.10614747324E+04  0.79245348107E+02 0.  0.
          5    1    5    5  501    0  0.56836474651E+02  0.10701190535E+03 -0.29033121666E+03  0.31463667635E+03  0.47000000000E+01 0. -1.
        -13    1    6    6    0    0  0.17037458386E+02  0.53825823174E+02 -0.56079165829E+03  0.56362645275E+03  0.00000000000E+00 0.  1.
         14    1    6    6    0    0  0.87484884819E+02  0.62214088953E+02 -0.48613651539E+03  0.49784827963E+03  0.00000000000E+00 0. -1.
         -5    1    3    3    0  503  0.15232676348E+02  0.12000863375E+02 -0.15237208204E+02  0.25106128023E+02  0.47000000000E+01 0.  1.
         11    1    4    4    0    0 -0.27687616737E+02 -0.63542251974E+02 -0.48934492946E+02  0.84845780723E+02  0.00000000000E+00 0. -1.
        -12    1    4    4    0    0 -0.14890387747E+03 -0.17151042888E+03 -0.34275700767E+03  0.41118190409E+03  0.00000000000E+00 0.  1.
</event>
<event>
12    1  0.1050869E+000  0.2837220E+03  0.7818608E-02  0.1093881E+00
         21   -1    0    0  503  502  0.00000000000E+00  0.00000000000E+00  0.21938112635E+04  0.21938112635E+04  0.00000000000E+00 0. -1.
         21   -1    0    0  501  503 -0.00000000000E+00 -0.00000000000E+00 -0.38752922982E+02  0.38752922982E+02  0.00000000000E+00 0.  1.
          6    2    1    2  501    0  0.86550544519E+02  0.20893582275E+03  0.81077402928E+03  0.85898352991E+03  0.17132718210E+03 0.  0.
         24    2    3    3    0    0  0.49491432205E+02  0.11316147517E+03  0.66160833656E+03  0.67782449110E+03  0.80408509542E+02 0.  0.
         -6    2    1    2    0  502 -0.86550544519E+02 -0.20893582275E+03  0.13442843112E+04  0.13735806566E+04  0.16875525435E+03 0.  0.
        -24    2    5    5    0    0 -0.75879868044E+02 -0.72341732770E+02  0.85939422115E+03  0.86968354582E+03  0.82461881198E+02 0.  0.
          5    1    3    3  501    0  0.37059112314E+02  0.95774347575E+02  0.14916569272E+03  0.18115903881E+03  0.47000000000E+01 0. -1.
        -11    1    4    4    0    0  0.90295221277E+01  0.30242478037E+02  0.48850593205E+02  0.58159437791E+02  0.00000000000E+00 0.  1.
         12    1    4    4    0    0  0.40461910077E+02  0.82918997136E+02  0.61275774336E+03  0.61966505331E+03  0.00000000000E+00 0. -1.
         -5    1    5    5    0  502 -0.10670676475E+02 -0.13659408998E+03  0.48489009009E+03  0.50389711075E+03  0.47000000000E+01 0.  1.
         13    1    6    6    0    0  0.14374529255E+02  0.31201997099E+01  0.13492359997E+03  0.13572302887E+03  0.00000000000E+00 0. -1.
        -14    1    6    6    0    0 -0.90254397300E+02 -0.75461932480E+02  0.72447062118E+03  0.73396051695E+03  0.00000000000E+00 0.  1.
</event>
<event>
12    1  0.1050869E+000  0.2009879E+03  0.7818608E-02  0.1149025E+00
         21   -1    0    0  501  502  0.00000000000E+00  0.00000000000E+00  0.33910947472E+02  0.33910947472E+02  0.00000000000E+00 0.  1.
         21   -1    0    0  502  503 -0.00000000000E+00 -0.00000000000E+00 -0.12787923583E+04  0.12787923583E+04  0.00000000000E+00 0.  1.
         -6    2    1    2    0  503 -0.54131477977E+02  0.89413457297E+02 -0.79817603624E+03  0.82309241712E+03  0.17167166056E+03 0.  0.
        -24    2    3    3    0    0 -0.81509098586E+02  0.83686563336E+02 -0.76988322450E+03  0.78303115627E+03  0.82282673079E+02 0.  0.
          6    2    1    2  501    0  0.54131477977E+02 -0.89413457297E+02 -0.44670537458E+03  0.48961088865E+03  0.17102089739E+03 0.  0.
         24    2    5    5    0    0  0.88873013907E+02 -0.14792626677E+02 -0.29647161231E+03  0.31824135808E+03  0.72559704236E+02 0.  0.
          5    1    5    5  501    0 -0.34741535930E+02 -0.74620830620E+02 -0.15023376227E+03  0.17136953057E+03  0.47000000000E+01 0. -1.
        -13    1    6    6    0    0  0.66193804107E+02 -0.30119408319E+02 -0.27190092550E+03  0.28145854357E+03  0.00000000000E+00 0.  1.
         14    1    6    6    0    0  0.22679209800E+02  0.15326781642E+02 -0.24570686806E+02  0.36782814504E+02  0.00000000000E+00 0. -1.
         -5    1    3    3    0  503  0.27377620609E+02  0.57268939614E+01 -0.28292811737E+02  0.40061260847E+02  0.47000000000E+01 0.  1.
         11    1    4    4    0    0 -0.87303847942E+02  0.49380416396E+02 -0.43842912672E+03  0.44975603003E+03  0.00000000000E+00 0. -1.
        -12    1    4    4    0    0  0.57947493555E+01  0.34306146940E+02 -0.33145409778E+03  0.33327512624E+03  0.00000000000E+00 0.  1.
</event>
<event>
12    1  0.1050869E+000  0.1956197E+03  0.7818608E-02  0.1153662E+00
         21   -1    0    0  503  502  0.00000000000E+00  0.00000000000E+00  0.11416225042E+03  0.11416225042E+03  0.00000000000E+00 0. -1.
         21   -1    0    0  501  503 -0.00000000000E+00 -0.00000000000E+00 -0.36720794771E+03  0.36720794771E+03  0.00000000000E+00 0. -1.
          6    2    1    2  501    0  0.24317817207E+02 -0.89752113732E+02 -0.53722193620E+02  0.20209089924E+03  0.17119538346E+03 0.  0.
         24    2    3    3    0    0 -0.29214799218E+01 -0.10517586727E+03  0.80921528655E+01  0.13264325772E+03  0.80363255172E+02 0.  0.
         -6    2    1    2    0  502 -0.24317817207E+02  0.89752113732E+02 -0.19932350367E+03  0.27927929889E+03  0.17210540236E+03 0.  0.
        -24    2    5    5    0    0 -0.58315595445E+02  0.10693604337E+03 -0.13392897416E+03  0.20345271482E+03  0.92844014355E+02 0.  0.
          5    1    3    3  501    0  0.27239297129E+02  0.15423753534E+02 -0.61814346485E+02  0.69447641519E+02  0.47000000000E+01 0. -1.
        -13    1    4    4    0    0  0.55872791956E+01 -0.67773246073E+02  0.43265484314E+02  0.80599830676E+02  0.00000000000E+00 0.  1.
         14    1    4    4    0    0 -0.85087591174E+01 -0.37402621193E+02 -0.35173331448E+02  0.52043427049E+02  0.00000000000E+00 0. -1.
         -5    1    5    5    0  502  0.33997778238E+02 -0.17183929642E+02 -0.65394529511E+02  0.75826584079E+02  0.47000000000E+01 0.  1.
         11    1    6    6    0    0 -0.63408854825E+01  0.87576614459E+02 -0.45050476067E+02  0.98688477659E+02  0.00000000000E+00 0. -1.
        -12    1    6    6    0    0 -0.51974709962E+02  0.19359428915E+02 -0.88878498094E+02  0.10476423716E+03  0.00000000000E+00 0.  1.
</event>
<event>
12    1  0.1050869E+000  0.3233114E+03  0.7818608E-02  0.1074270E+00
         21   -1    0    0  501  502  0.00000000000E+00  0.00000000000E+00  0.69013754838E+02  0.69013754838E+02  0.00000000000E+00 0.  1.
         21   -1    0    0  502  503 -0.00000000000E+00 -0.00000000000E+00 -0.15360970602E+04  0.15360970602E+04  0.00000000000E+00 0.  1.
         -6    2    1    2    0  503 -0.26491870632E+03 -0.63732475262E+02 -0.83866317987E+03  0.89839862300E+03  0.17181503766E+03 0.  0.
        -24    2    3    3    0    0 -0.21814323282E+03 -0.87380872964E+02 -0.52688385494E+03  0.58220939312E+03  0.78353646072E+02 0.  0.
          6    2    1    2  501    0  0.26491870632E+03  0.63732475262E+02 -0.62842012545E+03  0.70671219200E+03  0.17403022408E+03 0.  0.
         24    2    5    5    0    0  0.11321316110E+03 -0.23565538842E+02 -0.38482225386E+03  0.40671631076E+03  0.62908154541E+02 0.  0.
          5    1    5    5  501    0  0.15170554522E+03  0.87298014104E+02 -0.24359787159E+03  0.29999588124E+03  0.47000000000E+01 0. -1.
        -13    1    6    6    0    0  0.81585415799E+02  0.12252193073E+02 -0.21450589553E+03  0.22982400990E+03  0.00000000000E+00 0.  1.
         14    1    6    6    0    0  0.31627745298E+02 -0.35817731914E+02 -0.17031635832E+03  0.17689230086E+03  0.00000000000E+00 0. -1.
         -5    1    3    3    0  503 -0.46775473497E+02  0.23648397702E+02 -0.31177932494E+03  0.31618922988E+03  0.47000000000E+01 0.  1.
         13    1    4    4    0    0 -0.89756545970E+02  0.42814268802E+01 -0.19934608421E+03  0.21866282138E+03  0.00000000000E+00 0. -1.
        -14    1    4    4    0    0 -0.12838668685E+03 -0.91662299844E+02 -0.32753777073E+03  0.36354657174E+03  0.00000000000E+00 0.  1.
</event>
<event>
12    1  0.1050869E+000  0.2706123E+03  0.7818608E-02  0.1100983E+00
         21   -1    0    0  501  502  0.00000000000E+00  0.00000000000E+00  0.55554724290E+02  0.55554724290E+02  0.00000000000E+00 0.  1.
         21   -1    0    0  502  503 -0.00000000000E+00 -0.00000000000E+00 -0.13194632717E+04  0.13194632717E+04  0.00000000000E+00 0.  1.
         -6    2    1    2    0  503 -0.20901388038E+03 -0.10414151627E+02 -0.66482752754E+03  0.71765275474E+03  0.17098122198E+03 0.  0.
        -24    2    3    3    0    0 -0.84396620482E+02  0.29167464577E+02 -0.18612708254E+03  0.22139438268E+03  0.79991570091E+02 0.  0.
          6    2    1    2  501    0  0.20901388038E+03  0.10414151627E+02 -0.59908101983E+03  0.65736524121E+03  0.17156845656E+03 0.  0.
         24    2    5    5    0    0  0.11357843256E+03  0.69206785548E+02 -0.37131150142E+03  0.40346458737E+03  0.84981190076E+02 0.  0.
          5    1    5    5  501    0  0.95435447813E+02 -0.58792633921E+02 -0.22776951841E+03  0.25390065384E+03  0.47000000000E+01 0. -1.
        -11    1    6    6    0    0  0.38279081026E+02  0.22937183545E+02 -0.37928690533E+02  0.58566099398E+02  0.00000000000E+00 0.  1.
         12    1    6    6    0    0  0.75299351538E+02  0.46269602004E+02 -0.33338281089E+03  0.34489848797E+03  0.00000000000E+00 0. -1.
         -5    1    3    3    0  503 -0.12461725989E+03 -0.39581616204E+02 -0.47870044500E+03  0.49625837207E+03  0.47000000000E+01 0.  1.
         11    1    4    4    0    0 -0.97131023250E+02  0.11081276315E+02 -0.15242577997E+03  0.18108243637E+03  0.00000000000E+00 0. -1.
        -12    1    4    4    0    0  0.12734402769E+02  0.18086188263E+02 -0.33701302571E+02  0.40311946303E+02  0.00000000000E+00 0.  1.
</event>
<event>
12    1  0.1050869E+000  0.2553615E+03  0.7818608E-02  0.1111607E+00
         21   -1    0    0  503  502  0.00000000000E+00  0.00000000000E+00  0.12453187561E+03  0.12453187561E+03  0.00000000000E+00 0. -1.
         21   -1    0    0  501  503 -0.00000000000E+00 -0.00000000000E+00 -0.50485609367E+03  0.50485609367E+03  0.00000000000E+00 0. -1.
          6    2    1    2  501    0 -0.15095151648E+03  0.88022853484E+02 -0.17220039477E+03  0.30799751095E+03  0.18621253376E+03 0.  0.
         24    2    3    3    0    0 -0.83688825560E+02  0.12773704701E+03 -0.14415466506E+03  0.22487026083E+03  0.80408295879E+02 0.  0.
         -6    2    1    2    0  502  0.15095151648E+03 -0.88022853484E+02 -0.20812382329E+03  0.32139045833E+03  0.17158647331E+03 0.  0.
        -24    2    5    5    0    0  0.14097593554E+03 -0.45701238215E+02 -0.81278832119E+02  0.18721753588E+03  0.80506767499E+02 0.  0.
          5    1    3    3  501    0 -0.67262690919E+02 -0.39714193525E+02 -0.28045729708E+02  0.83127250116E+02  0.47000000000E+01 0. -1.
        -11    1    4    4    0    0  0.13096219574E+02  0.21349633978E+02 -0.40373425041E+02  0.47511380612E+02  0.00000000000E+00 0.  1.
         12    1    4    4    0    0 -0.96785045134E+02  0.10638741303E+03 -0.10378124002E+03  0.17735888022E+03  0.00000000000E+00 0. -1.
         -5    1    5    5    0  502  0.99755809361E+01 -0.42321615269E+02 -0.12684499117E+03  0.13417292245E+03  0.47000000000E+01 0.  1.
         13    1    6    6    0    0  0.13204266899E+03 -0.18196564622E+02 -0.44696255089E+02  0.14058498005E+03  0.00000000000E+00 0. -1.
        -14    1    6    6    0    0  0.89332665570E+01 -0.27504673593E+02 -0.36582577030E+02  0.46632555828E+02  0.00000000000E+00 0.  1.
</event>
<event>
12    1  0.1050869E+000  0.1758276E+03  0.7818608E-02  0.1171982E+00
         21   -1    0    0  501  502  0.00000000000E+00  0.00000000000E+00  0.13324727627E+03  0.13324727627E+03  0.00000000000E+00 0. -1.
         21   -1    0    0  502  503 -0.00000000000E+00 -0.00000000000E+00 -0.25957387947E+03  0.25957387947E+03  0.00000000000E+00 0. -1.
         -6    2    1    2    0  503  0.22656517482E+02  0.33284031519E+02  0.13628769706E+01  0.17551967260E+03  0.17083370129E+03 0.  0.
        -24    2    3    3    0    0 -0.15257886523E+02  0.59609949311E+02  0.31198979327E+02  0.12035773842E+03  0.98622815458E+02 0.  0.
          6    2    1    2  501    0 -0.22656517482E+02 -0.33284031519E+02 -0.12768948017E+03  0.21730148314E+03  0.17115544599E+03 0.  0.
         24    2    5    5    0    0 -0.13104891836E+02 -0.49043822699E+02 -0.15616205637E+03  0.18306141646E+03  0.80918845823E+02 0.  0.
          5    1    5    5  501    0 -0.95516256467E+01  0.15759791179E+02  0.28472576209E+02  0.34240066684E+02  0.47000000000E+01 0. -1.
        -13    1    6    6    0    0 -0.44242498620E+02 -0.36406983971E+02 -0.69256127485E+02  0.89884806058E+02  0.00000000000E+00 0.  1.
         14    1    6    6    0    0  0.31137606784E+02 -0.12636838728E+02 -0.86905928890E+02  0.93176610399E+02  0.00000000000E+00 0. -1.
         -5    1    3    3    0  503  0.37914404005E+02 -0.26325917791E+02 -0.29836102356E+02  0.55161934180E+02  0.47000000000E+01 0.  1.
         11    1    4    4    0    0 -0.36952867077E+02  0.62247461987E+01  0.47470879837E+02  0.60479304584E+02  0.00000000000E+00 0. -1.
        -12    1    4    4    0    0  0.21694980554E+02  0.53385203112E+02 -0.16271900511E+02  0.59878433837E+02  0.00000000000E+00 0.  1.
</event>
<event>
12    1  0.1050869E+000  0.2265727E+03  0.7818608E-02  0.1129228E+00
         21   -1    0    0  503  502  0.00000000000E+00  0.00000000000E+00  0.17373612118E+04  0.17373612118E+04  0.00000000000E+00 0.  1.
         21   -1    0    0  501  503 -0.00000000000E+00 -0.00000000000E+00 -0.41895966269E+02  0.41895966269E+02  0.00000000000E+00 0.  1.
          6    2    1    2  501    0 -0.56018303832E+02  0.13566282374E+03  0.36149497213E+03  0.42618221128E+03  0.17149405303E+03 0.  0.
         24    2    3    3    0    0  0.10965333947E+02  0.12503525941E+03  0.29856126658E+03  0.33354045964E+03  0.79726743734E+02 0.  0.
         -6    2    1    2    0  502  0.56018303832E+02 -0.13566282374E+03  0.13339702734E+04  0.13530749668E+04  0.17260568741E+03 0.  0.
        -24    2    5    5    0    0  0.10400162212E+03 -0.10431464891E+03  0.95047229923E+03  0.96528908116E+03  0.81777351545E+02 0.  0.
          5    1    3    3  501    0 -0.66983637780E+02  0.10627564332E+02  0.62933705551E+02  0.92641751647E+02  0.47000000000E+01 0. -1.
        -13    1    4    4    0    0 -0.90031793912E+01  0.10032169109E+03  0.14390039818E+03  0.17564971830E+03  0.00000000000E+00 0.  1.
         14    1    4    4    0    0  0.19968513338E+02  0.24713568316E+02  0.15466086841E+03  0.15789074134E+03  0.00000000000E+00 0. -1.
         -5    1    5    5    0  502 -0.47983318286E+02 -0.31348174835E+02  0.38349797418E+03  0.38778588564E+03  0.47000000000E+01 0.  1.
         13    1    6    6    0    0  0.46355736980E+02 -0.17481142535E+02  0.52101918117E+03  0.52336930732E+03  0.00000000000E+00 0. -1.
        -14    1    6    6    0    0  0.57645885138E+02 -0.86833506372E+02  0.42945311805E+03  0.44191977384E+03  0.00000000000E+00 0.  1.
</event>
<event>
12    1  0.1050869E+000  0.5318271E+03  0.7818608E-02  0.1005797E+00
         21   -1    0    0  503  502  0.00000000000E+00  0.00000000000E+00  0.91279674595E+03  0.91279674595E+03  0.00000000000E+00 0. -1.
         21   -1    0    0  501  503 -0.00000000000E+00 -0.00000000000E+00 -0.42947046592E+03  0.42947046592E+03  0.00000000000E+00 0. -1.
          6    2    1    2  501    0 -0.93653565880E+02 -0.49414539791E+03 -0.11260034135E+03  0.54361649539E+03  0.17288548961E+03 0.  0.
         24    2    3    3    0    0  0.18856954641E+02 -0.25278171284E+03 -0.53396602227E+02  0.27077548231E+03  0.78828837390E+02 0.  0.
         -6    2    1    2    0  502  0.93653565880E+02  0.49414539791E+03  0.59592662137E+03  0.79865071648E+03  0.17252177890E+03 0.  0.
        -24    2    5    5    0    0 -0.29261118918E+01  0.10935864876E+03  0.13721267738E+03  0.19216159960E+03  0.78299970230E+02 0.  0.
          5    1    3    3  501    0 -0.11251052052E+03 -0.24136368506E+03 -0.59203739121E+02  0.27284101309E+03  0.47000000000E+01 0. -1.
        -13    1    4    4    0    0 -0.86345547433E+01 -0.17914106428E+03 -0.66117113150E+02  0.19114797696E+03  0.00000000000E+00 0.  1.
         14    1    4    4    0    0  0.27491509384E+02 -0.73640648566E+02  0.12720510923E+02  0.79627505346E+02  0.00000000000E+00 0. -1.
         -5    1    5    5    0  502  0.96579677772E+02  0.38478674915E+03  0.45871394399E+03  0.60648911688E+03  0.47000000000E+01 0.  1.
         13    1    6    6    0    0 -0.27193514556E+02  0.73363908676E+02  0.12429249409E+03  0.14686856171E+03  0.00000000000E+00 0. -1.
        -14    1    6    6    0    0  0.24267402664E+02  0.35994740082E+02  0.12920183293E+02  0.45293037897E+02  0.00000000000E+00 0.  1.
</event>
<event>
12    1  0.1050869E+000  0.2975176E+03  0.7818608E-02  0.1086918E+00
         21   -1    0    0  501  502  0.00000000000E+00  0.00000000000E+00  0.28238435813E+03  0.28238435813E+03  0.00000000000E+00 0.  1.
         21   -1    0    0  502  503 -0.00000000000E+00 -0.00000000000E+00 -0.35327004956E+03  0.35327004956E+03  0.00000000000E+00 0.  1.
         -6    2    1    2    0  503  0.86197366843E+02  0.22301753290E+03  0.75725859250E+02  0.30700348595E+03  0.17705911045E+03 0.  0.
        -24    2    3    3    0    0 -0.11954721766E+02  0.12518438693E+03 -0.10525462819E+00  0.14896043871E+03  0.79844568497E+02 0.  0.
          6    2    1    2  501    0 -0.86197366843E+02 -0.22301753290E+03 -0.14661155068E+03  0.32865092174E+03  0.17131747003E+03 0.  0.
         24    2    5    5    0    0 -0.11430541229E+03 -0.19564049327E+03 -0.85282048670E+02  0.25569228734E+03  0.82247116028E+02 0.  0.
          5    1    5    5  501    0  0.28108045442E+02 -0.27377039632E+02 -0.61329502009E+02  0.72958634405E+02  0.47000000000E+01 0. -1.
        -11    1    6    6    0    0 -0.37537801741E+02 -0.10236371346E+02 -0.37364136573E+01  0.39087474271E+02  0.00000000000E+00 0.  1.
         12    1    6    6    0    0 -0.76767610545E+02 -0.18540412192E+03 -0.81545635013E+02  0.21660481307E+03  0.00000000000E+00 0. -1.
         -5    1    3    3    0  503  0.98152088609E+02  0.97833145965E+02  0.75831113878E+02  0.15804304724E+03  0.47000000000E+01 0.  1.
         13    1    4    4    0    0 -0.27863709783E+02  0.10831284533E+03  0.25193324966E+02  0.11464188768E+03  0.00000000000E+00 0. -1.
        -14    1    4    4    0    0  0.15908988017E+02  0.16871541598E+02 -0.25298579594E+02  0.34318551034E+02  0.00000000000E+00 0.  1.
</event>
<event>
12    1  0.1050869E+000  0.1846309E+03  0.7818608E-02  0.1163662E+00
         21   -1    0    0  503  502  0.00000000000E+00  0.00000000000E+00  0.13572693331E+04  0.13572693331E+04  0.00000000000E+00 0.  1.
         21   -1    0    0  501  503 -0.00000000000E+00 -0.00000000000E+00 -0.33943328171E+02  0.33943328171E+02  0.00000000000E+00 0.  1.
          6    2    1    2  501    0 -0.94820685402E+01 -0.65115492179E+02  0.30232567370E+03  0.35365290604E+03  0.17128814326E+03 0.  0.
         24    2    3    3    0    0 -0.57513630680E+01 -0.95318206358E+02  0.14645106808E+03  0.19476582417E+03  0.85832233345E+02 0.  0.
         -6    2    1    2    0  502  0.94820685402E+01  0.65115492179E+02  0.10210003312E+04  0.10375597552E+04  0.17250690529E+03 0.  0.
        -24    2    5    5    0    0 -0.25119361430E+02  0.12359332990E+02  0.23832757224E+03  0.25233417685E+03  0.78030568927E+02 0.  0.
          5    1    3    3  501    0 -0.37307054722E+01  0.30202714179E+02  0.15587460562E+03  0.15888708187E+03  0.47000000000E+01 0. -1.
        -11    1    4    4    0    0  0.10940599689E+02 -0.75072771604E+01 -0.85886958987E+01  0.15805746713E+02  0.00000000000E+00 0.  1.
         12    1    4    4    0    0 -0.16691962757E+02 -0.87810929197E+02  0.15503976398E+03  0.17896007746E+03  0.00000000000E+00 0. -1.
         -5    1    5    5    0  502  0.34601429970E+02  0.52756159189E+02  0.78267275893E+03  0.78522557833E+03  0.47000000000E+01 0.  1.
         13    1    6    6    0    0 -0.20307407022E+02 -0.26683960106E+02  0.17183457984E+03  0.17507583310E+03  0.00000000000E+00 0. -1.
        -14    1    6    6    0    0 -0.48119544079E+01  0.39043293095E+02  0.66492992400E+02  0.77258343752E+02  0.00000000000E+00 0.  1.
</event>
<event>
12    1  0.1276637E+000  0.2910187E+03  0.7818608E-02  0.1089873E+00
         21   -1    0    0  501  502  0.00000000000E+00  0.00000000000E+00  0.17775068761E+04  0.17775068761E+04  0.00000000000E+00 0.  1.
         21   -1    0    0  502  503 -0.00000000000E+00 -0.00000000000E+00 -0.14566200730E+03  0.14566200730E+03  0.00000000000E+00 0.  1.
         -6    2    1    2    0  503  0.19867096571E+03  0.12437138693E+03  0.16051817640E+04  0.16313492568E+04  0.17249205178E+03 0.  0.
        -24    2    3    3    0    0  0.93421569541E+02  0.56853648038E+02  0.11904500713E+04  0.11981512105E+04  0.80218601346E+02 0.  0.
          6    2    1    2  501    0 -0.19867096571E+03 -0.12437138693E+03  0.26663104857E+02  0.29181962659E+03  0.17178294095E+03 0.  0.
         24    2    5    5    0    0 -0.18362219819E+03 -0.42665366763E+02 -0.90409883830E+00  0.20415903194E+03  0.78375045381E+02 0.  0.
          5    1    5    5  501    0 -0.15048767520E+02 -0.81706020163E+02  0.27567203695E+02  0.87660594650E+02  0.47000000000E+01 0. -1.
        -11    1    6    6    0    0 -0.49125161768E+02  0.11826140151E+02 -0.26100291823E+02  0.56871472135E+02  0.00000000000E+00 0.  1.
         12    1    6    6    0    0 -0.13449703642E+03 -0.54491506914E+02  0.25196192984E+02  0.14728755981E+03  0.00000000000E+00 0. -1.
         -5    1    3    3    0  503  0.10524939617E+03  0.67517738889E+02  0.41473169270E+03  0.43319804639E+03  0.47000000000E+01 0.  1.
         13    1    4    4    0    0  0.61570032161E+02  0.58534799742E+02  0.51594144033E+03  0.52288886151E+03  0.00000000000E+00 0. -1.
        -14    1    4    4    0    0  0.31851537381E+02 -0.16811517042E+01  0.67450863093E+03  0.67526234895E+03  0.00000000000E+00 0.  1.
</event>
<event>
12    1  0.1050869E+000  0.2638254E+03  0.7818608E-02  0.1105073E+00
         21   -1    0    0  501  502  0.00000000000E+00  0.00000000000E+00  0.28258892690E+03  0.28258892690E+03  0.00000000000E+00 0. -1.
         21   -1    0    0  502  503 -0.00000000000E+00 -0.00000000000E+00 -0.25657599214E+03  0.25657599214E+03  0.00000000000E+00 0.  1.
         -6    2    1    2    0  503 -0.16213498047E+03 -0.11680235555E+03  0.70217426719E+02  0.27166192195E+03  0.17011516884E+03 0.  0.
        -24    2    3    3    0    0 -0.14737348462E+03 -0.70059852173E+02 -0.42492167682E+01  0.18238631288E+03  0.81359599491E+02 0.  0.
          6    2    1    2  501    0  0.16213498047E+03  0.11680235555E+03 -0.44204491966E+02  0.26750299709E+03  0.17225932250E+03 0.  0.
         24    2    5    5    0    0  0.18812788677E+03  0.85846713228E+02 -0.29603930823E+02  0.22426933711E+03  0.81600140291E+02 0.  0.
          5    1    5    5  501    0 -0.25992906301E+02  0.30955642326E+02 -0.14600561143E+02  0.43233659982E+02  0.47000000000E+01 0. -1.
        -11    1    6    6    0    0  0.12667674337E+03  0.80485723338E+02 -0.51712670515E+02  0.15874239907E+03  0.00000000000E+00 0.  1.
         12    1    6    6    0    0  0.61451143399E+02  0.53609898901E+01  0.22108739691E+02  0.65526938037E+02  0.00000000000E+00 0. -1.
         -5    1    3    3    0  503 -0.14761495848E+02 -0.46742503381E+02  0.74466643487E+02  0.89275609067E+02  0.47000000000E+01 0.  1.
         11    1    4    4    0    0 -0.13219546038E+03 -0.31836890383E+02 -0.21727539542E+02  0.13770008464E+03  0.00000000000E+00 0. -1.
        -12    1    4    4    0    0 -0.15178024233E+02 -0.38222961790E+02  0.17478322774E+02  0.44686228243E+02  0.00000000000E+00 0.  1.
</event>
<event>
12    1  0.1050869E+000  0.2455080E+03  0.7818608E-02  0.1116222E+00
         21   -1    0    0  501  502  0.00000000000E+00  0.00000000000E+00  0.50060128922E+02  0.50060128922E+02  0.00000000000E+00 0. -1.
         21   -1    0    0  502  503 -0.00000000000E+00 -0.00000000000E+00 -0.12461044571E+04  0.12461044571E+04  0.00000000000E+00 0. -1.
         -6    2    1    2    0  503 -0.11049589405E+03  0.13666074957E+03 -0.71867293591E+03  0.75936142716E+03  0.17103650244E+03 0.  0.
        -24    2    3    3    0    0  0.11601424611E+02  0.63873080853E+02 -0.31426714990E+03  0.33067514361E+03  0.79798781844E+02 0.  0.
          6    2    1    2  501    0  0.11049589405E+03 -0.13666074957E+03 -0.47737139228E+03  0.53680315887E+03  0.17143127526E+03 0.  0.
         24    2    5    5    0    0  0.57149440382E+02 -0.96884797034E+01 -0.26975421015E+03  0.28761490524E+03  0.81210064948E+02 0.  0.
          5    1    5    5  501    0  0.53346453671E+02 -0.12697226987E+03 -0.20761718212E+03  0.24918825363E+03  0.47000000000E+01 0. -1.
        -13    1    6    6    0    0  0.15695300252E+02 -0.39272134023E+02 -0.17504151353E+03  0.18007824527E+03  0.00000000000E+00 0.  1.
         14    1    6    6    0    0  0.41454140130E+02  0.29583654320E+02 -0.94712696621E+02  0.10753665997E+03  0.00000000000E+00 0. -1.
         -5    1    3    3    0  503 -0.12209731866E+03  0.72787668717E+02 -0.40440578601E+03  0.42868628355E+03  0.47000000000E+01 0.  1.
         13    1    4    4    0    0  0.22600684311E+02  0.45337064131E+02 -0.30128382121E+03  0.30551298047E+03  0.00000000000E+00 0. -1.
        -14    1    4    4    0    0 -0.10999259700E+02  0.18536016721E+02 -0.12983328695E+02  0.25162163139E+02  0.00000000000E+00 0.  1.
</event>
<event>
12    1  0.1050869E+000  0.3096268E+03  0.7818608E-02  0.1080811E+00
         21   -1    0    0  501  502  0.00000000000E+00  0.00000000000E+00  0.19514393878E+04  0.19514393878E+04  0.00000000000E+00 0. -1.
         21   -1    0    0  502  503 -0.00000000000E+00 -0.00000000000E+00 -0.51071977011E+02  0.51071977011E+02  0.00000000000E+00 0. -1.
         -6    2    1    2    0  503 -0.24858389406E+03  0.61149969699E+02  0.11601502131E+04  0.12001459664E+04  0.16990748161E+03 0.  0.
        -24    2    3    3    0    0 -0.72443955170E+02  0.31498911617E+02  0.28977689275E+03  0.31162119451E+03  0.83047054270E+02 0.  0.
          6    2    1    2  501    0  0.24858389406E+03 -0.61149969699E+02  0.74021719762E+03  0.80236539844E+03  0.17417078337E+03 0.  0.
         24    2    5    5    0    0  0.11995532282E+03 -0.21532208062E+02  0.21000846533E+03  0.25532036722E+03  0.78943137470E+02 0.  0.
          5    1    5    5  501    0  0.12862857124E+03 -0.39617761637E+02  0.53020873230E+03  0.54704503122E+03  0.47000000000E+01 0. -1.
        -13    1    6    6    0    0  0.96651591175E+01  0.23836793595E+02  0.32005840121E+02  0.41060709096E+02  0.00000000000E+00 0.  1.
         14    1    6    6    0    0  0.11029016370E+03 -0.45369001656E+02  0.17800262520E+03  0.21425965813E+03  0.00000000000E+00 0. -1.
         -5    1    3    3    0  503 -0.17613993889E+03  0.29651058082E+02  0.87037332040E+03  0.88852477184E+03  0.47000000000E+01 0.  1.
         11    1    4    4    0    0 -0.35459424500E+01 -0.22316269712E+02  0.10224987337E+03  0.10471688596E+03  0.00000000000E+00 0. -1.
        -12    1    4    4    0    0 -0.68898012720E+02  0.53815181329E+02  0.18752701939E+03  0.20690430855E+03  0.00000000000E+00 0.  1.
</event>
<event>
12    1  0.1050869E+000  0.2227709E+03  0.7818608E-02  0.1132257E+00
         21   -1    0    0  501  502  0.00000000000E+00  0.00000000000E+00  0.10942906992E+04  0.10942906992E+04  0.00000000000E+00 0.  1.
         21   -1    0    0  502  503 -0.00000000000E+00 -0.00000000000E+00 -0.44946281727E+02  0.44946281727E+02  0.00000000000E+00 0. -1.
         -6    2    1    2    0  503  0.10198214738E+03 -0.97105837631E+02  0.54846665514E+03  0.59198186851E+03  0.17261795606E+03 0.  0.
        -24    2    3    3    0    0  0.42937397553E+02 -0.16251248578E+02  0.41745063766E+03  0.42702419548E+03  0.77310448552E+02 0.  0.
          6    2    1    2  501    0 -0.10198214738E+03  0.97105837631E+02  0.50087776233E+03  0.54725511242E+03  0.16964587582E+03 0.  0.
         24    2    5    5    0    0 -0.67059613143E+02 -0.11537191473E+02  0.23117104686E+03  0.25436145673E+03  0.81422351128E+02 0.  0.
          5    1    5    5  501    0 -0.34922534241E+02  0.10864302910E+03  0.26970671547E+03  0.29289365569E+03  0.47000000000E+01 0. -1.
        -13    1    6    6    0    0 -0.67927063674E+02  0.17930590596E+02  0.19742205829E+03  0.20954966275E+03  0.00000000000E+00 0.  1.
         14    1    6    6    0    0  0.86745053118E+00 -0.29467782070E+02  0.33748988563E+02  0.44811793978E+02  0.00000000000E+00 0. -1.
         -5    1    3    3    0  503  0.59044749830E+02 -0.80854589053E+02  0.13101601748E+03  0.16495767303E+03  0.47000000000E+01 0.  1.
         13    1    4    4    0    0  0.44933067640E+02  0.18272797092E+02  0.31921609382E+03  0.32288045812E+03  0.00000000000E+00 0. -1.
        -14    1    4    4    0    0 -0.19956700863E+01 -0.34524045670E+02  0.98234543836E+02  0.10414373736E+03  0.00000000000E+00 0.  1.
</event>
<event>
12    1  0.1050869E+000  0.1897193E+03  0.7818608E-02  0.1158761E+00
         21   -1    0    0  501  502  0.00000000000E+00  0.00000000000E+00  0.22292468716E+03  0.22292468716E+03  0.00000000000E+00 0. -1.
         21   -1    0    0  502  503 -0.00000000000E+00 -0.00000000000E+00 -0.16854067145E+03  0.16854067145E+03  0.00000000000E+00 0. -1.
         -6    2    1    2    0  503  0.54958671161E+02  0.59770788035E+02 -0.13428297348E+02  0.18999095159E+03  0.17124029864E+03 0.  0.
        -24    2    3    3    0    0  0.91932230220E+02  0.52750869179E+02 -0.44535925733E+02  0.14093896005E+03  0.81523938983E+02 0.  0.
          6    2    1    2  501    0 -0.54958671161E+02 -0.59770788035E+02  0.67812313062E+02  0.20147440702E+03  0.17146551911E+03 0.  0.
         24    2    5    5    0    0  0.33080826069E+02 -0.43806771747E+02  0.53233578466E+02  0.11069757963E+03  0.80042276051E+02 0.  0.
          5    1    5    5  501    0 -0.88039497230E+02 -0.15964016288E+02  0.14578734596E+02  0.90776827390E+02  0.47000000000E+01 0. -1.
        -11    1    6    6    0    0 -0.67126808329E+00 -0.47058079600E+02 -0.60970504598E+00  0.47066816302E+02  0.00000000000E+00 0.  1.
         12    1    6    6    0    0  0.33752094152E+02  0.32513078534E+01  0.53843283512E+02  0.63630763329E+02  0.00000000000E+00 0. -1.
         -5    1    3    3    0  503 -0.36973559059E+02  0.70199188562E+01  0.31107628385E+02  0.49051991539E+02  0.47000000000E+01 0.  1.
         11    1    4    4    0    0 -0.13237185280E+01  0.14380836507E+02 -0.37114401548E+02  0.39825111320E+02  0.00000000000E+00 0. -1.
        -12    1    4    4    0    0  0.93255948748E+02  0.38370032673E+02 -0.74215241848E+01  0.10111384873E+03  0.00000000000E+00 0.  1.
</event>
<event>
12    1  0.1050869E+000  0.2634911E+03  0.7818608E-02  0.1105238E+00
         21   -1    0    0  503  502  0.00000000000E+00  0.00000000000E+00  0.29825010996E+03  0.29825010996E+03  0.00000000000E+00 0.  1.
         21   -1    0    0  501  503 -0.00000000000E+00 -0.00000000000E+00 -0.36436068037E+03  0.36436068037E+03  0.00000000000E+00 0.  1.
          6    2    1    2  501    0 -0.11509563048E+03  0.16306435596E+03  0.16677239445E+03  0.31183424811E+03  0.17201912221E+03 0.  0.
         24    2    3    3    0    0 -0.54615765217E+02  0.93076662921E+02  0.16307036947E+02  0.13514807127E+03  0.79705299213E+02 0.  0.
         -6    2    1    2    0  502  0.11509563048E+03 -0.16306435596E+03 -0.23288296486E+03  0.35077654221E+03  0.17021374475E+03 0.  0.
        -24    2    5    5    0    0  0.13322161616E+03 -0.11004873280E+03 -0.12047728976E+03  0.22509307690E+03  0.79330910231E+02 0.  0.
          5    1    3    3  501    0 -0.60479865261E+02  0.69987693040E+02  0.15046535751E+03  0.17668617685E+03  0.47000000000E+01 0. -1.
        -13    1    4    4    0    0  0.20367897678E+02  0.15400685077E+02 -0.21223080776E+01  0.25622969153E+02  0.00000000000E+00 0.  1.
         14    1    4    4    0    0 -0.74983662895E+02  0.77675977843E+02  0.18429345025E+02  0.10952510211E+03  0.00000000000E+00 0. -1.
         -5    1    5    5    0  502 -0.18125985681E+02 -0.53015623165E+02 -0.11240567511E+03  0.12568346531E+03  0.47000000000E+01 0.  1.
         13    1    6    6    0    0  0.96579707739E+01 -0.52787229927E+02 -0.28566410017E+02  0.60793156063E+02  0.00000000000E+00 0. -1.
        -14    1    6    6    0    0  0.12356364539E+03 -0.57261502868E+02 -0.91910879738E+02  0.16429992083E+03  0.00000000000E+00 0.  1.
</event>
<event>
12    1  0.1050869E+000  0.2502299E+03  0.7818608E-02  0.1113423E+00
         21   -1    0    0  503  502  0.00000000000E+00  0.00000000000E+00  0.58545104607E+02  0.58545104607E+02  0.00000000000E+00 0.  1.
         21   -1    0    0  501  503 -0.00000000000E+00 -0.00000000000E+00 -0.10898946824E+04  0.10898946824E+04  0.00000000000E+00 0.  1.
          6    2    1    2  501    0 -0.17529734695E+03 -0.46507523534E+02 -0.60515039237E+03  0.65421235255E+03  0.16998439707E+03 0.  0.
         24    2    3    3    0    0 -0.16195979680E+03 -0.11495783334E+02 -0.58144795646E+03  0.60962975881E+03  0.84873953316E+02 0.  0.
         -6    2    1    2    0  502  0.17529734695E+03  0.46507523534E+02 -0.42619918545E+03  0.49422743449E+03  0.17240331124E+03 0.  0.
        -24    2    5    5    0    0  0.18206835244E+03  0.78311712388E+02 -0.34642771656E+03  0.40795501599E+03  0.84460185982E+02 0.  0.
          5    1    3    3  501    0 -0.13337550156E+02 -0.35011740200E+02 -0.23702435919E+02  0.44582593739E+02  0.47000000000E+01 0. -1.
        -11    1    4    4    0    0 -0.55027412560E+02  0.36317349540E+02 -0.22120347840E+03  0.23082015698E+03  0.00000000000E+00 0.  1.
         12    1    4    4    0    0 -0.10693238424E+03 -0.47813132874E+02 -0.36024447806E+03  0.37880960184E+03  0.00000000000E+00 0. -1.
         -5    1    5    5    0  502 -0.67710054812E+01 -0.31804188854E+02 -0.79771468891E+02  0.86272418494E+02  0.47000000000E+01 0.  1.
         11    1    6    6    0    0  0.69235819384E+02 -0.76436240995E+01 -0.15283436286E+03  0.16795941815E+03  0.00000000000E+00 0. -1.
        -12    1    6    6    0    0  0.11283253305E+03  0.85955336487E+02 -0.19359335370E+03  0.23999559784E+03  0.00000000000E+00 0.  1.
</event>
<event>
12    1  0.1050869E+000  0.2022005E+03  0.7818608E-02  0.1147994E+00
         21   -1    0    0  501  502  0.00000000000E+00  0.00000000000E+00  0.13367806808E+03  0.13367806808E+03  0.00000000000E+00 0. -1.
         21   -1    0    0  502  503 -0.00000000000E+00 -0.00000000000E+00 -0.31393647016E+03  0.31393647016E+03  0.00000000000E+00 0. -1.
         -6    2    1    2    0  503  0.74330108865E+02 -0.75664117512E+02 -0.52749808139E+02  0.20896789591E+03  0.17214823699E+03 0.  0.
        -24    2    3    3    0    0  0.27329494003E+02 -0.53296090218E+02 -0.97904140018E+02  0.13989988501E+03  0.79996141888E+02 0.  0.
          6    2    1    2  501    0 -0.74330108865E+02  0.75664117512E+02 -0.12750859394E+03  0.23864664234E+03  0.17159182559E+03 0.  0.
         24    2    5    5    0    0 -0.10827950612E+03  0.79087975796E+02 -0.69115627943E+02  0.17085200496E+03  0.80212706051E+02 0.  0.
          5    1    5    5  501    0  0.33949397254E+02 -0.34238582839E+01 -0.58392965997E+02  0.67794637379E+02  0.47000000000E+01 0. -1.
        -11    1    6    6    0    0 -0.74580942606E+02  0.19657337294E+02 -0.67530410421E+02  0.10251382463E+03  0.00000000000E+00 0.  1.
         12    1    6    6    0    0 -0.33698563512E+02  0.59430638502E+02 -0.15852175215E+01  0.68338180325E+02  0.00000000000E+00 0. -1.
         -5    1    3    3    0  503  0.47000614861E+02 -0.22368027294E+02  0.45154331879E+02  0.69068010901E+02  0.47000000000E+01 0.  1.
         13    1    4    4    0    0 -0.24872398202E+02 -0.35322578257E+01 -0.12321667667E+02  0.27981003051E+02  0.00000000000E+00 0. -1.
        -14    1    4    4    0    0  0.52201892206E+02 -0.49763832392E+02 -0.85582472351E+02  0.11191888195E+03  0.00000000000E+00 0.  1.
</event>
<event>
12    1  0.1050869E+000  0.2262992E+03  0.7818608E-02  0.1129331E+00
         21   -1    0    0  503  502  0.00000000000E+00  0.00000000000E+00  0.17398721350E+03  0.17398721350E+03  0.00000000000E+00 0.  1.
         21   -1    0    0  501  503 -0.00000000000E+00 -0.00000000000E+00 -0.93073298659E+03  0.93073298659E+03  0.00000000000E+00 0.  1.
          6    2    1    2  501    0  0.95257498132E+02 -0.11272119532E+03  0.78436894335E+02  0.23950716145E+03  0.17155545800E+03 0.  0.
         24    2    3    3    0    0  0.13129047517E+03 -0.66800104740E+02  0.69576550472E+02  0.18028117317E+03  0.77207267522E+02 0.  0.
         -6    2    1    2    0  502 -0.95257498132E+02  0.11272119532E+03 -0.83518266743E+03  0.86521303864E+03  0.17112409365E+03 0.  0.
        -24    2    5    5    0    0 -0.13225010583E+02  0.71176566356E+02 -0.24974686505E+03  0.27258123565E+03  0.81768141230E+02 0.  0.
          5    1    3    3  501    0 -0.36032977043E+02 -0.45921090583E+02  0.88603438629E+01  0.59225988285E+02  0.47000000000E+01 0. -1.
        -11    1    4    4    0    0 -0.42762202275E+01  0.94952156869E+01  0.72986147032E+01  0.12716719583E+02  0.00000000000E+00 0.  1.
         12    1    4    4    0    0  0.13556669540E+03 -0.76295320427E+02  0.62277935769E+02  0.16756445358E+03  0.00000000000E+00 0. -1.
         -5    1    5    5    0  502 -0.82032487548E+02  0.41544628967E+02 -0.58543580238E+03  0.59263180299E+03  0.47000000000E+01 0.  1.
         13    1    6    6    0    0 -0.27182616396E+02  0.85063435258E+02 -0.21098233458E+03  0.22910309504E+03  0.00000000000E+00 0. -1.
        -14    1    6    6    0    0  0.13957605812E+02 -0.13886868902E+02 -0.38764530472E+02  0.43478140607E+02  0.00000000000E+00 0.  1.
</event>
<event>
12    1  0.1050869E+000  0.2429320E+03  0.7818608E-02  0.1117947E+00
         21   -1    0    0  503  502  0.00000000000E+00  0.00000000000E+00  0.75222135580E+03  0.75222135580E+03  0.00000000000E+00 0.  1.
         21   -1    0    0  501  503 -0.00000000000E+00 -0.00000000000E+00 -0.78633236069E+02  0.78633236069E+02  0.00000000000E+00 0.  1.
          6    2    1    2  501    0 -0.16292844895E+03  0.52403196066E+02  0.30832538632E+03  0.39218291968E+03  0.17161329846E+03 0.  0.
         24    2    3    3    0    0 -0.70203557341E+02  0.10409328585E+02  0.39997383470E+02  0.10515783795E+03  0.66494260002E+02 0.  0.
         -6    2    1    2    0  502  0.16292844895E+03 -0.52403196066E+02  0.36526273341E+03  0.43867167219E+03  0.17240706809E+03 0.  0.
        -24    2    5    5    0    0  0.17287470581E+03 -0.62419373033E+02  0.24481229767E+03  0.31730590561E+03  0.83475353286E+02 0.  0.
          5    1    3    3  501    0 -0.92724891604E+02  0.41993867481E+02  0.26832800285E+03  0.28702508173E+03  0.47000000000E+01 0. -1.
        -11    1    4    4    0    0 -0.53391219732E+02  0.19571726878E+02 -0.41707586769E+01  0.57018155577E+02  0.00000000000E+00 0.  1.
         12    1    4    4    0    0 -0.16812337609E+02 -0.91623982933E+01  0.44168142147E+02  0.48139682374E+02  0.00000000000E+00 0. -1.
         -5    1    5    5    0  502 -0.99462568634E+01  0.10016176968E+02  0.12045043574E+03  0.12136576658E+03  0.47000000000E+01 0.  1.
         11    1    6    6    0    0  0.15856725328E+03 -0.55904387832E+02  0.16362436531E+03  0.23460990455E+03  0.00000000000E+00 0. -1.
        -12    1    6    6    0    0  0.14307452530E+02 -0.65149852011E+01  0.81187932357E+02  0.82696001055E+02  0.00000000000E+00 0.  1.
</event>
<event>
12    1  0.1050869E+000  0.2383995E+03  0.7818608E-02  0.1120888E+00
         21   -1    0    0  503  502  0.00000000000E+00  0.00000000000E+00  0.39311773793E+03  0.39311773793E+03  0.00000000000E+00 0. -1.
         21   -1    0    0  501  503 -0.00000000000E+00 -0.00000000000E+00 -0.15646221963E+03  0.15646221963E+03  0.00000000000E+00 0. -1.
          6    2    1    2  501    0  0.68466634202E+02 -0.14910916274E+03  0.42333588040E+02  0.24212897447E+03  0.17295399732E+03 0.  0.
         24    2    3    3    0    0 -0.14864977138E+02 -0.11206198265E+03  0.12193190168E+02  0.14596669192E+03  0.91535489082E+02 0.  0.
         -6    2    1    2    0  502 -0.68466634202E+02  0.14910916274E+03  0.19432193026E+03  0.30745098310E+03  0.17275379016E+03 0.  0.
        -24    2    5    5    0    0  0.89544313668E+01  0.12489712089E+02  0.74563368998E+02  0.10990833280E+03  0.79271501018E+02 0.  0.
          5    1    3    3  501    0  0.83331611341E+02 -0.37047180086E+02  0.30140397872E+02  0.96162282548E+02  0.47000000000E+01 0. -1.
        -11    1    4    4    0    0 -0.20745006061E+02 -0.10868966105E+03  0.39760333907E+02  0.11757840724E+03  0.00000000000E+00 0.  1.
         12    1    4    4    0    0  0.58800289222E+01 -0.33723216000E+01 -0.27567143739E+02  0.28388284679E+02  0.00000000000E+00 0. -1.
         -5    1    5    5    0  502 -0.77421065569E+02  0.13661945065E+03  0.11975856126E+03  0.19754265029E+03  0.47000000000E+01 0.  1.
         11    1    6    6    0    0 -0.11653467548E+02 -0.49521827621E+01 -0.13077646215E+02  0.18203083545E+02  0.00000000000E+00 0. -1.
        -12    1    6    6    0    0  0.20607898915E+02  0.17441894851E+02  0.87641015214E+02  0.91705249257E+02  0.00000000000E+00 0.  1.
</event>
<event>
12    1  0.1050869E+000  0.4124566E+03  0.7818608E-02  0.1039608E+00
         21   -1    0    0  501  502  0.00000000000E+00  0.00000000000E+00  0.18152804781E+03  0.18152804781E+03  0.00000000000E+00 0.  1.
         21   -1    0    0  502  503 -0.00000000000E+00 -0.00000000000E+00 -0.10441148557E+04  0.10441148557E+04  0.00000000000E+00 0.  1.
         -6    2    1    2    0  503  0.37194288651E+03  0.42985995411E+02 -0.23404027366E+03  0.47423128587E+03  0.17300623164E+03 0.  0.
        -24    2    3    3    0    0  0.21508811013E+03  0.87902214336E+02 -0.17046221933E+03  0.29905952277E+03  0.79934570368E+02 0.  0.
          6    2    1    2  501    0 -0.37194288651E+03 -0.42985995411E+02 -0.62854653424E+03  0.75141161764E+03  0.17134575222E+03 0.  0.
         24    2    5    5    0    0 -0.23790967201E+03 -0.24651646453E+02 -0.51982439660E+03  0.57779236712E+03  0.80111799957E+02 0.  0.
          5    1    5    5  501    0 -0.13403321450E+03 -0.18334348958E+02 -0.10872213764E+03  0.17361925052E+03  0.47000000000E+01 0. -1.
        -11    1    6    6    0    0 -0.12938539208E+00  0.34475307478E+01  0.17626683008E+01  0.38741719599E+01  0.00000000000E+00 0.  1.
         12    1    6    6    0    0 -0.23778028662E+03 -0.28099177201E+02 -0.52158706490E+03  0.57391819516E+03  0.00000000000E+00 0. -1.
         -5    1    3    3    0  503  0.15685477638E+03 -0.44916218925E+02 -0.63578054327E+02  0.17517176310E+03  0.47000000000E+01 0.  1.
         11    1    4    4    0    0  0.46582404772E+02 -0.13640426096E+02 -0.41114572869E+02  0.63611239263E+02  0.00000000000E+00 0. -1.
        -12    1    4    4    0    0  0.16850570535E+03  0.10154264043E+03 -0.12934764646E+03  0.23544828351E+03  0.00000000000E+00 0.  1.
</event>
<event>
12    1  0.1050869E+000  0.2340437E+03  0.7818608E-02  0.1123933E+00
         21   -1    0    0  501  502  0.00000000000E+00  0.00000000000E+00  0.96071013188E+02  0.96071013188E+02  0.00000000000E+00 0. -1.
         21   -1    0    0  502  503 -0.00000000000E+00 -0.00000000000E+00 -0.58152092365E+03  0.58152092365E+03  0.00000000000E+00 0. -1.
         -6    2    1    2    0  503 -0.34481335544E+02  0.15382691450E+03 -0.19263015469E+03  0.30312182396E+03  0.17298780748E+03 0.  0.
        -24    2    3    3    0    0  0.44669167536E+02  0.10179525273E+03 -0.93109935865E+02  0.16565015444E+03  0.80080618777E+02 0.  0.
          6    2    1    2  501    0  0.34481335544E+02 -0.15382691450E+03 -0.29281975577E+03  0.37447011288E+03  0.17214172633E+03 0.  0.
         24    2    5    5    0    0  0.49343523362E+02 -0.17975029277E+03 -0.24809917294E+03  0.32048005179E+03  0.80058184663E+02 0.  0.
          5    1    5    5  501    0 -0.14862187818E+02  0.25923378273E+02 -0.44720582835E+02  0.53990061094E+02  0.47000000000E+01 0. -1.
        -13    1    6    6    0    0 -0.14064227980E+02 -0.74933917718E+02 -0.12761863178E+03  0.14865870210E+03  0.00000000000E+00 0.  1.
         14    1    6    6    0    0  0.63407751342E+02 -0.10481637505E+03 -0.12048054115E+03  0.17182134968E+03  0.00000000000E+00 0. -1.
         -5    1    3    3    0  503 -0.79150503080E+02  0.52031661773E+02 -0.99520218829E+02  0.13747166952E+03  0.47000000000E+01 0.  1.
         13    1    4    4    0    0  0.91536115267E+01 -0.24518467793E+01 -0.44099632650E+02  0.45106293978E+02  0.00000000000E+00 0. -1.
        -14    1    4    4    0    0  0.35515556009E+02  0.10424709951E+03 -0.49010303215E+02  0.12054386046E+03  0.00000000000E+00 0.  1.
</event>
<event>
12    1  0.1050869E+000  0.2471268E+03  0.7818608E-02  0.1115166E+00
         21   -1    0    0  503  502  0.00000000000E+00  0.00000000000E+00  0.10993444764E+03  0.10993444764E+03  0.00000000000E+00 0. -1.
         21   -1    0    0  501  503 -0.00000000000E+00 -0.00000000000E+00 -0.55718496415E+03  0.55718496415E+03  0.00000000000E+00 0. -1.
          6    2    1    2  501    0  0.16124480553E+03 -0.71907598646E+02 -0.20320170182E+03  0.31994156933E+03  0.17291930520E+03 0.  0.
         24    2    3    3    0    0  0.17034368671E+03 -0.86572752672E+02 -0.13171117707E+03  0.24624732593E+03  0.82329206559E+02 0.  0.
         -6    2    1    2    0  502 -0.16124480553E+03  0.71907598646E+02 -0.24404881469E+03  0.34717784246E+03  0.17263267447E+03 0.  0.
        -24    2    5    5    0    0 -0.87893046646E+02  0.36038356125E+02 -0.44890995839E+02  0.13188035084E+03  0.79707431713E+02 0.  0.
          5    1    3    3  501    0 -0.90988811854E+01  0.14665154025E+02 -0.71490524756E+02  0.73694243407E+02  0.47000000000E+01 0. -1.
        -13    1    4    4    0    0  0.29418122637E+02 -0.34201952050E+02  0.18443157179E+01  0.45150868917E+02  0.00000000000E+00 0.  1.
         14    1    4    4    0    0  0.14092556408E+03 -0.52370800622E+02 -0.13355549279E+03  0.20109645701E+03  0.00000000000E+00 0. -1.
         -5    1    5    5    0  502 -0.73351758882E+02  0.35869242521E+02 -0.19915781885E+03  0.21529749162E+03  0.47000000000E+01 0.  1.
         13    1    6    6    0    0 -0.57263570305E+02 -0.16873264704E+02 -0.73791737936E+01  0.60152105132E+02  0.00000000000E+00 0. -1.
        -14    1    6    6    0    0 -0.30629476340E+02  0.52911620830E+02 -0.37511822046E+02  0.71728245712E+02  0.00000000000E+00 0.  1.
</event>
<event>
12    1  0.1050869E+000  0.2357098E+03  0.7818608E-02  0.1122889E+00
         21   -1    0    0  503  502  0.00000000000E+00  0.00000000000E+00  0.15614236657E+04  0.15614236657E+04  0.00000000000E+00 0. -1.
         21   -1    0    0  501  503 -0.00000000000E+00 -0.00000000000E+00 -0.36372396091E+02  0.36372396091E+02  0.00000000000E+00 0.  1.
          6    2    1    2  501    0  0.14035252547E+03  0.73239686349E+02  0.63012303181E+03  0.67234716253E+03  0.17301094957E+03 0.  0.
         24    2    3    3    0    0  0.80499805484E+02  0.51864679998E+02  0.18814393062E+03  0.22579721585E+03  0.80100439079E+02 0.  0.
         -6    2    1    2    0  502 -0.14035252547E+03 -0.73239686349E+02  0.89492823778E+03  0.92544889925E+03  0.17463170184E+03 0.  0.
        -24    2    5    5    0    0 -0.17292074502E+03 -0.67393131035E+02  0.79037932038E+03  0.81568808082E+03  0.78766470882E+02 0.  0.
          5    1    3    3  501    0  0.59852719988E+02  0.21375006350E+02  0.44197910119E+03  0.44654994668E+03  0.47000000000E+01 0. -1.
        -11    1    4    4    0    0  0.21813515962E+02  0.60867117964E+02  0.11089034276E+03  0.12836394995E+03  0.00000000000E+00 0.  1.
         12    1    4    4    0    0  0.58686289522E+02 -0.90024379651E+01  0.77253587860E+02  0.97433265902E+02  0.00000000000E+00 0. -1.
         -5    1    5    5    0  502  0.32568219549E+02 -0.58465553138E+01  0.10454891740E+03  0.10976081843E+03  0.47000000000E+01 0.  1.
         13    1    6    6    0    0 -0.17565834882E+02 -0.35938042051E+02  0.22415043758E+03  0.22769172161E+03  0.00000000000E+00 0. -1.
        -14    1    6    6    0    0 -0.15535491014E+03 -0.31455088984E+02  0.56622888280E+03  0.58799635921E+03  0.00000000000E+00 0.  1.
</event>
<event>
12    1  0.1050869E+000  0.1879304E+03  0.7818608E-02  0.1160934E+00
         21   -1    0    0  501  502  0.00000000000E+00  0.00000000000E+00  0.91172848900E+02  0.91172848900E+02  0.00000000000E+00 0. -1.
         21   -1    0    0  502  503 -0.00000000000E+00 -0.00000000000E+00 -0.39506627603E+03  0.39506627603E+03  0.00000000000E+00 0. -1.
         -6    2    1    2    0  503 -0.66819244391E+02 -0.26127204236E+02 -0.10890186120E+03  0.21720371020E+03  0.17369626975E+03 0.  0.
        -24    2    3    3    0    0 -0.51238131321E+02  0.50520003079E+02 -0.47561725483E+02  0.11769357140E+03  0.80075228407E+02 0.  0.
          6    2    1    2  501    0  0.66819244391E+02  0.26127204236E+02 -0.19499156593E+03  0.26903541474E+03  0.17091196967E+03 0.  0.
         24    2    5    5    0    0  0.72488730663E+02  0.49668401806E+02 -0.64325730152E+02  0.13606180195E+03  0.81568671561E+02 0.  0.
          5    1    5    5  501    0 -0.56694862715E+01 -0.23541197569E+02 -0.13066583578E+03  0.13297361278E+03  0.47000000000E+01 0. -1.
        -13    1    6    6    0    0  0.26989128271E+01  0.49449475531E+02 -0.20150340590E+02  0.53465605642E+02  0.00000000000E+00 0.  1.
         14    1    6    6    0    0  0.69789817836E+02  0.21892627471E+00 -0.44175389562E+02  0.82596196312E+02  0.00000000000E+00 0. -1.
         -5    1    3    3    0  503 -0.15581113070E+02 -0.76647207315E+02 -0.61340135721E+02  0.99510138800E+02  0.47000000000E+01 0.  1.
         13    1    4    4    0    0  0.77937610108E+01  0.17558436713E+02  0.15921084281E+02  0.24950397495E+02  0.00000000000E+00 0. -1.
        -14    1    4    4    0    0 -0.59031892332E+02  0.32961566366E+02 -0.63482809763E+02  0.92743173900E+02  0.00000000000E+00 0.  1.
</event>
<event>
12    1  0.1050869E+000  0.4631493E+03  0.7818608E-02  0.1023901E+00
         21   -1    0    0  503  502  0.00000000000E+00  0.00000000000E+00  0.10751235269E+04  0.10751235269E+04  0.00000000000E+00 0.  1.
         21   -1    0    0  501  503 -0.00000000000E+00 -0.00000000000E+00 -0.21762798686E+03  0.21762798686E+03  0.00000000000E+00 0.  1.
          6    2    1    2  501    0 -0.42796374122E+03  0.42771620721E+02  0.24155559003E+03  0.52235654446E+03  0.17182805687E+03 0.  0.
         24    2    3    3    0    0 -0.31551457792E+03 -0.33945471885E+02  0.15987337189E+03  0.36353462725E+03  0.76786627944E+02 0.  0.
         -6    2    1    2    0  502  0.42796374122E+03 -0.42771620721E+02  0.61593994997E+03  0.77039496926E+03  0.17071617193E+03 0.  0.
        -24    2    5    5    0    0  0.24364022790E+03  0.22963124830E+02  0.42500383530E+03  0.49694496611E+03  0.80238230132E+02 0.  0.
          5    1    3    3  501    0 -0.11244916330E+03  0.76717092605E+02  0.81682218138E+02  0.15882191720E+03  0.47000000000E+01 0. -1.
        -11    1    4    4    0    0 -0.11480555376E+03 -0.39888281426E+02  0.88832824720E+02  0.15054122664E+03  0.00000000000E+00 0.  1.
         12    1    4    4    0    0 -0.20070902416E+03  0.59428095418E+01  0.71040547172E+02  0.21299340062E+03  0.00000000000E+00 0. -1.
         -5    1    5    5    0  502  0.18432351332E+03 -0.65734745551E+02  0.19093611467E+03  0.27345000315E+03  0.47000000000E+01 0.  1.
         11    1    6    6    0    0  0.14378042915E+03 -0.77320679004E+01  0.30857859678E+03  0.34051923157E+03  0.00000000000E+00 0. -1.
        -12    1    6    6    0    0  0.99859798740E+02  0.30695192731E+02  0.11642523852E+03  0.15642573454E+03  0.00000000000E+00 0.  1.
</event>
<event>
12    1  0.1050869E+000  0.2561772E+03  0.7818608E-02  0.1109554E+00
         21   -1    0    0  501  502  0.00000000000E+00  0.00000000000E+00  0.25526066176E+03  0.25526066176E+03  0.00000000000E+00 0. -1.
         21   -1    0    0  502  503 -0.00000000000E+00 -0.00000000000E+00 -0.34679605812E+03  0.34679605812E+03  0.00000000000E+00 0.  1.
         -6    2    1    2    0  503  0.12727155894E+03 -0.13903996450E+03 -0.19941465468E+03  0.32464284105E+03  0.17348374075E+03 0.  0.
        -24    2    3    3    0    0  0.92694993786E+02 -0.79418190860E+02 -0.40525231128E+02  0.15138513223E+03  0.79847060000E+02 0.  0.
          6    2    1    2  501    0 -0.12727155894E+03  0.13903996450E+03  0.10787925831E+03  0.27741387883E+03  0.17259885385E+03 0.  0.
         24    2    5    5    0    0 -0.15769795608E+03  0.12859406992E+03  0.86526675686E+02  0.23851779752E+03  0.89435976866E+02 0.  0.
          5    1    5    5  501    0  0.30426397137E+02  0.10445894577E+02  0.21352582628E+02  0.38896081308E+02  0.47000000000E+01 0. -1.
        -11    1    6    6    0    0 -0.11782626311E+02 -0.19364959310E+01 -0.14030731457E+02  0.18423944325E+02  0.00000000000E+00 0.  1.
         12    1    6    6    0    0 -0.14591532977E+03  0.13053056585E+03  0.10055740714E+03  0.22009385320E+03  0.00000000000E+00 0. -1.
         -5    1    3    3    0  503  0.34576565156E+02 -0.59621773640E+02 -0.15888942355E+03  0.17325770882E+03  0.47000000000E+01 0.  1.
         11    1    4    4    0    0  0.76501681884E+02 -0.93705640397E+02 -0.22041364027E+02  0.12295965233E+03  0.00000000000E+00 0. -1.
        -12    1    4    4    0    0  0.16193311902E+02  0.14287449536E+02 -0.18483867102E+02  0.28425479902E+02  0.00000000000E+00 0.  1.
</event>
<event>
12    1  0.1050869E+000  0.2974821E+03  0.7818608E-02  0.1086554E+00
         21   -1    0    0  503  502  0.00000000000E+00  0.00000000000E+00  0.80236800969E+03  0.80236800969E+03  0.00000000000E+00 0. -1.
         21   -1    0    0  501  503 -0.00000000000E+00 -0.00000000000E+00 -0.11364360305E+03  0.11364360305E+03  0.00000000000E+00 0. -1.
          6    2    1    2  501    0  0.22427728396E+02  0.24107714721E+03  0.42485318232E+03  0.51864806916E+03  0.17284212222E+03 0.  0.
         24    2    3    3    0    0  0.52867037322E+02  0.23533631771E+03  0.31612446974E+03  0.40549537768E+03  0.79458887994E+02 0.  0.
         -6    2    1    2    0  502 -0.22427728396E+02 -0.24107714721E+03  0.26387122432E+03  0.39736354358E+03  0.17218759779E+03 0.  0.
        -24    2    5    5    0    0 -0.42507658391E+02 -0.80115840305E+02  0.55382632543E+02  0.13316413251E+03  0.80249618748E+02 0.  0.
          5    1    3    3  501    0 -0.30439308927E+02  0.57408295008E+01  0.10872871258E+03  0.11315269149E+03  0.47000000000E+01 0. -1.
        -13    1    4    4    0    0  0.34870246271E+01  0.44976492690E+02  0.11804190650E+03  0.12636825522E+03  0.00000000000E+00 0.  1.
         14    1    4    4    0    0  0.49380012695E+02  0.19035982502E+03  0.19808256323E+03  0.27912712246E+03  0.00000000000E+00 0. -1.
         -5    1    5    5    0  502  0.20079929995E+02 -0.16096130690E+03  0.20848859178E+03  0.26419941107E+03  0.47000000000E+01 0.  1.
         13    1    6    6    0    0 -0.14034613421E+02  0.11792108841E+02  0.27388880519E+02  0.32957168884E+02  0.00000000000E+00 0. -1.
        -14    1    6    6    0    0 -0.28473044970E+02 -0.91907949146E+02  0.27993752024E+02  0.10020696362E+03  0.00000000000E+00 0.  1.
</event>
<event>
12    1  0.1050869E+000  0.2343390E+03  0.7818608E-02  0.1123979E+00
         21   -1    0    0  503  502  0.00000000000E+00  0.00000000000E+00  0.41951432646E+03  0.41951432646E+03  0.00000000000E+00 0. -1.
         21   -1    0    0  501  503 -0.00000000000E+00 -0.00000000000E+00 -0.15369270732E+03  0.15369270732E+03  0.00000000000E+00 0. -1.
          6    2    1    2  501    0  0.85781224577E+02 -0.13047967862E+03  0.19297675799E+02  0.23307644662E+03  0.17195599628E+03 0.  0.
         24    2    3    3    0    0  0.46854708284E+02 -0.28950693413E+02  0.64646829213E+02  0.11516951628E+03  0.77790093292E+02 0.  0.
         -6    2    1    2    0  502 -0.85781224577E+02  0.13047967862E+03  0.24652394334E+03  0.34013058716E+03  0.17473235720E+03 0.  0.
        -24    2    5    5    0    0 -0.50123079235E+02  0.44092697855E+02  0.45243293565E+02  0.11816166197E+03  0.86363960480E+02 0.  0.
          5    1    3    3  501    0  0.38926516293E+02 -0.10152898521E+03 -0.45349153414E+02  0.11790693035E+03  0.47000000000E+01 0. -1.
        -13    1    4    4    0    0  0.59978784730E+02 -0.60916118656E+01  0.20360641691E+02  0.63632680934E+02  0.00000000000E+00 0.  1.
         14    1    4    4    0    0 -0.13124076446E+02 -0.22859081548E+02  0.44286187522E+02  0.51536835342E+02  0.00000000000E+00 0. -1.
         -5    1    5    5    0  502 -0.35658145342E+02  0.86386980766E+02  0.20128064978E+03  0.22196892519E+03  0.47000000000E+01 0.  1.
         13    1    6    6    0    0 -0.68665034831E+02  0.16554134556E+02  0.12877607851E+02  0.71796651476E+02  0.00000000000E+00 0. -1.
        -14    1    6    6    0    0  0.18541955597E+02  0.27538563299E+02  0.32365685714E+02  0.46365010489E+02  0.00000000000E+00 0.  1.
</event>
<event>
12    1  0.1050869E+000  0.2316806E+03  0.7818608E-02  0.1125649E+00
         21   -1    0    0  503  502  0.00000000000E+00  0.00000000000E+00  0.66057692298E+03  0.66057692298E+03  0.00000000000E+00 0. -1.
         21   -1    0    0  501  503 -0.00000000000E+00 -0.00000000000E+00 -0.87705004909E+02  0.87705004909E+02  0.00000000000E+00 0. -1.
          6    2    1    2  501    0 -0.15446139458E+03  0.15870818962E+02  0.39017516439E+03  0.45323281095E+03  0.17050840654E+03 0.  0.
         24    2    3    3    0    0 -0.23919146003E+02 -0.20090724013E+01  0.43729392533E+02  0.82547321594E+02  0.65769587301E+02 0.  0.
         -6    2    1    2    0  502  0.15446139458E+03 -0.15870818962E+02  0.18269675368E+03  0.29504911694E+03  0.17194671352E+03 0.  0.
        -24    2    5    5    0    0  0.29906447679E+02 -0.55622281786E+02  0.95384782584E+02  0.13776089776E+03  0.76756591639E+02 0.  0.
          5    1    3    3  501    0 -0.13054224858E+03  0.17879891364E+02  0.34644577186E+03  0.37068548936E+03  0.47000000000E+01 0. -1.
        -11    1    4    4    0    0 -0.31707494612E+02  0.25807182075E+02  0.22203563953E+02  0.46522834323E+02  0.00000000000E+00 0.  1.
         12    1    4    4    0    0  0.77883486092E+01 -0.27816254476E+02  0.21525828580E+02  0.36024487272E+02  0.00000000000E+00 0. -1.
         -5    1    5    5    0  502  0.12455494691E+03  0.39751462824E+02  0.87311971098E+02  0.15728821918E+03  0.47000000000E+01 0.  1.
         11    1    6    6    0    0 -0.22083996162E+02 -0.16931284581E+02  0.54335538039E+02  0.61046883442E+02  0.00000000000E+00 0. -1.
        -12    1    6    6    0    0  0.51990443841E+02 -0.38690997205E+02  0.41049244545E+02  0.76714014321E+02  0.00000000000E+00 0.  1.
</event>
<event>
12    1  0.1050869E+000  0.3586686E+03  0.7818608E-02  0.1059156E+00
         21   -1    0    0  501  502  0.00000000000E+00  0.00000000000E+00  0.46470136354E+03  0.46470136354E+03  0.00000000000E+00 0. -1.
         21   -1    0    0  502  503 -0.00000000000E+00 -0.00000000000E+00 -0.27784467664E+03  0.27784467664E+03  0.00000000000E+00 0.  1.
         -6    2    1    2    0  503 -0.23115899747E+03 -0.21324304066E+03  0.11938302816E+03  0.37801515601E+03  0.17244150968E+03 0.  0.
        -24    2    3    3    0    0 -0.67017618187E+02 -0.20110053255E+02  0.28473442324E+02  0.10870235273E+03  0.78164500775E+02 0.  0.
          6    2    1    2  501    0  0.23115899747E+03  0.21324304066E+03  0.67473658736E+02  0.36453088417E+03  0.17153132190E+03 0.  0.
         24    2    5    5    0    0  0.19214170509E+03  0.21074883722E+03  0.11959932552E+02  0.29646889808E+03  0.80107804377E+02 0.  0.
          5    1    5    5  501    0  0.39017292384E+02  0.24942034400E+01  0.55513726184E+02  0.68061986091E+02  0.47000000000E+01 0. -1.
        -11    1    6    6    0    0  0.47889889293E+02  0.11306407856E+02  0.10540955994E+02  0.50322838835E+02  0.00000000000E+00 0.  1.
         12    1    6    6    0    0  0.14425181579E+03  0.19944242936E+03  0.14189765583E+01  0.24614605925E+03  0.00000000000E+00 0. -1.
         -5    1    3    3    0  503 -0.16414137928E+03 -0.19313298740E+03  0.90909585841E+02  0.26931280328E+03  0.47000000000E+01 0.  1.
         11    1    4    4    0    0 -0.38754114286E+02 -0.23796250304E+02  0.53889154443E+02  0.70513714051E+02  0.00000000000E+00 0. -1.
        -12    1    4    4    0    0 -0.28263503901E+02  0.36861970484E+01 -0.25415712120E+02  0.38188638677E+02  0.00000000000E+00 0.  1.
</event>
<event>
12    1  0.1050869E+000  0.1974223E+03  0.7818608E-02  0.1152436E+00
         21   -1    0    0  503  502  0.00000000000E+00  0.00000000000E+00  0.56508061518E+02  0.56508061518E+02  0.00000000000E+00 0. -1.
         21   -1    0    0  501  503 -0.00000000000E+00 -0.00000000000E+00 -0.72118489533E+03  0.72118489533E+03  0.00000000000E+00 0. -1.
          6    2    1    2  501    0  0.58767254925E+02 -0.75361138800E+02 -0.42528753680E+03  0.46887637028E+03  0.17275031160E+03 0.  0.
         24    2    3    3    0    0 -0.79913933534E+01 -0.35901080883E+02 -0.34980116884E+03  0.36055234230E+03  0.79274105716E+02 0.  0.
         -6    2    1    2    0  502 -0.58767254925E+02  0.75361138800E+02 -0.23938929701E+03  0.30881658657E+03  0.17008103105E+03 0.  0.
        -24    2    5    5    0    0 -0.76669732632E+02 -0.70610595080E+01 -0.12926306504E+03  0.17002251447E+03  0.79187176862E+02 0.  0.
          5    1    3    3  501    0  0.66758648279E+02 -0.39460057917E+02 -0.75486367958E+02  0.10832402798E+03  0.47000000000E+01 0. -1.
        -13    1    4    4    0    0  0.35269736110E+02 -0.23502815352E+02 -0.17154549112E+03  0.17670368456E+03  0.00000000000E+00 0.  1.
         14    1    4    4    0    0 -0.43261129463E+02 -0.12398265531E+02 -0.17825567772E+03  0.18384865773E+03  0.00000000000E+00 0. -1.
         -5    1    5    5    0  502  0.17902477706E+02  0.82422198308E+02 -0.11012623197E+03  0.13879407210E+03  0.47000000000E+01 0.  1.
         11    1    6    6    0    0  0.12838405969E+02 -0.13834281624E+02 -0.35581980393E+02  0.40277653166E+02  0.00000000000E+00 0. -1.
        -12    1    6    6    0    0 -0.89508138601E+02  0.67732221158E+01 -0.93681084649E+02  0.12974486130E+03  0.00000000000E+00 0.  1.
</event>
<event>
12    1  0.1050869E+000  0.3971339E+03  0.7818608E-02  0.1044819E+00
         21   -1    0    0  503  502  0.00000000000E+00  0.00000000000E+00  0.12231739933E+04  0.12231739933E+04  0.00000000000E+00 0. -1.
         21   -1    0    0  501  503 -0.00000000000E+00 -0.00000000000E+00 -0.32544026809E+03  0.32544026809E+03  0.00000000000E+00 0.  1.
          6    2    1    2  501    0  0.30982685911E+03 -0.17847827550E+03 -0.15293694628E+03  0.42556437363E+03  0.17282404092E+03 0.  0.
         24    2    3    3    0    0  0.15094682300E+03 -0.67876528989E+02 -0.34509969317E+02  0.19857835847E+03  0.10416458089E+03 0.  0.
         -6    2    1    2    0  502 -0.30982685911E+03  0.17847827550E+03  0.10506706715E+04  0.11230498877E+04  0.17171200601E+03 0.  0.
        -24    2    5    5    0    0 -0.67210436662E+02  0.23103655243E+02  0.23522203017E+03  0.25819002761E+03  0.79256956780E+02 0.  0.
          5    1    3    3  501    0  0.15888003611E+03 -0.11060174651E+03 -0.11842697696E+03  0.22698601516E+03  0.47000000000E+01 0. -1.
        -13    1    4    4    0    0  0.55949625670E+01 -0.26589044561E+02 -0.38856047659E+02  0.47413851736E+02  0.00000000000E+00 0.  1.
         14    1    4    4    0    0  0.14535186043E+03 -0.41287484429E+02  0.43460783417E+01  0.15116450674E+03  0.00000000000E+00 0. -1.
         -5    1    5    5    0  502 -0.24261642245E+03  0.15537462025E+03  0.81544864131E+03  0.86485986014E+03  0.47000000000E+01 0.  1.
         13    1    6    6    0    0 -0.84330051638E+01  0.31645164066E+02  0.29539364223E+02  0.44103356148E+02  0.00000000000E+00 0. -1.
        -14    1    6    6    0    0 -0.58777431499E+02 -0.85415088225E+01  0.20568266594E+03  0.21408667146E+03  0.00000000000E+00 0.  1.
</event>
<event>
12    1  0.1050869E+000  0.4800578E+03  0.7818608E-02  0.1019155E+00
         21   -1    0    0  503  502  0.00000000000E+00  0.00000000000E+00  0.84898429370E+03  0.84898429370E+03  0.00000000000E+00 0.  1.
         21   -1    0    0  501  503 -0.00000000000E+00 -0.00000000000E+00 -0.44722462613E+03  0.44722462613E+03  0.00000000000E+00 0.  1.
          6    2    1    2  501    0  0.39087471912E+03 -0.21825983682E+03 -0.20571131875E+03  0.52227635735E+03  0.17330621562E+03 0.  0.
         24    2    3    3    0    0  0.33832388766E+03 -0.21922084742E+03 -0.13059648851E+03  0.43047852977E+03  0.75733010439E+02 0.  0.
         -6    2    1    2    0  502 -0.39087471912E+03  0.21825983682E+03  0.60747098632E+03  0.77393256248E+03  0.17184356149E+03 0.  0.
        -24    2    5    5    0    0 -0.36842524635E+03  0.23091268812E+03  0.60205712232E+03  0.74718422801E+03  0.82180656898E+02 0.  0.
          5    1    3    3  501    0  0.52550831461E+02  0.96101060515E+00 -0.75114830236E+02  0.91797827589E+02  0.47000000000E+01 0. -1.
        -11    1    4    4    0    0  0.22382270201E+03 -0.18232712028E+03 -0.76985698458E+02  0.29877513030E+03  0.00000000000E+00 0.  1.
         12    1    4    4    0    0  0.11450118565E+03 -0.36893727148E+02 -0.53610790057E+02  0.13170339946E+03  0.00000000000E+00 0. -1.
         -5    1    5    5    0  502 -0.22449472768E+02 -0.12652851296E+02  0.54138640051E+01  0.26748334470E+02  0.47000000000E+01 0.  1.
         11    1    6    6    0    0 -0.26455824754E+03  0.17376913466E+03  0.37245562563E+03  0.48878417688E+03  0.00000000000E+00 0. -1.
        -12    1    6    6    0    0 -0.10386699882E+03  0.57143553456E+02  0.22960149668E+03  0.25840005113E+03  0.00000000000E+00 0.  1.
</event>
<event>
12    1  0.1050869E+000  0.2379783E+03  0.7818608E-02  0.1121147E+00
         21   -1    0    0  501  502  0.00000000000E+00  0.00000000000E+00  0.28606134322E+04  0.28606134322E+04  0.00000000000E+00 0. -1.
         21   -1    0    0  502  503 -0.00000000000E+00 -0.00000000000E+00 -0.25048681976E+02  0.25048681976E+02  0.00000000000E+00 0. -1.
         -6    2    1    2    0  503  0.14455453186E+03 -0.79906486717E+02  0.20783997587E+04  0.20919797421E+04  0.17132607798E+03 0.  0.
        -24    2    3    3    0    0  0.72035990957E+02 -0.42588522932E+01  0.57913624289E+03  0.58905104010E+03  0.79843711119E+02 0.  0.
          6    2    1    2  501    0 -0.14455453186E+03  0.79906486717E+02  0.75716499147E+03  0.79368237205E+03  0.17132374058E+03 0.  0.
         24    2    5    5    0    0 -0.75979812514E+02 -0.11607085081E+02  0.23760641881E+03  0.26166693394E+03  0.78135252763E+02 0.  0.
          5    1    5    5  501    0 -0.68574719345E+02  0.91513571798E+02  0.51955857266E+03  0.53201543811E+03  0.47000000000E+01 0. -1.
        -13    1    6    6    0    0 -0.40709820389E+02 -0.12077840070E+02  0.32299225483E+02  0.53351697852E+02  0.00000000000E+00 0.  1.
         14    1    6    6    0    0 -0.35269992125E+02  0.47075498929E+00  0.20530719333E+03  0.20831523609E+03  0.00000000000E+00 0. -1.
         -5    1    3    3    0  503  0.72518540902E+02 -0.75647634424E+02  0.14992635159E+04  0.15029287020E+04  0.47000000000E+01 0.  1.
         13    1    4    4    0    0 -0.43220245123E+01  0.25258461800E+02  0.15082421255E+03  0.15298566233E+03  0.00000000000E+00 0. -1.
        -14    1    4    4    0    0  0.76358015469E+02 -0.29517314093E+02  0.42831203034E+03  0.43606537777E+03  0.00000000000E+00 0.  1.
</event>
<event>
12    1  0.1050869E+000  0.2197308E+03  0.7818608E-02  0.1134459E+00
         21   -1    0    0  503  502  0.00000000000E+00  0.00000000000E+00  0.12740828109E+03  0.12740828109E+03  0.00000000000E+00 0. -1.
         21   -1    0    0  501  503 -0.00000000000E+00 -0.00000000000E+00 -0.39825861957E+03  0.39825861957E+03  0.00000000000E+00 0. -1.
          6    2    1    2  501    0 -0.32571883103E+02 -0.12870244585E+03 -0.73193052188E+02  0.23160061476E+03  0.17508961915E+03 0.  0.
         24    2    3    3    0    0 -0.89552647761E+02 -0.89223843635E+02 -0.36122130852E+02  0.15284967329E+03  0.77959241237E+02 0.  0.
         -6    2    1    2    0  502  0.32571883103E+02  0.12870244585E+03 -0.19765728629E+03  0.29406628589E+03  0.17257268190E+03 0.  0.
        -24    2    5    5    0    0 -0.14243029273E+02  0.22669742330E+02 -0.29921978740E+02  0.90125623845E+02  0.80687806771E+02 0.  0.
          5    1    3    3  501    0  0.56980764658E+02 -0.39478602214E+02 -0.37070921336E+02  0.78750941470E+02  0.47000000000E+01 0. -1.
        -11    1    4    4    0    0 -0.89197439080E+02 -0.68981319922E+02 -0.15311209874E+01  0.11276945494E+03  0.00000000000E+00 0.  1.
         12    1    4    4    0    0 -0.35520868150E+00 -0.20242523713E+02 -0.34591009865E+02  0.40080218350E+02  0.00000000000E+00 0. -1.
         -5    1    5    5    0  502  0.46814912376E+02  0.10603270352E+03 -0.16773530755E+03  0.20394066205E+03  0.47000000000E+01 0.  1.
         13    1    6    6    0    0  0.24538814755E+02 -0.15349231047E+02 -0.18818423382E+01  0.29005062556E+02  0.00000000000E+00 0. -1.
        -14    1    6    6    0    0 -0.38781844028E+02  0.38018973377E+02 -0.28040136402E+02  0.61120561289E+02  0.00000000000E+00 0.  1.
</event>
<event>
12    1  0.1050869E+000  0.3989945E+03  0.7818608E-02  0.1044275E+00
         21   -1    0    0  501  502  0.00000000000E+00  0.00000000000E+00  0.13569145133E+03  0.13569145133E+03  0.00000000000E+00 0. -1.
         21   -1    0    0  502  503 -0.00000000000E+00 -0.00000000000E+00 -0.14827558888E+04  0.14827558888E+04  0.00000000000E+00 0.  1.
         -6    2    1    2    0  503  0.28734130453E+03 -0.21416056090E+03 -0.29973551393E+03  0.49769113841E+03  0.17153810016E+03 0.  0.
        -24    2    3    3    0    0  0.19246192272E+03 -0.18512559081E+03 -0.14645807379E+03  0.31504067924E+03  0.80545553097E+02 0.  0.
          6    2    1    2  501    0 -0.28734130453E+03  0.21416056090E+03 -0.10473289236E+04  0.11207562018E+04  0.17540472763E+03 0.  0.
         24    2    5    5    0    0 -0.23383563921E+03  0.17373696088E+03 -0.97965723912E+03  0.10253702985E+04  0.82415442599E+02 0.  0.
          5    1    5    5  501    0 -0.53505665312E+02  0.40423600026E+02 -0.67671684466E+02  0.95385903245E+02  0.47000000000E+01 0. -1.
        -11    1    6    6    0    0 -0.98804481526E+02  0.25685850336E+02 -0.31017826389E+03  0.32654654165E+03  0.00000000000E+00 0.  1.
         12    1    6    6    0    0 -0.13503115769E+03  0.14805111054E+03 -0.66947897523E+03  0.69882375686E+03  0.00000000000E+00 0. -1.
         -5    1    3    3    0  503  0.94879381802E+02 -0.29034970093E+02 -0.15327744015E+03  0.18265045918E+03  0.47000000000E+01 0.  1.
         11    1    4    4    0    0  0.15241812511E+03 -0.98605908550E+02 -0.77531045622E+02  0.19739674035E+03  0.00000000000E+00 0. -1.
        -12    1    4    4    0    0  0.40043797611E+02 -0.86519682262E+02 -0.68927028165E+02  0.11764393889E+03  0.00000000000E+00 0.  1.
</event>
<event>
12    1  0.1050869E+000  0.2606734E+03  0.7818608E-02  0.1106907E+00
         21   -1    0    0  501  502  0.00000000000E+00  0.00000000000E+00  0.61546886026E+03  0.61546886026E+03  0.00000000000E+00 0.  1.
         21   -1    0    0  502  503 -0.00000000000E+00 -0.00000000000E+00 -0.12047490714E+03  0.12047490714E+03  0.00000000000E+00 0.  1.
         -6    2    1    2    0  503 -0.10769284381E+03 -0.15887419569E+03  0.35682999893E+03  0.44190299552E+03  0.17638551712E+03 0.  0.
        -24    2    3    3    0    0  0.12994687663E+02 -0.61319345353E+02  0.17387477053E+03  0.20195063634E+03  0.81379970941E+02 0.  0.
          6    2    1    2  501    0  0.10769284381E+03  0.15887419569E+03  0.13816395420E+03  0.29404077188E+03  0.17473390806E+03 0.  0.
         24    2    5    5    0    0  0.13000813705E+02  0.65461493387E+02  0.29198481761E+01  0.10428943004E+03  0.80084526792E+02 0.  0.
          5    1    5    5  501    0  0.94692030100E+02  0.93412702301E+02  0.13524410602E+03  0.18975134184E+03  0.47000000000E+01 0. -1.
        -13    1    6    6    0    0  0.26369574831E+02  0.29402733926E+02  0.36091792415E+02  0.53502268352E+02  0.00000000000E+00 0.  1.
         14    1    6    6    0    0 -0.13368761125E+02  0.36058759462E+02 -0.33171944238E+02  0.50787161690E+02  0.00000000000E+00 0. -1.
         -5    1    3    3    0  503 -0.12068753147E+03 -0.97554850335E+02  0.18295522840E+03  0.23995235917E+03  0.47000000000E+01 0.  1.
         13    1    4    4    0    0  0.46277708156E+02 -0.48311821225E+02  0.10935079684E+03  0.12819225839E+03  0.00000000000E+00 0. -1.
        -14    1    4    4    0    0 -0.33283020493E+02 -0.13007524128E+02  0.64523973695E+02  0.73758377954E+02  0.00000000000E+00 0.  1.
</event>
<event>
12    1  0.1050869E+000  0.1890341E+03  0.7818608E-02  0.1159586E+00
         21   -1    0    0  503  502  0.00000000000E+00  0.00000000000E+00  0.47357897282E+03  0.47357897282E+03  0.00000000000E+00 0.  1.
         21   -1    0    0  501  503 -0.00000000000E+00 -0.00000000000E+00 -0.75752584431E+02  0.75752584431E+02  0.00000000000E+00 0.  1.
          6    2    1    2  501    0 -0.52492811838E+02 -0.59405260052E+02  0.17240228022E+03  0.25584458864E+03  0.17160835380E+03 0.  0.
         24    2    3    3    0    0 -0.10121079024E+03 -0.34664024505E+02  0.13268115559E+03  0.18812880098E+03  0.79642564327E+02 0.  0.
         -6    2    1    2    0  502  0.52492811838E+02  0.59405260052E+02  0.22542410817E+03  0.29348696861E+03  0.17039393178E+03 0.  0.
        -24    2    5    5    0    0  0.70173325617E+02  0.97721228855E+02  0.16687097522E+03  0.22115942607E+03  0.81190117450E+02 0.  0.
          5    1    3    3  501    0  0.48717978404E+02 -0.24741235547E+02  0.39721124638E+02  0.67715787662E+02  0.47000000000E+01 0. -1.
        -11    1    4    4    0    0 -0.42538798111E+02 -0.20879075791E+02  0.59016679444E+01  0.47752642180E+02  0.00000000000E+00 0.  1.
         12    1    4    4    0    0 -0.58671992132E+02 -0.13784948713E+02  0.12677948764E+03  0.14037615880E+03  0.00000000000E+00 0. -1.
         -5    1    5    5    0  502 -0.17680513779E+02 -0.38315968803E+02  0.58553132946E+02  0.72327542545E+02  0.47000000000E+01 0.  1.
         13    1    6    6    0    0  0.63913735875E+02  0.24719887403E+02  0.57188612013E+02  0.89255676630E+02  0.00000000000E+00 0. -1.
        -14    1    6    6    0    0  0.62595897422E+01  0.73001341452E+02  0.10968236321E+03  0.13190374944E+03  0.00000000000E+00 0.  1.
</event>
<event>
12    1  0.1050869E+000  0.1933168E+03  0.7818608E-02  0.1156581E+00
         21   -1    0    0  501  502  0.00000000000E+00  0.00000000000E+00  0.55966655963E+03  0.55966655963E+03  0.00000000000E+00 0. -1.
         21   -1    0    0  502  503 -0.00000000000E+00 -0.00000000000E+00 -0.89325243515E+02  0.89325243515E+02  0.00000000000E+00 0. -1.
         -6    2    1    2    0  503  0.37321898232E+02 -0.77926848985E+02  0.68424960954E+02  0.20506913214E+03  0.17293309630E+03 0.  0.
        -24    2    3    3    0    0  0.79714390499E+02 -0.24056359843E+02  0.69777132782E+02  0.13634452687E+03  0.82388647561E+02 0.  0.
          6    2    1    2  501    0 -0.37321898232E+02  0.77926848985E+02  0.40191635516E+03  0.44392267100E+03  0.16752630660E+03 0.  0.
         24    2    5    5    0    0  0.33917001169E+02  0.40347785579E+02  0.13081780862E+03  0.16107345546E+03  0.77801363956E+02 0.  0.
          5    1    5    5  501    0 -0.71238899402E+02  0.37579063407E+02  0.27109854654E+03  0.28284921554E+03  0.47000000000E+01 0. -1.
        -11    1    6    6    0    0  0.10422544494E+02 -0.18984337605E+02  0.88018911977E+01  0.23377506212E+02  0.00000000000E+00 0.  1.
         12    1    6    6    0    0  0.23494456675E+02  0.59332123183E+02  0.12201591742E+03  0.13769594925E+03  0.00000000000E+00 0. -1.
         -5    1    3    3    0  503 -0.42392492267E+02 -0.53870489142E+02 -0.13521718277E+01  0.68724605271E+02  0.47000000000E+01 0.  1.
         13    1    4    4    0    0 -0.16330273928E+02 -0.58968947035E+01  0.20548042571E+02  0.26901175945E+02  0.00000000000E+00 0. -1.
        -14    1    4    4    0    0  0.96044664427E+02 -0.18159465140E+02  0.49229090211E+02  0.10944335093E+03  0.00000000000E+00 0.  1.
</event>
<event>
12    1  0.1050869E+000  0.2002179E+03  0.7818608E-02  0.1149574E+00
         21   -1    0    0  503  502  0.00000000000E+00  0.00000000000E+00  0.19433489853E+03  0.19433489853E+03  0.00000000000E+00 0. -1.
         21   -1    0    0  501  503 -0.00000000000E+00 -0.00000000000E+00 -0.32713070460E+03  0.32713070460E+03  0.00000000000E+00 0. -1.
          6    2    1    2  501    0  0.10231166932E+03  0.84067756097E+01  0.92126884341E+02  0.22039637484E+03  0.17189778262E+03 0.  0.
         24    2    3    3    0    0  0.45868319618E+02  0.68018255666E+02  0.73396553169E+02  0.13606194779E+03  0.79971330937E+02 0.  0.
         -6    2    1    2    0  502 -0.10231166932E+03 -0.84067756097E+01 -0.22492269042E+03  0.30106922828E+03  0.17179671708E+03 0.  0.
        -24    2    5    5    0    0 -0.84142956588E+02  0.40346811983E+02 -0.80354443522E+02  0.14735168720E+03  0.80918358532E+02 0.  0.
          5    1    3    3  501    0  0.56443349699E+02 -0.59611480056E+02  0.18730331173E+02  0.84334427048E+02  0.47000000000E+01 0. -1.
        -11    1    4    4    0    0  0.62943615628E+02  0.31192934332E+02  0.62514666570E+02  0.94037127971E+02  0.00000000000E+00 0.  1.
         12    1    4    4    0    0 -0.17075296011E+02  0.36825321334E+02  0.10881886599E+02  0.42024819823E+02  0.00000000000E+00 0. -1.
         -5    1    5    5    0  502 -0.18168712729E+02 -0.48753587593E+02 -0.14456824689E+03  0.15371754108E+03  0.47000000000E+01 0.  1.
         11    1    6    6    0    0 -0.78921407160E+02 -0.26750280690E+01 -0.61501976231E+02  0.10009114528E+03  0.00000000000E+00 0. -1.
        -12    1    6    6    0    0 -0.52215494277E+01  0.43021840052E+02 -0.18852467291E+02  0.47260541923E+02  0.00000000000E+00 0.  1.
</event>
<event>
12    1  0.1050869E+000  0.1822277E+03  0.7818608E-02  0.1166019E+00
         21   -1    0    0  503  502  0.00000000000E+00  0.00000000000E+00  0.17515336825E+03  0.17515336825E+03  0.00000000000E+00 0.  1.
         21   -1    0    0  501  503 -0.00000000000E+00 -0.00000000000E+00 -0.19027234896E+03  0.19027234896E+03  0.00000000000E+00 0.  1.
          6    2    1    2  501    0 -0.24133471225E+02 -0.53191189072E+02  0.12234428621E+02  0.18115647050E+03  0.17104460977E+03 0.  0.
         24    2    3    3    0    0 -0.57980538421E+02 -0.75348925387E+02 -0.23515480524E+02  0.12696481764E+03  0.80795319792E+02 0.  0.
         -6    2    1    2    0  502  0.24133471225E+02  0.53191189072E+02 -0.27353409334E+02  0.18426924671E+03  0.17261291740E+03 0.  0.
        -24    2    5    5    0    0  0.75370009788E+02  0.36802190952E+02 -0.59734226416E+02  0.12130584895E+03  0.64124032536E+02 0.  0.
          5    1    3    3  501    0  0.33847067196E+02  0.22157736315E+02  0.35749909145E+02  0.54191652865E+02  0.47000000000E+01 0. -1.
        -11    1    4    4    0    0 -0.11933540130E+02 -0.28006920544E+02 -0.47739251438E+02  0.56620076883E+02  0.00000000000E+00 0.  1.
         12    1    4    4    0    0 -0.46046998291E+02 -0.47342004843E+02  0.24223770914E+02  0.70344740752E+02  0.00000000000E+00 0. -1.
         -5    1    5    5    0  502 -0.51236538563E+02  0.16388998120E+02  0.32380817082E+02  0.62963397765E+02  0.47000000000E+01 0.  1.
         13    1    6    6    0    0  0.11704442980E+01  0.29454240755E+02 -0.26629305074E+02  0.39724578374E+02  0.00000000000E+00 0. -1.
        -14    1    6    6    0    0  0.74199565490E+02  0.73479501964E+01 -0.33104921342E+02  0.81581270572E+02  0.00000000000E+00 0.  1.
</event>
<event>
12    1  0.1050869E+000  0.2458967E+03  0.7818608E-02  0.1116169E+00
         21   -1    0    0  501  502  0.00000000000E+00  0.00000000000E+00  0.59590585100E+03  0.59590585100E+03  0.00000000000E+00 0.  1.
         21   -1    0    0  502  503 -0.00000000000E+00 -0.00000000000E+00 -0.10219092949E+03  0.10219092949E+03  0.00000000000E+00 0.  1.
         -6    2    1    2    0  503  0.49070339133E+02  0.16841231665E+03  0.20611229088E+03  0.31970484221E+03  0.17017139330E+03 0.  0.
        -24    2    3    3    0    0  0.91256896220E+02  0.15872802626E+03  0.14834571293E+03  0.24736841565E+03  0.75248090264E+02 0.  0.
          6    2    1    2  501    0 -0.49070339133E+02 -0.16841231665E+03  0.28760263063E+03  0.37839193828E+03  0.17232115142E+03 0.  0.
         24    2    5    5    0    0 -0.12557365735E+02 -0.19463413107E+02  0.15568332625E+03  0.17604627867E+03  0.78857353994E+02 0.  0.
          5    1    5    5  501    0 -0.36512973398E+02 -0.14894890355E+03  0.13191930439E+03  0.20234565961E+03  0.47000000000E+01 0. -1.
        -11    1    6    6    0    0  0.15804267582E+02  0.23282479005E+02  0.78305117470E+02  0.83207812881E+02  0.00000000000E+00 0.  1.
         12    1    6    6    0    0 -0.28361633317E+02 -0.42745892113E+02  0.77378208777E+02  0.92838465791E+02  0.00000000000E+00 0. -1.
         -5    1    3    3    0  503 -0.42186557087E+02  0.96842903899E+01  0.57766577951E+02  0.72336426560E+02  0.47000000000E+01 0.  1.
         11    1    4    4    0    0  0.50314595404E+02  0.14277670811E+03  0.97025079616E+02  0.17980715493E+03  0.00000000000E+00 0. -1.
        -12    1    4    4    0    0  0.40942300816E+02  0.15951318156E+02  0.51320633311E+02  0.67561260723E+02  0.00000000000E+00 0.  1.
</event>
<event>
12    1  0.1050869E+000  0.2028219E+03  0.7818608E-02  0.1147648E+00
         21   -1    0    0  503  502  0.00000000000E+00  0.00000000000E+00  0.41862858383E+03  0.41862858383E+03  0.00000000000E+00 0. -1.
         21   -1    0    0  501  503 -0.00000000000E+00 -0.00000000000E+00 -0.12273843731E+03  0.12273843731E+03  0.00000000000E+00 0. -1.
          6    2    1    2  501    0 -0.80669844148E+02  0.70526884990E+02  0.25165943593E+02  0.20309446183E+03  0.17068207418E+03 0.  0.
         24    2    3    3    0    0  0.62238520049E+01 -0.58430202778E+01  0.36430444342E+02  0.86767956515E+02  0.78285527290E+02 0.  0.
         -6    2    1    2    0  502  0.80669844148E+02 -0.70526884990E+02  0.27072420292E+03  0.33827255930E+03  0.17220646059E+03 0.  0.
        -24    2    5    5    0    0 -0.14866543391E+02 -0.69186871598E+02  0.15289484159E+03  0.18650021211E+03  0.79985368783E+02 0.  0.
          5    1    3    3  501    0 -0.86893696153E+02  0.76369905268E+02 -0.11264500748E+02  0.11632650532E+03  0.47000000000E+01 0. -1.
        -13    1    4    4    0    0  0.24202489437E+02  0.26529833255E+02  0.16241991635E+01  0.35947608689E+02  0.00000000000E+00 0.  1.
         14    1    4    4    0    0 -0.17978637432E+02 -0.32372853533E+02  0.34806245178E+02  0.50820347826E+02  0.00000000000E+00 0. -1.
         -5    1    5    5    0  502  0.95536387539E+02 -0.13400133926E+01  0.11782936133E+03  0.15177234719E+03  0.47000000000E+01 0.  1.
         13    1    6    6    0    0 -0.35925955609E+02 -0.21538735293E+01  0.43145591960E+02  0.56185901818E+02  0.00000000000E+00 0. -1.
        -14    1    6    6    0    0  0.21059412218E+02 -0.67032998068E+02  0.10974924963E+03  0.13031431029E+03  0.00000000000E+00 0.  1.
</event>
<event>
12    1  0.1050869E+000  0.2701462E+03  0.7818608E-02  0.1101332E+00
         21   -1    0    0  501  502  0.00000000000E+00  0.00000000000E+00  0.29518172380E+03  0.29518172380E+03  0.00000000000E+00 0.  1.
         21   -1    0    0  502  503 -0.00000000000E+00 -0.00000000000E+00 -0.26285035490E+03  0.26285035490E+03  0.00000000000E+00 0. -1.
         -6    2    1    2    0  503 -0.12285094517E+03 -0.16736246989E+03  0.86017308735E+02  0.28260305458E+03  0.17135623128E+03 0.  0.
        -24    2    3    3    0    0 -0.13653687124E+02 -0.16316133486E+02  0.17427539536E+02  0.83943337109E+02  0.79310310343E+02 0.  0.
          6    2    1    2  501    0  0.12285094517E+03  0.16736246989E+03 -0.53685939832E+02  0.27542902412E+03  0.17284795669E+03 0.  0.
         24    2    5    5    0    0  0.12616944096E+03  0.17583711948E+03 -0.97173518635E+01  0.23028305168E+03  0.78092487121E+02 0.  0.
          5    1    5    5  501    0 -0.33184957859E+01 -0.84746495844E+01 -0.43968587968E+02  0.45145972442E+02  0.47000000000E+01 0. -1.
        -13    1    6    6    0    0  0.90344307238E+02  0.71278007406E+02  0.17641398170E+02  0.11642107678E+03  0.00000000000E+00 0.  1.
         14    1    6    6    0    0  0.35825133721E+02  0.10455911207E+03 -0.27358750034E+02  0.11386197489E+03  0.00000000000E+00 0. -1.
         -5    1    3    3    0  503 -0.10919725805E+03 -0.15104633641E+03  0.68589769199E+02  0.19865971747E+03  0.47000000000E+01 0.  1.
         13    1    4    4    0    0 -0.42519027616E+02 -0.10430560823E+02 -0.86197214274E+01  0.44620218578E+02  0.00000000000E+00 0. -1.
        -14    1    4    4    0    0  0.28865340492E+02 -0.58855726622E+01  0.26047260963E+02  0.39323118531E+02  0.00000000000E+00 0.  1.
</event>
<event>
12    1  0.1050869E+000  0.1862414E+03  0.7818608E-02  0.1162089E+00
         21   -1    0    0  501  502  0.00000000000E+00  0.00000000000E+00  0.54634960513E+03  0.54634960513E+03  0.00000000000E+00 0. -1.
         21   -1    0    0  502  503 -0.00000000000E+00 -0.00000000000E+00 -0.63225852494E+02  0.63225852494E+02  0.00000000000E+00 0. -1.
         -6    2    1    2    0  503 -0.10699664512E+02 -0.70156055050E+02  0.23624163170E+03  0.30082550097E+03  0.17219035572E+03 0.  0.
        -24    2    3    3    0    0 -0.19245654355E+02 -0.61674495740E+02  0.50266464177E+02  0.11440172640E+03  0.79918076460E+02 0.  0.
          6    2    1    2  501    0  0.10699664512E+02  0.70156055050E+02  0.24688212093E+03  0.30874995665E+03  0.17128747536E+03 0.  0.
         24    2    5    5    0    0  0.26787634023E+02  0.94021945954E+02  0.10758880510E+03  0.16643649507E+03  0.81043520725E+02 0.  0.
          5    1    5    5  501    0 -0.16087969511E+02 -0.23865890904E+02  0.13929331583E+03  0.14231346157E+03  0.47000000000E+01 0. -1.
        -11    1    6    6    0    0  0.36307980323E-01  0.98041812594E+02  0.95290682023E+02  0.13672056325E+03  0.00000000000E+00 0.  1.
         12    1    6    6    0    0  0.26751326043E+02 -0.40198666404E+01  0.12298123080E+02  0.29715931824E+02  0.00000000000E+00 0. -1.
         -5    1    3    3    0  503  0.85459898434E+01 -0.84815593096E+01  0.18597516753E+03  0.18642377458E+03  0.47000000000E+01 0.  1.
         11    1    4    4    0    0  0.12224336692E+02 -0.60918878802E+02  0.54488193464E+02  0.82640833908E+02  0.00000000000E+00 0. -1.
        -12    1    4    4    0    0 -0.31469991047E+02 -0.75561693785E+00 -0.42217292869E+01  0.31760892488E+02  0.00000000000E+00 0.  1.
</event>
<event>
12    1  0.1050869E+000  0.1791952E+03  0.7818608E-02  0.1169939E+00
         21   -1    0    0  503  502  0.00000000000E+00  0.00000000000E+00  0.18669654617E+04  0.18669654617E+04  0.00000000000E+00 0. -1.
         21   -1    0    0  501  503 -0.00000000000E+00 -0.00000000000E+00 -0.31473912363E+02  0.31473912363E+02  0.00000000000E+00 0. -1.
          6    2    1    2  501    0  0.19318716564E+02  0.18163276974E+02  0.15609796736E+04  0.15706166984E+04  0.17168620935E+03 0.  0.
         24    2    3    3    0    0 -0.40499364683E+02  0.52780352818E+02  0.10718309040E+04  0.10765871916E+04  0.76108673535E+02 0.  0.
         -6    2    1    2    0  502 -0.19318716564E+02 -0.18163276974E+02  0.27451187578E+03  0.32782267570E+03  0.17722251358E+03 0.  0.
        -24    2    5    5    0    0 -0.48016005185E+01  0.38365475046E+02  0.24902519455E+03  0.26396418070E+03  0.78540283479E+02 0.  0.
          5    1    3    3  501    0  0.59818081247E+02 -0.34617075844E+02  0.48914876954E+03  0.49402950674E+03  0.47000000000E+01 0. -1.
        -13    1    4    4    0    0 -0.43477840863E+02  0.31411427812E+00  0.32278203854E+03  0.32569719943E+03  0.00000000000E+00 0.  1.
         14    1    4    4    0    0  0.29784761799E+01  0.52466238540E+02  0.74904886549E+03  0.75088999220E+03  0.00000000000E+00 0. -1.
         -5    1    5    5    0  502 -0.14517116046E+02 -0.56528752020E+02  0.25486681227E+02  0.63858494996E+02  0.47000000000E+01 0.  1.
         11    1    6    6    0    0 -0.40105351413E+02  0.12753183718E+02  0.95455211273E+02  0.10432056492E+03  0.00000000000E+00 0. -1.
        -12    1    6    6    0    0  0.35303750895E+02  0.25612291327E+02  0.15356998328E+03  0.15964361578E+03  0.00000000000E+00 0.  1.
</event>
<event>
12    1  0.1050869E+000  0.1740261E+03  0.7818608E-02  0.1174603E+00
         21   -1    0    0  503  502  0.00000000000E+00  0.00000000000E+00  0.15711739792E+03  0.15711739792E+03  0.00000000000E+00 0. -1.
         21   -1    0    0  501  503 -0.00000000000E+00 -0.00000000000E+00 -0.39141256123E+03  0.39141256123E+03  0.00000000000E+00 0. -1.
          6    2    1    2  501    0 -0.23540333906E+02  0.12325502750E+02 -0.31498368422E+03  0.35986081570E+03  0.17198552268E+03 0.  0.
         24    2    3    3    0    0 -0.77464717428E+02  0.87232730629E+01 -0.26340442346E+03  0.28500545291E+03  0.75956171269E+02 0.  0.
         -6    2    1    2    0  502  0.23540333906E+02 -0.12325502750E+02  0.80688520902E+02  0.18866914345E+03  0.16846169579E+03 0.  0.
        -24    2    5    5    0    0  0.20706885421E+02 -0.71751828090E+02  0.39779093554E+02  0.11631454568E+03  0.79809757008E+02 0.  0.
          5    1    3    3  501    0  0.53924383522E+02  0.36022296866E+01 -0.51579260761E+02  0.74855362785E+02  0.47000000000E+01 0. -1.
        -11    1    4    4    0    0  0.13068040586E+01 -0.18018954256E+02 -0.10027943446E+03  0.10189384390E+03  0.00000000000E+00 0.  1.
         12    1    4    4    0    0 -0.78771521486E+02  0.26742227319E+02 -0.16312498900E+03  0.18311160901E+03  0.00000000000E+00 0. -1.
         -5    1    5    5    0  502  0.28334484848E+01  0.59426325340E+02  0.40909427349E+02  0.72354597779E+02  0.47000000000E+01 0.  1.
         13    1    6    6    0    0  0.49049860245E+02 -0.30607520506E+02  0.30948660656E+02  0.65578416403E+02  0.00000000000E+00 0. -1.
        -14    1    6    6    0    0 -0.28342974824E+02 -0.41144307584E+02  0.88304328977E+01  0.50736129272E+02  0.00000000000E+00 0.  1.
</event>
<event>
12    1  0.1050869E+000  0.3121927E+03  0.7818608E-02  0.1079399E+00
         21   -1    0    0  503  502  0.00000000000E+00  0.00000000000E+00  0.94913109257E+03  0.94913109257E+03  0.00000000000E+00 0. -1.
         21   -1    0    0  501  503 -0.00000000000E+00 -0.00000000000E+00 -0.24567171004E+03  0.24567171004E+03  0.00000000000E+00 0. -1.
          6    2    1    2  501    0  0.26103600010E+03 -0.90628693614E+01  0.80812147292E+03  0.86632821919E+03  0.17100391638E+03 0.  0.
         24    2    3    3    0    0  0.88938272709E+02  0.19549199810E+02  0.47664519532E+03  0.49171523104E+03  0.79379081961E+02 0.  0.
         -6    2    1    2    0  502 -0.26103600010E+03  0.90628693614E+01 -0.10466209040E+03  0.32847458342E+03  0.16946819713E+03 0.  0.
        -24    2    5    5    0    0 -0.48108884833E+02  0.31069235187E+01 -0.56323323440E+02  0.10999768282E+03  0.81259188328E+02 0.  0.
          5    1    3    3  501    0  0.17209772739E+03 -0.28612069171E+02  0.33147627760E+03  0.37461298815E+03  0.47000000000E+01 0. -1.
        -13    1    4    4    0    0  0.38400496984E+02  0.67005057043E+01  0.58290877658E+02  0.70123614877E+02  0.00000000000E+00 0.  1.
         14    1    4    4    0    0  0.50537775725E+02  0.12848694106E+02  0.41835431766E+03  0.42159161617E+03  0.00000000000E+00 0. -1.
         -5    1    5    5    0  502 -0.21292711527E+03  0.59559458427E+01 -0.48338766955E+02  0.21847690060E+03  0.47000000000E+01 0.  1.
         11    1    6    6    0    0 -0.48978972967E+02  0.27678527135E+02 -0.63056499853E+02  0.84505401194E+02  0.00000000000E+00 0. -1.
        -12    1    6    6    0    0  0.87008813391E+00 -0.24571603616E+02  0.67331764130E+01  0.25492281621E+02  0.00000000000E+00 0.  1.
</event>
<event>
12    1  0.1050869E+000  0.2342355E+03  0.7818608E-02  0.1123712E+00
         21   -1    0    0  503  502  0.00000000000E+00  0.00000000000E+00  0.78223062432E+03  0.78223062432E+03  0.00000000000E+00 0. -1.
         21   -1    0    0  501  503 -0.00000000000E+00 -0.00000000000E+00 -0.70849522262E+02  0.70849522262E+02  0.00000000000E+00 0. -1.
          6    2    1    2  501    0 -0.15290761299E+03  0.43128087968E+02  0.39941054618E+03  0.46302814621E+03  0.17212062543E+03 0.  0.
         24    2    3    3    0    0 -0.21011007735E+02  0.57278009690E+02  0.15589877180E+03  0.18568898737E+03  0.80335173758E+02 0.  0.
         -6    2    1    2    0  502  0.15290761299E+03 -0.43128087968E+02  0.31197055588E+03  0.39005200037E+03  0.17197140803E+03 0.  0.
        -24    2    5    5    0    0  0.10763956158E+03 -0.26799766470E+02  0.31303372757E+03  0.34168847181E+03  0.80351692370E+02 0.  0.
          5    1    3    3  501    0 -0.13189660525E+03 -0.14149921721E+02  0.24351177438E+03  0.27733915884E+03  0.47000000000E+01 0. -1.
        -11    1    4    4    0    0 -0.19088489325E+01  0.54850661878E+02  0.39281799134E+02  0.67492951898E+02  0.00000000000E+00 0.  1.
         12    1    4    4    0    0 -0.19102158802E+02  0.24273478118E+01  0.11661697266E+03  0.11819603547E+03  0.00000000000E+00 0. -1.
         -5    1    5    5    0  502  0.45268051409E+02 -0.16328321498E+02 -0.10631716973E+01  0.48363528566E+02  0.47000000000E+01 0.  1.
         13    1    6    6    0    0  0.15300490634E+02  0.26013277815E+02  0.58659770531E+02  0.65967903674E+02  0.00000000000E+00 0. -1.
        -14    1    6    6    0    0  0.92339070945E+02 -0.52813044286E+02  0.25437395704E+03  0.27572056813E+03  0.00000000000E+00 0.  1.
</event>
<event>
12    1  0.1050869E+000  0.2547697E+03  0.7818608E-02  0.1110435E+00
         21   -1    0    0  501  502  0.00000000000E+00  0.00000000000E+00  0.28830971736E+03  0.28830971736E+03  0.00000000000E+00 0.  1.
         21   -1    0    0  502  503 -0.00000000000E+00 -0.00000000000E+00 -0.28106283858E+03  0.28106283858E+03  0.00000000000E+00 0.  1.
         -6    2    1    2    0  503 -0.35544486436E+02 -0.18463620989E+03 -0.12406690562E+03  0.28337291334E+03  0.17191181003E+03 0.  0.
        -24    2    3    3    0    0  0.11894919206E+02 -0.62687375388E+02 -0.11247920055E+03  0.15192566022E+03  0.79741078135E+02 0.  0.
          6    2    1    2  501    0  0.35544486436E+02  0.18463620989E+03  0.13131378441E+03  0.28599964260E+03  0.17087581769E+03 0.  0.
         24    2    5    5    0    0 -0.39953826960E+02  0.13803116419E+03  0.81306149984E+02  0.18404436264E+03  0.81318674475E+02 0.  0.
          5    1    5    5  501    0  0.75498313396E+02  0.46605045698E+02  0.50007634425E+02  0.10195527996E+03  0.47000000000E+01 0. -1.
        -11    1    6    6    0    0  0.10230850689E+02  0.10124139564E+03  0.39890997172E+02  0.10929676186E+03  0.00000000000E+00 0.  1.
         12    1    6    6    0    0 -0.50184677648E+02  0.36789768552E+02  0.41415152812E+02  0.74747600786E+02  0.00000000000E+00 0. -1.
         -5    1    3    3    0  503 -0.47439405642E+02 -0.12194883450E+03 -0.11587705078E+02  0.13144725312E+03  0.47000000000E+01 0.  1.
         11    1    4    4    0    0  0.27289251285E+02 -0.50687185936E+02 -0.25813440502E+02  0.63089046311E+02  0.00000000000E+00 0. -1.
        -12    1    4    4    0    0 -0.15394332079E+02 -0.12000189452E+02 -0.86665760044E+02  0.88836613910E+02  0.00000000000E+00 0.  1.
</event>
<event>
12    1  0.1050869E+000  0.1711052E+03  0.7818608E-02  0.1176940E+00
         21   -1    0    0  501  502  0.00000000000E+00  0.00000000000E+00  0.34977171338E+03  0.34977171338E+03  0.00000000000E+00 0.  1.
         21   -1    0    0  502  503 -0.00000000000E+00 -0.00000000000E+00 -0.83755616525E+02  0.83755616525E+02  0.00000000000E+00 0.  1.
         -6    2    1    2    0  503 -0.11675351526E+02 -0.14329591147E+02  0.11653391226E+03  0.20701969971E+03  0.17010394571E+03 0.  0.
        -24    2    3    3    0    0  0.17502904277E+01 -0.70403307315E+02  0.54438202504E+02  0.12215229326E+03  0.83653904035E+02 0.  0.
          6    2    1    2  501    0  0.11675351526E+02  0.14329591147E+02  0.14948218460E+03  0.22650763020E+03  0.16917190077E+03 0.  0.
         24    2    5    5    0    0  0.90624988659E+01 -0.56441269087E+02  0.10151660000E+03  0.14084475047E+03  0.79144664490E+02 0.  0.
          5    1    5    5  501    0  0.26128526604E+01  0.70770860234E+02  0.47965584594E+02  0.85662879725E+02  0.47000000000E+01 0. -1.
        -13    1    6    6    0    0 -0.23673618321E+02 -0.23921967591E+02  0.52124260103E+01  0.34056866015E+02  0.00000000000E+00 0.  1.
         14    1    6    6    0    0  0.32736117187E+02 -0.32519301496E+02  0.96304173992E+02  0.10678788446E+03  0.00000000000E+00 0. -1.
         -5    1    3    3    0  503 -0.13425641954E+02  0.56073716168E+02  0.62095709752E+02  0.84867406443E+02  0.47000000000E+01 0.  1.
         13    1    4    4    0    0  0.31092062791E+02 -0.43040582587E+02  0.61677561551E+02  0.81383841866E+02  0.00000000000E+00 0. -1.
        -14    1    4    4    0    0 -0.29341772364E+02 -0.27362724728E+02 -0.72393590467E+01  0.40768451398E+02  0.00000000000E+00 0.  1.
</event>
<event>
12    1  0.1050869E+000  0.1836593E+03  0.7818608E-02  0.1165032E+00
         21   -1    0    0  501  502  0.00000000000E+00  0.00000000000E+00  0.11587201777E+03  0.11587201777E+03  0.00000000000E+00 0.  1.
         21   -1    0    0  502  503 -0.00000000000E+00 -0.00000000000E+00 -0.29599059729E+03  0.29599059729E+03  0.00000000000E+00 0.  1.
         -6    2    1    2    0  503  0.61491403186E+02 -0.12490873943E+02 -0.52068584029E+02  0.18797083760E+03  0.16936553294E+03 0.  0.
        -24    2    3    3    0    0  0.46262984526E+02 -0.34258437643E+02 -0.95928345732E+02  0.13647811713E+03  0.78167286345E+02 0.  0.
          6    2    1    2  501    0 -0.61491403186E+02  0.12490873943E+02 -0.12804999550E+03  0.22389177746E+03  0.17260797221E+03 0.  0.
         24    2    5    5    0    0  0.35839535098E+01  0.14565651099E+02 -0.21084860864E+01  0.82038118563E+02  0.80627565194E+02 0.  0.
          5    1    5    5  501    0 -0.65075356696E+02 -0.20747771561E+01 -0.12594150941E+03  0.14185365889E+03  0.47000000000E+01 0. -1.
        -11    1    6    6    0    0  0.14691386611E+02 -0.21106844677E+02 -0.26887788753E+02  0.37206033338E+02  0.00000000000E+00 0.  1.
         12    1    6    6    0    0 -0.11107433101E+02  0.35672495776E+02  0.24779302666E+02  0.44832085225E+02  0.00000000000E+00 0. -1.
         -5    1    3    3    0  503  0.15228418660E+02  0.21767563700E+02  0.43859761703E+02  0.51492720465E+02  0.47000000000E+01 0.  1.
         13    1    4    4    0    0  0.48562861302E+02 -0.46413996427E+02 -0.37867535850E+02  0.77113947075E+02  0.00000000000E+00 0. -1.
        -14    1    4    4    0    0 -0.22998767765E+01  0.12155558784E+02 -0.58060809883E+02  0.59364170059E+02  0.00000000000E+00 0.  1.
</event>
<event>
12    1  0.1050869E+000  0.2842806E+03  0.7818608E-02  0.1095207E+00
         21   -1    0    0  501  502  0.00000000000E+00  0.00000000000E+00  0.10765753576E+03  0.10765753576E+03  0.00000000000E+00 0. -1.
         21   -1    0    0  502  503 -0.00000000000E+00 -0.00000000000E+00 -0.75225383558E+03  0.75225383558E+03  0.00000000000E+00 0. -1.
         -6    2    1    2    0  503  0.20975575588E+03 -0.13153382985E+01 -0.23510710842E+03  0.36890484389E+03  0.19187554344E+03 0.  0.
        -24    2    3    3    0    0  0.57648910636E+02 -0.63641562244E+02 -0.11060366298E+03  0.16264227217E+03  0.82738703707E+02 0.  0.
          6    2    1    2  501    0 -0.20975575588E+03  0.13153382985E+01 -0.40948919139E+03  0.49100652746E+03  0.17148412435E+03 0.  0.
         24    2    5    5    0    0 -0.19131537648E+03 -0.51602982690E+02 -0.34580159886E+03  0.40604420798E+03  0.77644780637E+02 0.  0.
          5    1    5    5  501    0 -0.18440379395E+02  0.52918320989E+02 -0.63687592532E+02  0.84962319478E+02  0.47000000000E+01 0. -1.
        -11    1    6    6    0    0 -0.64718113858E+02 -0.37198547728E+02 -0.19394909298E+03  0.20781823039E+03  0.00000000000E+00 0.  1.
         12    1    6    6    0    0 -0.12659726263E+03 -0.14404434963E+02 -0.15185250588E+03  0.19822597760E+03  0.00000000000E+00 0. -1.
         -5    1    3    3    0  503  0.15210684524E+03  0.62326223946E+02 -0.12450344544E+03  0.20626257171E+03  0.47000000000E+01 0.  1.
         11    1    4    4    0    0  0.35468417287E+02 -0.49873149515E+01 -0.89626957809E+02  0.96518772793E+02  0.00000000000E+00 0. -1.
        -12    1    4    4    0    0  0.22180493349E+02 -0.58654247293E+02 -0.20976705170E+02  0.66123499381E+02  0.00000000000E+00 0.  1.
</event>
<event>
12    1  0.1050869E+000  0.2386600E+03  0.7818608E-02  0.1121749E+00
         21   -1    0    0  501  502  0.00000000000E+00  0.00000000000E+00  0.46851915298E+03  0.46851915298E+03  0.00000000000E+00 0. -1.
         21   -1    0    0  502  503 -0.00000000000E+00 -0.00000000000E+00 -0.14063309683E+03  0.14063309683E+03  0.00000000000E+00 0. -1.
         -6    2    1    2    0  503 -0.97933634128E+02  0.12714128252E+03  0.41067695235E+02  0.23602575307E+03  0.16812405571E+03 0.  0.
        -24    2    3    3    0    0 -0.89767038328E+00  0.99281749421E+02  0.36816030613E+02  0.13487092869E+03  0.83528891501E+02 0.  0.
          6    2    1    2  501    0  0.97933634128E+02 -0.12714128252E+03  0.28681836091E+03  0.37312649673E+03  0.17664288265E+03 0.  0.
         24    2    5    5    0    0 -0.24839146061E+01 -0.42307675409E+02  0.18821677297E+03  0.20873431890E+03  0.79676552556E+02 0.  0.
          5    1    5    5  501    0  0.10041754873E+03 -0.84833607108E+02  0.98601587944E+02  0.16439217784E+03  0.47000000000E+01 0. -1.
        -11    1    6    6    0    0  0.18551119249E+02  0.10674856090E+02  0.14369534303E+02  0.25779451004E+02  0.00000000000E+00 0.  1.
         12    1    6    6    0    0 -0.21035033855E+02 -0.52982531499E+02  0.17384723867E+03  0.18295486789E+03  0.00000000000E+00 0. -1.
         -5    1    3    3    0  503 -0.97035963744E+02  0.27859533095E+02  0.42516646223E+01  0.10115482438E+03  0.47000000000E+01 0.  1.
         11    1    4    4    0    0 -0.62259689961E+01 -0.11842134699E+02 -0.72416163360E+01  0.15213147318E+02  0.00000000000E+00 0. -1.
        -12    1    4    4    0    0  0.53282986128E+01  0.11112388412E+03  0.44057646949E+02  0.11965778137E+03  0.00000000000E+00 0.  1.
</event>
<event>
12    1  0.1050869E+000  0.1938933E+03  0.7818608E-02  0.1155646E+00
         21   -1    0    0  501  502  0.00000000000E+00  0.00000000000E+00  0.31862297487E+03  0.31862297487E+03  0.00000000000E+00 0.  1.
         21   -1    0    0  502  503 -0.00000000000E+00 -0.00000000000E+00 -0.17282725706E+03  0.17282725706E+03  0.00000000000E+00 0.  1.
         -6    2    1    2    0  503 -0.87358409791E+02  0.19115356538E+02  0.21316262946E+03  0.28618718288E+03  0.16872435635E+03 0.  0.
        -24    2    3    3    0    0  0.22893213870E+02  0.83140631151E+01  0.78166911492E+02  0.11149310075E+03  0.75679736891E+02 0.  0.
          6    2    1    2  501    0  0.87358409791E+02 -0.19115356538E+02 -0.67366911656E+02  0.20526304905E+03  0.17203990788E+03 0.  0.
         24    2    5    5    0    0  0.12545506014E+03 -0.38081801042E+02 -0.51469368163E+02  0.15959136555E+03  0.75040738358E+02 0.  0.
          5    1    5    5  501    0 -0.38096650348E+02  0.18966444504E+02 -0.15897543492E+02  0.45671683502E+02  0.47000000000E+01 0. -1.
        -11    1    6    6    0    0 -0.63397102512E+01  0.79379209349E+01  0.15249187606E+01  0.10272676967E+02  0.00000000000E+00 0.  1.
         12    1    6    6    0    0  0.13179477039E+03 -0.46019721977E+02 -0.52994286924E+02  0.14931868858E+03  0.00000000000E+00 0. -1.
         -5    1    3    3    0  503 -0.11025162366E+03  0.10801293423E+02  0.13499571797E+03  0.17469408213E+03  0.47000000000E+01 0.  1.
         13    1    4    4    0    0 -0.12787287980E+02 -0.13379160539E+02  0.65189153218E+02  0.67765347840E+02  0.00000000000E+00 0. -1.
        -14    1    4    4    0    0  0.35680501849E+02  0.21693223654E+02  0.12977758274E+02  0.43727752910E+02  0.00000000000E+00 0.  1.
</event>
<event>
12    1  0.1050869E+000  0.2488178E+03  0.7818608E-02  0.1114144E+00
         21   -1    0    0  501  502  0.00000000000E+00  0.00000000000E+00  0.16707558477E+03  0.16707558477E+03  0.00000000000E+00 0.  1.
         21   -1    0    0  502  503 -0.00000000000E+00 -0.00000000000E+00 -0.39591372939E+03  0.39591372939E+03  0.00000000000E+00 0.  1.
         -6    2    1    2    0  503 -0.94584920250E+02  0.14942943615E+03 -0.18670877596E+03  0.31063007597E+03  0.17422805041E+03 0.  0.
        -24    2    3    3    0    0 -0.25149579830E+02  0.74675348385E+02 -0.17614738185E+03  0.20795060781E+03  0.77502555643E+02 0.  0.
          6    2    1    2  501    0  0.94584920250E+02 -0.14942943615E+03 -0.42129368658E+02  0.25235923819E+03  0.17502810594E+03 0.  0.
         24    2    5    5    0    0  0.17511809510E+02 -0.14254878439E+03 -0.56437323269E+02  0.17352767514E+03  0.79371677429E+02 0.  0.
          5    1    5    5  501    0  0.77073110739E+02 -0.68806517618E+01  0.14307954610E+02  0.78831563049E+02  0.47000000000E+01 0. -1.
        -13    1    6    6    0    0  0.33311910324E+02 -0.55881310851E+02  0.63212289341E+01  0.65363309334E+02  0.00000000000E+00 0.  1.
         14    1    6    6    0    0 -0.15800100813E+02 -0.86667473541E+02 -0.62758552203E+02  0.10816436581E+03  0.00000000000E+00 0. -1.
         -5    1    3    3    0  503 -0.69435340419E+02  0.74754087769E+02 -0.10561394104E+02  0.10267946817E+03  0.47000000000E+01 0.  1.
         11    1    4    4    0    0  0.18519796673E+02  0.84494600334E+01 -0.83670480039E+02  0.86111122822E+02  0.00000000000E+00 0. -1.
        -12    1    4    4    0    0 -0.43669376503E+02  0.66225888351E+02 -0.92476901816E+02  0.12183948499E+03  0.00000000000E+00 0.  1.
</event>
<event>
12    1  0.1050869E+000  0.1735573E+03  0.7818608E-02  0.1174344E+00
         21   -1    0    0  503  502  0.00000000000E+00  0.00000000000E+00  0.23220903224E+04  0.23220903224E+04  0.00000000000E+00 0.  1.
         21   -1    0    0  501  503 -0.00000000000E+00 -0.00000000000E+00 -0.13400121070E+02  0.13400121070E+02  0.00000000000E+00 0.  1.
          6    2    1    2  501    0 -0.18044962847E+02 -0.31793123291E+01  0.93669534014E+03  0.95263860545E+03  0.17258743765E+03 0.  0.
         24    2    3    3    0    0 -0.22736010708E+02 -0.12645532316E+02  0.93729740186E+03  0.94105984346E+03  0.79939813466E+02 0.  0.
         -6    2    1    2    0  502  0.18044962847E+02  0.31793123291E+01  0.13719948612E+04  0.13828518381E+04  0.17196970107E+03 0.  0.
        -24    2    5    5    0    0  0.16892728761E+02  0.14174319201E+02  0.13675474224E+04  0.13700421725E+04  0.79645001786E+02 0.  0.
          5    1    3    3  501    0  0.46910478603E+01  0.94662199871E+01 -0.60206171330E+00  0.11578761988E+02  0.47000000000E+01 0. -1.
        -11    1    4    4    0    0  0.22947081234E+01 -0.12060198948E+01  0.83841665632E+03  0.83842066396E+03  0.00000000000E+00 0.  1.
         12    1    4    4    0    0 -0.25030718831E+02 -0.11439512421E+02  0.98880745539E+02  0.10263917950E+03  0.00000000000E+00 0. -1.
         -5    1    5    5    0  502  0.11522340859E+01 -0.10995006872E+02  0.44474388183E+01  0.12809665552E+02  0.47000000000E+01 0.  1.
         13    1    6    6    0    0 -0.28976821984E+02  0.17981805688E+02  0.75394349955E+03  0.75471438442E+03  0.00000000000E+00 0. -1.
        -14    1    6    6    0    0  0.45869550745E+02 -0.38074864866E+01  0.61360392287E+03  0.61532778809E+03  0.00000000000E+00 0.  1.
</event>
<event>
12    1  0.1050869E+000  0.1785146E+03  0.7818608E-02  0.1169373E+00
         21   -1    0    0  503  502  0.00000000000E+00  0.00000000000E+00  0.13277605243E+04  0.13277605243E+04  0.00000000000E+00 0. -1.
         21   -1    0    0  501  503 -0.00000000000E+00 -0.00000000000E+00 -0.42807367817E+02  0.42807367817E+02  0.00000000000E+00 0. -1.
          6    2    1    2  501    0  0.18633596090E+02 -0.41691865776E+02  0.10980286386E+04  0.11124452151E+04  0.17257474567E+03 0.  0.
         24    2    3    3    0    0 -0.22550020034E+02 -0.61977271668E+02  0.98380716826E+03  0.98925340444E+03  0.79975422846E+02 0.  0.
         -6    2    1    2    0  502 -0.18633596090E+02  0.41691865776E+02  0.18692451792E+03  0.25812267705E+03  0.17204975569E+03 0.  0.
        -24    2    5    5    0    0 -0.55164842807E+02  0.43098393119E+01  0.47929621533E+02  0.10955074460E+03  0.81500812426E+02 0.  0.
          5    1    3    3  501    0  0.41183616124E+02  0.20285405892E+02  0.11422147035E+03  0.12319181068E+03  0.47000000000E+01 0. -1.
        -13    1    4    4    0    0  0.75879679103E+01 -0.18981695074E+02  0.50641989578E+02  0.54612206633E+02  0.00000000000E+00 0.  1.
         14    1    4    4    0    0 -0.30137987944E+02 -0.42995576594E+02  0.93316517868E+03  0.93464119780E+03  0.00000000000E+00 0. -1.
         -5    1    5    5    0  502  0.36531246717E+02  0.37382026464E+02  0.13899489638E+03  0.14857193244E+03  0.47000000000E+01 0.  1.
         11    1    6    6    0    0 -0.33078855778E+02  0.28470432510E+01 -0.19552867815E+02  0.38530909600E+02  0.00000000000E+00 0. -1.
        -12    1    6    6    0    0 -0.22085987029E+02  0.14627960609E+01  0.67482489348E+02  0.71019835003E+02  0.00000000000E+00 0.  1.
</event>
<event>
12    1  0.1050869E+000  0.2792110E+03  0.7818608E-02  0.1096251E+00
         21   -1    0    0  503  502  0.00000000000E+00  0.00000000000E+00  0.28829160112E+03  0.28829160112E+03  0.00000000000E+00 0.  1.
         21   -1    0    0  501  503 -0.00000000000E+00 -0.00000000000E+00 -0.27627824987E+03  0.27627824987E+03  0.00000000000E+00 0.  1.
          6    2    1    2  501    0  0.21283192888E+03  0.54190743662E+02  0.50240282391E+02  0.28369507494E+03  0.17240865095E+03 0.  0.
         24    2    3    3    0    0  0.17769266238E+03  0.38265082106E+02 -0.19772298784E+02  0.20361857234E+03  0.89614063804E+02 0.  0.
         -6    2    1    2    0  502 -0.21283192888E+03 -0.54190743662E+02 -0.38226931137E+02  0.28087477605E+03  0.17086624859E+03 0.  0.
        -24    2    5    5    0    0 -0.51447716671E+02  0.14869885852E+02 -0.42102882525E+02  0.10522925946E+03  0.80203262235E+02 0.  0.
          5    1    3    3  501    0  0.35139266498E+02  0.15925661556E+02  0.70012581175E+02  0.80076502601E+02  0.47000000000E+01 0. -1.
        -13    1    4    4    0    0  0.94697123660E+02  0.64154306114E+02  0.33996670405E+00  0.11438284749E+03  0.00000000000E+00 0.  1.
         14    1    4    4    0    0  0.82995538720E+02 -0.25889224007E+02 -0.20112265488E+02  0.89235724854E+02  0.00000000000E+00 0. -1.
         -5    1    5    5    0  502 -0.16138421221E+03 -0.69060629514E+02  0.38759513879E+01  0.17564551659E+03  0.47000000000E+01 0.  1.
         13    1    6    6    0    0  0.15836764184E+02 -0.11332866775E+02  0.35586269173E+01  0.19796484402E+02  0.00000000000E+00 0. -1.
        -14    1    6    6    0    0 -0.67284480854E+02  0.26202752627E+02 -0.45661509443E+02  0.85432775055E+02  0.00000000000E+00 0.  1.
</event>
<event>
12    1  0.1050869E+000  0.2213717E+03  0.7818608E-02  0.1132886E+00
         21   -1    0    0  503  502  0.00000000000E+00  0.00000000000E+00  0.51929809949E+02  0.51929809949E+02  0.00000000000E+00 0. -1.
         21   -1    0    0  501  503 -0.00000000000E+00 -0.00000000000E+00 -0.95083392267E+03  0.95083392267E+03  0.00000000000E+00 0. -1.
          6    2    1    2  501    0  0.92017376007E+02  0.10715200166E+03 -0.40462635571E+03  0.46122438936E+03  0.17046026122E+03 0.  0.
         24    2    3    3    0    0  0.90327548082E+02  0.89732641221E+02 -0.41388866990E+03  0.44087321984E+03  0.82791014332E+02 0.  0.
         -6    2    1    2    0  502 -0.92017376007E+02 -0.10715200166E+03 -0.49427775702E+03  0.54153934327E+03  0.17031033520E+03 0.  0.
        -24    2    5    5    0    0 -0.62358977404E+02 -0.95534494097E+02 -0.49046947296E+03  0.50911743528E+03  0.74998515876E+02 0.  0.
          5    1    3    3  501    0  0.16898279259E+01  0.17419360437E+02  0.92623141949E+01  0.20351169517E+02  0.47000000000E+01 0. -1.
        -11    1    4    4    0    0  0.19241453018E+02  0.77361049303E+02 -0.21760796019E+03  0.23175027465E+03  0.00000000000E+00 0.  1.
         12    1    4    4    0    0  0.71086095063E+02  0.12371591918E+02 -0.19628070971E+03  0.20912294519E+03  0.00000000000E+00 0. -1.
         -5    1    5    5    0  502 -0.29658398604E+02 -0.11617507561E+02 -0.38082840605E+01  0.32421907982E+02  0.47000000000E+01 0.  1.
         13    1    6    6    0    0 -0.79323984128E+02 -0.69965638941E+02 -0.37306672719E+03  0.38777089631E+03  0.00000000000E+00 0. -1.
        -14    1    6    6    0    0  0.16965006725E+02 -0.25568855156E+02 -0.11740274577E+03  0.12134653898E+03  0.00000000000E+00 0.  1.
</event>
<event>
12    1  0.1050869E+000  0.1761276E+03  0.7818608E-02  0.1172242E+00
         21   -1    0    0  501  502  0.00000000000E+00  0.00000000000E+00  0.28019938710E+04  0.28019938710E+04  0.00000000000E+00 0. -1.
         21   -1    0    0  502  503 -0.00000000000E+00 -0.00000000000E+00 -0.10943012353E+02  0.10943012353E+02  0.00000000000E+00 0. -1.
         -6    2    1    2    0  503  0.56042586872E+01 -0.36733137496E+02  0.14807357325E+04  0.14911737826E+04  0.17216332137E+03 0.  0.
        -24    2    3    3    0    0  0.62184707935E+02  0.10317872962E+02  0.74510454013E+03  0.75185620128E+03  0.78317145488E+02 0.  0.
          6    2    1    2  501    0 -0.56042586872E+01  0.36733137496E+02  0.13103151262E+04  0.13217631008E+04  0.16956188743E+03 0.  0.
         24    2    5    5    0    0 -0.60381104767E+02  0.19429530180E+02  0.10503201078E+04  0.10554561026E+04  0.82412810283E+02 0.  0.
          5    1    5    5  501    0  0.54776846079E+02  0.17303607315E+02  0.25999501839E+03  0.26630699818E+03  0.47000000000E+01 0. -1.
        -13    1    6    6    0    0 -0.19689017766E+02 -0.30894395404E+02  0.50080451733E+03  0.50214269453E+03  0.00000000000E+00 0.  1.
         14    1    6    6    0    0 -0.40692087001E+02  0.50323925584E+02  0.54951559047E+03  0.55331340811E+03  0.00000000000E+00 0. -1.
         -5    1    3    3    0  503 -0.56580449248E+02 -0.47051010458E+02  0.73563119236E+03  0.73931758129E+03  0.47000000000E+01 0.  1.
         13    1    4    4    0    0  0.15586420676E+02 -0.42250124987E+01  0.56566114253E+03  0.56589161101E+03  0.00000000000E+00 0. -1.
        -14    1    4    4    0    0  0.46598287259E+02  0.14542885461E+02  0.17944339760E+03  0.18596459027E+03  0.00000000000E+00 0.  1.
</event>
<event>
12    1  0.1050869E+000  0.1923810E+03  0.7818608E-02  0.1156446E+00
         21   -1    0    0  503  502  0.00000000000E+00  0.00000000000E+00  0.12443131202E+04  0.12443131202E+04  0.00000000000E+00 0. -1.
         21   -1    0    0  501  503 -0.00000000000E+00 -0.00000000000E+00 -0.38732914651E+02  0.38732914651E+02  0.00000000000E+00 0. -1.
          6    2    1    2  501    0  0.26919520710E+02  0.79935226252E+02  0.29174072863E+03  0.34917610291E+03  0.17232816692E+03 0.  0.
         24    2    3    3    0    0  0.73497091342E+02  0.58941689080E+02  0.26039763751E+03  0.28905391026E+03  0.82881169552E+02 0.  0.
         -6    2    1    2    0  502 -0.26919520710E+02 -0.79935226252E+02  0.91383947693E+03  0.93386993195E+03  0.17290505836E+03 0.  0.
        -24    2    5    5    0    0 -0.39546298514E+02 -0.43174539190E+01  0.71154782354E+03  0.71748720149E+03  0.83096504005E+02 0.  0.
          5    1    3    3  501    0 -0.46577570632E+02  0.20993537171E+02  0.31343091115E+02  0.60122192654E+02  0.47000000000E+01 0. -1.
        -11    1    4    4    0    0  0.42867696135E+02  0.64579961170E+02  0.10468946207E+03  0.13026163758E+03  0.00000000000E+00 0.  1.
         12    1    4    4    0    0  0.30629395207E+02 -0.56382720894E+01  0.15570817544E+03  0.15879227267E+03  0.00000000000E+00 0. -1.
         -5    1    5    5    0  502  0.12626777804E+02 -0.75617772333E+02  0.20229165339E+03  0.21638273046E+03  0.47000000000E+01 0.  1.
         11    1    6    6    0    0  0.18568572387E+02  0.20776388281E+02  0.17262720939E+03  0.17486166993E+03  0.00000000000E+00 0. -1.
        -12    1    6    6    0    0 -0.58114870901E+02 -0.25093842200E+02  0.53892061416E+03  0.54262553156E+03  0.00000000000E+00 0.  1.
</event>
<event>
12    1  0.1050869E+000  0.4859697E+03  0.7818608E-02  0.1017533E+00
         21   -1    0    0  503  502  0.00000000000E+00  0.00000000000E+00  0.87606321149E+03  0.87606321149E+03  0.00000000000E+00 0.  1.
         21   -1    0    0  501  503 -0.00000000000E+00 -0.00000000000E+00 -0.33230200469E+03  0.33230200469E+03  0.00000000000E+00 0. -1.
          6    2    1    2  501    0  0.15385729949E+03 -0.42763255709E+03  0.88675438018E+01  0.48567732315E+03  0.17106184965E+03 0.  0.
         24    2    3    3    0    0  0.70218766512E+02 -0.36516150696E+03  0.17228809371E+02  0.38084394553E+03  0.80446737881E+02 0.  0.
         -6    2    1    2    0  502 -0.15385729949E+03  0.42763255709E+03  0.53489366300E+03  0.72268789303E+03  0.17211881805E+03 0.  0.
        -24    2    5    5    0    0 -0.16265469721E+03  0.25513562948E+03  0.33258360526E+03  0.45663520332E+03  0.79706426761E+02 0.  0.
          5    1    3    3  501    0  0.83638532979E+02 -0.62471050129E+02 -0.83612655688E+01  0.10483337763E+03  0.47000000000E+01 0. -1.
        -13    1    4    4    0    0  0.20859289491E+02 -0.10415657285E+03  0.41637297969E+02  0.11409367295E+03  0.00000000000E+00 0.  1.
         14    1    4    4    0    0  0.49359477021E+02 -0.26100493411E+03 -0.24408488599E+02  0.26675027257E+03  0.00000000000E+00 0. -1.
         -5    1    5    5    0  502  0.87973977187E+01  0.17249692761E+03  0.20231005773E+03  0.26605268971E+03  0.47000000000E+01 0.  1.
         11    1    6    6    0    0 -0.14257723638E+02  0.80837573254E+02  0.11089870496E+03  0.13797289116E+03  0.00000000000E+00 0. -1.
        -12    1    6    6    0    0 -0.14839697357E+03  0.17429805623E+03  0.22168490030E+03  0.31866231216E+03  0.00000000000E+00 0.  1.
</event>
<event>
12    1  0.1050869E+000  0.1820384E+03  0.7818608E-02  0.1166282E+00
         21   -1    0    0  503  502  0.00000000000E+00  0.00000000000E+00  0.20026636162E+03  0.20026636162E+03  0.00000000000E+00 0. -1.
         21   -1    0    0  501  503 -0.00000000000E+00 -0.00000000000E+00 -0.16382614349E+03  0.16382614349E+03  0.00000000000E+00 0. -1.
          6    2    1    2  501    0 -0.56820339237E+02  0.88484425421E+01  0.16774533219E+02  0.18280961239E+03  0.17271688837E+03 0.  0.
         24    2    3    3    0    0 -0.71890665756E+02  0.59594394174E+02  0.17574891207E+02  0.12965891228E+03  0.88220162626E+02 0.  0.
         -6    2    1    2    0  502  0.56820339237E+02 -0.88484425421E+01  0.19665684907E+02  0.18128289272E+03  0.17079198501E+03 0.  0.
        -24    2    5    5    0    0  0.86599527225E+02  0.35956776465E+02  0.27946521920E+02  0.12664801422E+03  0.80413578014E+02 0.  0.
          5    1    3    3  501    0  0.15070326519E+02 -0.50745951632E+02 -0.80035798866E+00  0.53150700102E+02  0.47000000000E+01 0. -1.
        -13    1    4    4    0    0  0.12216731510E+02  0.12391751769E+02 -0.19676608515E+02  0.26267336435E+02  0.00000000000E+00 0.  1.
         14    1    4    4    0    0 -0.84107397266E+02  0.47202642405E+02  0.37251499723E+02  0.10339157585E+03  0.00000000000E+00 0. -1.
         -5    1    5    5    0  502 -0.29779187988E+02 -0.44805219007E+02 -0.82808370130E+01  0.54634878504E+02  0.47000000000E+01 0.  1.
         11    1    6    6    0    0 -0.15912015582E+01  0.14922910726E+02 -0.19270824562E+02  0.24425189175E+02  0.00000000000E+00 0. -1.
        -12    1    6    6    0    0  0.88190728783E+02  0.21033865739E+02  0.47217346483E+02  0.10222282504E+03  0.00000000000E+00 0.  1.
</event>
<event>
12    1  0.1050869E+000  0.2013538E+03  0.7818608E-02  0.1148751E+00
         21   -1    0    0  503  502  0.00000000000E+00  0.00000000000E+00  0.22204005117E+03  0.22204005117E+03  0.00000000000E+00 0. -1.
         21   -1    0    0  501  503 -0.00000000000E+00 -0.00000000000E+00 -0.20258882234E+03  0.20258882234E+03  0.00000000000E+00 0. -1.
          6    2    1    2  501    0  0.10346056144E+02 -0.10434765937E+03  0.77508888799E+02  0.21575672686E+03  0.17189491688E+03 0.  0.
         24    2    3    3    0    0  0.16159156239E+02  0.49171923969E+01  0.66864055105E+02  0.10572035811E+03  0.80129240241E+02 0.  0.
         -6    2    1    2    0  502 -0.10346056144E+02  0.10434765937E+03 -0.58057659971E+02  0.20887214666E+03  0.17105965882E+03 0.  0.
        -24    2    5    5    0    0 -0.67860573862E+02  0.53947967194E+02 -0.59573647379E+01  0.11621914087E+03  0.77174852508E+02 0.  0.
          5    1    3    3  501    0 -0.58131000958E+01 -0.10926485176E+03  0.10644833695E+02  0.11003636875E+03  0.47000000000E+01 0. -1.
        -11    1    4    4    0    0  0.25925621202E+02  0.21013043358E+02 -0.28646456073E+01  0.33494656593E+02  0.00000000000E+00 0.  1.
         12    1    4    4    0    0 -0.97664649623E+01 -0.16095850961E+02  0.69728700712E+02  0.72225701513E+02  0.00000000000E+00 0. -1.
         -5    1    5    5    0  502  0.57514517719E+02  0.50399692172E+02 -0.52100295233E+02  0.92653005795E+02  0.47000000000E+01 0.  1.
         13    1    6    6    0    0 -0.45537419013E+02  0.33766435272E+02 -0.41048426686E+02  0.69991442440E+02  0.00000000000E+00 0. -1.
        -14    1    6    6    0    0 -0.22323154849E+02  0.20181531922E+02  0.35091061948E+02  0.46227698426E+02  0.00000000000E+00 0.  1.
</event>
<event>
12    1  0.1050869E+000  0.1969192E+03  0.7818608E-02  0.1152660E+00
         21   -1    0    0  501  502  0.00000000000E+00  0.00000000000E+00  0.57857343583E+02  0.57857343583E+02  0.00000000000E+00 0. -1.
         21   -1    0    0  502  503 -0.00000000000E+00 -0.00000000000E+00 -0.80137039189E+03  0.80137039189E+03  0.00000000000E+00 0. -1.
         -6    2    1    2    0  503 -0.79587135345E+02  0.51160862675E+02 -0.19598261214E+03  0.27782434021E+03  0.17270099527E+03 0.  0.
        -24    2    3    3    0    0 -0.10626469772E+03  0.44665129457E+02 -0.84939718875E+02  0.16334071243E+03  0.78601989311E+02 0.  0.
          6    2    1    2  501    0  0.79587135345E+02 -0.51160862675E+02 -0.54753043616E+03  0.58140339526E+03  0.17113966085E+03 0.  0.
         24    2    5    5    0    0 -0.19751657827E+02 -0.49419375837E+02 -0.24280523475E+03  0.26085579040E+03  0.79113580819E+02 0.  0.
          5    1    5    5  501    0  0.99338793172E+02 -0.17414868376E+01 -0.30472520142E+03  0.32054760486E+03  0.47000000000E+01 0. -1.
        -11    1    6    6    0    0  0.11040524948E+02 -0.31230281630E+02 -0.28833012572E+02  0.43915444843E+02  0.00000000000E+00 0.  1.
         12    1    6    6    0    0 -0.30792182775E+02 -0.18189094208E+02 -0.21397222217E+03  0.21694034556E+03  0.00000000000E+00 0. -1.
         -5    1    3    3    0  503  0.26677562372E+02  0.64957332178E+01 -0.11104289327E+03  0.11448362778E+03  0.47000000000E+01 0.  1.
         13    1    4    4    0    0 -0.17087603473E+02 -0.81343314516E+01  0.11189965035E+02  0.21985651186E+02  0.00000000000E+00 0. -1.
        -14    1    4    4    0    0 -0.89177094244E+02  0.52799460909E+02 -0.96129683909E+02  0.14135506124E+03  0.00000000000E+00 0.  1.
</event>
<event>
12    1  0.1050869E+000  0.1742569E+03  0.7818608E-02  0.1173605E+00
         21   -1    0    0  501  502  0.00000000000E+00  0.00000000000E+00  0.28312178006E+03  0.28312178006E+03  0.00000000000E+00 0.  1.
         21   -1    0    0  502  503 -0.00000000000E+00 -0.00000000000E+00 -0.14465741240E+03  0.14465741240E+03  0.00000000000E+00 0.  1.
         -6    2    1    2    0  503  0.26948239136E+02 -0.18154743761E+02  0.17851189767E+03  0.24946332789E+03  0.17120061928E+03 0.  0.
        -24    2    3    3    0    0  0.64214644231E+02  0.28354124634E+02  0.14756040979E+03  0.18214361020E+03  0.80465789522E+02 0.  0.
          6    2    1    2  501    0 -0.26948239136E+02  0.18154743761E+02 -0.40047530006E+02  0.17831586457E+03  0.17069546152E+03 0.  0.
         24    2    5    5    0    0  0.26260861208E+02  0.22184174790E+02  0.28696361707E+02  0.91165091067E+02  0.79409207347E+02 0.  0.
          5    1    5    5  501    0 -0.53209100343E+02 -0.40294310289E+01 -0.68743891714E+02  0.87150773500E+02  0.47000000000E+01 0. -1.
        -13    1    6    6    0    0 -0.22317936706E+02  0.29572482398E+02  0.83279276987E+01  0.37973364267E+02  0.00000000000E+00 0.  1.
         14    1    6    6    0    0  0.48578797913E+02 -0.73883076071E+01  0.20368434008E+02  0.53191726800E+02  0.00000000000E+00 0. -1.
         -5    1    3    3    0  503 -0.37266405095E+02 -0.46508868396E+02  0.30951487882E+02  0.67319717693E+02  0.47000000000E+01 0.  1.
         13    1    4    4    0    0  0.13591011105E+02  0.49905698293E+02  0.69083339453E+02  0.86300649447E+02  0.00000000000E+00 0. -1.
        -14    1    4    4    0    0  0.50623633126E+02 -0.21551573659E+02  0.78477070332E+02  0.95842960753E+02  0.00000000000E+00 0.  1.
</event>
<event>
12    1  0.1050869E+000  0.1819431E+03  0.7818608E-02  0.1167081E+00
         21   -1    0    0  501  502  0.00000000000E+00  0.00000000000E+00  0.20674735687E+03  0.20674735687E+03  0.00000000000E+00 0. -1.
         21   -1    0    0  502  503 -0.00000000000E+00 -0.00000000000E+00 -0.15693787359E+03  0.15693787359E+03  0.00000000000E+00 0. -1.
         -6    2    1    2    0  503  0.21707044645E+02 -0.29365473252E+02  0.38815862601E+02  0.18141033752E+03  0.17340563014E+03 0.  0.
        -24    2    3    3    0    0  0.71693591842E-01 -0.77962795316E+02 -0.61883083684E+01  0.11157300129E+03  0.79574096683E+02 0.  0.
          6    2    1    2  501    0 -0.21707044645E+02  0.29365473252E+02  0.10993620683E+02  0.18227489294E+03  0.17824070830E+03 0.  0.
         24    2    5    5    0    0  0.39409234394E+02  0.67401573563E+02  0.56063126529E+01  0.10993501750E+03  0.77189490590E+02 0.  0.
          5    1    5    5  501    0 -0.61116279039E+02 -0.38036100311E+02  0.53873080301E+01  0.72339875437E+02  0.47000000000E+01 0. -1.
        -13    1    6    6    0    0 -0.21912815377E+02  0.18542683840E+02  0.12328363911E+02  0.31240857198E+02  0.00000000000E+00 0.  1.
         14    1    6    6    0    0  0.61322049771E+02  0.48858889723E+02 -0.67220512580E+01  0.78694160305E+02  0.00000000000E+00 0. -1.
         -5    1    3    3    0  503  0.21635351053E+02  0.48597322065E+02  0.45004170969E+02  0.69837336230E+02  0.47000000000E+01 0.  1.
         11    1    4    4    0    0 -0.21795753772E+02 -0.31743290048E+02  0.30099015909E+02  0.48873736344E+02  0.00000000000E+00 0. -1.
        -12    1    4    4    0    0  0.21867447364E+02 -0.46219505269E+02 -0.36287324278E+02  0.62699264946E+02  0.00000000000E+00 0.  1.
</event>
<event>
12    1  0.1050869E+000  0.2162718E+03  0.7818608E-02  0.1137183E+00
         21   -1    0    0  501  502  0.00000000000E+00  0.00000000000E+00  0.28253538821E+03  0.28253538821E+03  0.00000000000E+00 0.  1.
         21   -1    0    0  502  503 -0.00000000000E+00 -0.00000000000E+00 -0.23236938939E+03  0.23236938939E+03  0.00000000000E+00 0. -1.
         -6    2    1    2    0  503  0.82683904705E+02  0.10187136579E+03  0.16524297340E+03  0.27217405800E+03  0.17192752638E+03 0.  0.
        -24    2    3    3    0    0  0.10772818354E+03  0.11572941601E+03  0.10646891776E+03  0.20663215481E+03  0.79765642313E+02 0.  0.
          6    2    1    2  501    0 -0.82683904705E+02 -0.10187136579E+03 -0.11507697458E+03  0.24273071960E+03  0.16870414604E+03 0.  0.
         24    2    5    5    0    0 -0.97941945836E+02 -0.20883391805E+02 -0.51251830273E+02  0.13838706241E+03  0.80594591188E+02 0.  0.
          5    1    5    5  501    0  0.15258041131E+02 -0.80987973985E+02 -0.63825144304E+02  0.10434365718E+03  0.47000000000E+01 0. -1.
        -13    1    6    6    0    0  0.75487050075E+01 -0.11338739482E+02  0.91918595120E+01  0.16432901193E+02  0.00000000000E+00 0.  1.
         14    1    6    6    0    0 -0.10549065084E+03 -0.95446523226E+01 -0.60443689785E+02  0.12195416122E+03  0.00000000000E+00 0. -1.
         -5    1    3    3    0  503 -0.25044278830E+02 -0.13858050221E+02  0.58774055638E+02  0.65541903193E+02  0.47000000000E+01 0.  1.
         13    1    4    4    0    0  0.48048650222E+02  0.26350980685E+02  0.78226747510E+02  0.95511627549E+02  0.00000000000E+00 0. -1.
        -14    1    4    4    0    0  0.59679533313E+02  0.89378435326E+02  0.28242170250E+02  0.11112052726E+03  0.00000000000E+00 0.  1.
</event>
<event>
12    1  0.1050869E+000  0.3083671E+03  0.7818608E-02  0.1082202E+00
         21   -1    0    0  501  502  0.00000000000E+00  0.00000000000E+00  0.15807096208E+03  0.15807096208E+03  0.00000000000E+00 0. -1.
         21   -1    0    0  502  503 -0.00000000000E+00 -0.00000000000E+00 -0.67475700652E+03  0.67475700652E+03  0.00000000000E+00 0. -1.
         -6    2    1    2    0  503  0.19626686958E+03 -0.15874671438E+03 -0.41373410154E+03  0.51600983223E+03  0.17711306209E+03 0.  0.
        -24    2    3    3    0    0  0.12465018310E+03 -0.15428879568E+03 -0.38102667265E+03  0.43701180235E+03  0.80344816289E+02 0.  0.
          6    2    1    2  501    0 -0.19626686958E+03  0.15874671438E+03 -0.10295194290E+03  0.31681813637E+03  0.16141073560E+03 0.  0.
         24    2    5    5    0    0 -0.14382606786E+03  0.63153283685E+02 -0.16034402198E+02  0.17730150454E+03  0.80650148304E+02 0.  0.
          5    1    5    5  501    0 -0.52440801717E+02  0.95593430691E+02 -0.86917540700E+02  0.13951663183E+03  0.47000000000E+01 0. -1.
        -13    1    6    6    0    0 -0.37909508358E+02  0.55386438598E+02  0.10250920565E+02  0.67896021805E+02  0.00000000000E+00 0.  1.
         14    1    6    6    0    0 -0.10591655950E+03  0.77668450863E+01 -0.26285322763E+02  0.10940548273E+03  0.00000000000E+00 0. -1.
         -5    1    3    3    0  503  0.71616686471E+02 -0.44579186947E+01 -0.32707428896E+02  0.78998029882E+02  0.47000000000E+01 0.  1.
         13    1    4    4    0    0  0.29162107302E+02 -0.50560519899E+01 -0.22773082605E+02  0.37344416656E+02  0.00000000000E+00 0. -1.
        -14    1    4    4    0    0  0.95488075802E+02 -0.14923274369E+03 -0.35825359004E+03  0.39966738569E+03  0.00000000000E+00 0.  1.
</event>
<event>
12    1  0.1050869E+000  0.2805781E+03  0.7818608E-02  0.1095446E+00
         21   -1    0    0  501  502  0.00000000000E+00  0.00000000000E+00  0.32377834423E+03  0.32377834423E+03  0.00000000000E+00 0.  1.
         21   -1    0    0  502  503 -0.00000000000E+00 -0.00000000000E+00 -0.25270041819E+03  0.25270041819E+03  0.00000000000E+00 0.  1.
         -6    2    1    2    0  503 -0.14983936253E+03  0.16286195925E+03 -0.21819758598E+02  0.28142520238E+03  0.17247663707E+03 0.  0.
        -24    2    3    3    0    0 -0.60443318213E+02  0.11276421259E+03  0.46320106342E+02  0.15827258100E+03  0.80842410195E+02 0.  0.
          6    2    1    2  501    0  0.14983936253E+03 -0.16286195925E+03  0.92897684639E+02  0.29505356005E+03  0.17161226982E+03 0.  0.
         24    2    5    5    0    0  0.64449870498E+02 -0.72954469222E+02 -0.22081108443E+02  0.12588815292E+03  0.76707961177E+02 0.  0.
          5    1    5    5  501    0  0.85389492031E+02 -0.89907490023E+02  0.11497879308E+03  0.16916540713E+03  0.47000000000E+01 0. -1.
        -11    1    6    6    0    0  0.57649135516E+02 -0.10299758319E+02  0.15452303633E+01  0.58582382881E+02  0.00000000000E+00 0.  1.
         12    1    6    6    0    0  0.68007349817E+01 -0.62654710903E+02 -0.23626338806E+02  0.67305770035E+02  0.00000000000E+00 0. -1.
         -5    1    3    3    0  503 -0.89396044316E+02  0.50097746655E+02 -0.68139864940E+02  0.12315262138E+03  0.47000000000E+01 0.  1.
         11    1    4    4    0    0 -0.58910089679E+02  0.43125126451E+02 -0.27632499244E+01  0.73060322663E+02  0.00000000000E+00 0. -1.
        -12    1    4    4    0    0 -0.15332285341E+01  0.69639086139E+02  0.49083356267E+02  0.85212258335E+02  0.00000000000E+00 0.  1.
</event>
<event>
12    1  0.1050869E+000  0.5631902E+03  0.7818608E-02  0.9985329E-01
         21   -1    0    0  501  502  0.00000000000E+00  0.00000000000E+00  0.51094460376E+03  0.51094460376E+03  0.00000000000E+00 0. -1.
         21   -1    0    0  502  503 -0.00000000000E+00 -0.00000000000E+00 -0.66940793356E+03  0.66940793356E+03  0.00000000000E+00 0. -1.
         -6    2    1    2    0  503  0.44842545720E+03 -0.29266178089E+03  0.81381133749E+02  0.56821814652E+03  0.17179250404E+03 0.  0.
        -24    2    3    3    0    0  0.18146501678E+03 -0.58522205088E+02  0.13641673493E+02  0.20669367683E+03  0.78624296401E+02 0.  0.
          6    2    1    2  501    0 -0.44842545720E+03  0.29266178089E+03 -0.23984446355E+03  0.61213439080E+03  0.17449022048E+03 0.  0.
         24    2    5    5    0    0 -0.35034250593E+03  0.16603427463E+03 -0.12420534733E+03  0.41452546926E+03  0.78084214466E+02 0.  0.
          5    1    5    5  501    0 -0.98082951275E+02  0.12662750626E+03 -0.11563911622E+03  0.19760892154E+03  0.47000000000E+01 0. -1.
        -13    1    6    6    0    0 -0.16306580485E+03  0.66364157117E+02 -0.17121392264E+02  0.17688357791E+03  0.00000000000E+00 0.  1.
         14    1    6    6    0    0 -0.18727670108E+03  0.99670117513E+02 -0.10708395507E+03  0.23764189135E+03  0.00000000000E+00 0. -1.
         -5    1    3    3    0  503  0.26696044042E+03 -0.23413957580E+03  0.67739460256E+02  0.36152446969E+03  0.47000000000E+01 0.  1.
         11    1    4    4    0    0  0.94936554753E+02 -0.75428819304E+01  0.39319884084E+02  0.10303347893E+03  0.00000000000E+00 0. -1.
        -12    1    4    4    0    0  0.86528462024E+02 -0.50979323158E+02 -0.25678210591E+02  0.10366019790E+03  0.00000000000E+00 0.  1.
</event>
<event>
12    1  0.1050869E+000  0.2069825E+03  0.7818608E-02  0.1144393E+00
         21   -1    0    0  503  502  0.00000000000E+00  0.00000000000E+00  0.15469482509E+03  0.15469482509E+03  0.00000000000E+00 0. -1.
         21   -1    0    0  501  503 -0.00000000000E+00 -0.00000000000E+00 -0.44930041196E+03  0.44930041196E+03  0.00000000000E+00 0. -1.
          6    2    1    2  501    0  0.11083827804E+03  0.29008158503E+02 -0.33626897533E+03  0.39486524615E+03  0.17238080435E+03 0.  0.
         24    2    3    3    0    0 -0.76873016905E+01 -0.81701009238E+01 -0.15677672284E+03  0.17653042362E+03  0.80362954668E+02 0.  0.
         -6    2    1    2    0  502 -0.11083827804E+03 -0.29008158503E+02  0.41663388460E+02  0.20912999089E+03  0.16992032844E+03 0.  0.
        -24    2    5    5    0    0 -0.61974262176E+02  0.47220320430E+02  0.43210923608E+02  0.11844946426E+03  0.78054620809E+02 0.  0.
          5    1    3    3  501    0  0.11852557973E+03  0.37178259427E+02 -0.17949225249E+03  0.21833482253E+03  0.47000000000E+01 0. -1.
        -13    1    4    4    0    0  0.29143567024E+02 -0.60310210059E+01 -0.22587241497E+02  0.37361801237E+02  0.00000000000E+00 0.  1.
         14    1    4    4    0    0 -0.36830868714E+02 -0.21390799180E+01 -0.13418948134E+03  0.13916862238E+03  0.00000000000E+00 0. -1.
         -5    1    5    5    0  502 -0.48864015861E+02 -0.76228478933E+02 -0.15475351475E+01  0.90680526639E+02  0.47000000000E+01 0.  1.
         11    1    6    6    0    0 -0.15115004763E+02  0.49271225016E+02 -0.42621886155E+01  0.51713472474E+02  0.00000000000E+00 0. -1.
        -12    1    6    6    0    0 -0.46859257413E+02 -0.20509045857E+01  0.47473112223E+02  0.66735991781E+02  0.00000000000E+00 0.  1.
</event>
<event>
12    1  0.1050869E+000  0.2070538E+03  0.7818608E-02  0.1144072E+00
         21   -1    0    0  501  502  0.00000000000E+00  0.00000000000E+00  0.14194164982E+03  0.14194164982E+03  0.00000000000E+00 0. -1.
         21   -1    0    0  502  503 -0.00000000000E+00 -0.00000000000E+00 -0.15544009162E+04  0.15544009162E+04  0.00000000000E+00 0. -1.
         -6    2    1    2    0  503  0.72694415161E+02  0.87839063784E+02 -0.14676343709E+04  0.14820633970E+04  0.17193337938E+03 0.  0.
        -24    2    3    3    0    0  0.53235099215E+01 -0.10936933116E+02 -0.75342523251E+03  0.75790021110E+03  0.81333835209E+02 0.  0.
          6    2    1    2  501    0 -0.72694415161E+02 -0.87839063784E+02  0.55175104453E+02  0.21427916908E+03  0.17283255199E+03 0.  0.
         24    2    5    5    0    0 -0.77613391260E+02 -0.74247029278E+02  0.99746672315E+02  0.16718719111E+03  0.80409566428E+02 0.  0.
          5    1    5    5  501    0  0.49189760992E+01 -0.13592034506E+02 -0.44571567862E+02  0.47091977974E+02  0.47000000000E+01 0. -1.
        -13    1    6    6    0    0  0.29314227050E+00 -0.11799838726E+02 -0.12341809246E+02  0.17077540275E+02  0.00000000000E+00 0.  1.
         14    1    6    6    0    0 -0.77906533531E+02 -0.62447190552E+02  0.11208848156E+03  0.15010965083E+03  0.00000000000E+00 0. -1.
         -5    1    3    3    0  503  0.67370905239E+02  0.98775996900E+02 -0.71420913835E+03  0.72416318585E+03  0.47000000000E+01 0.  1.
         13    1    4    4    0    0  0.78221264949E+01 -0.29813872297E+02 -0.11120057270E+03  0.11539332742E+03  0.00000000000E+00 0. -1.
        -14    1    4    4    0    0 -0.24986165734E+01  0.18876939181E+02 -0.64222465981E+03  0.64250688368E+03  0.00000000000E+00 0.  1.
</event>
<event>
12    1  0.1050869E+000  0.1965438E+03  0.7818608E-02  0.1154698E+00
         21   -1    0    0  503  502  0.00000000000E+00  0.00000000000E+00  0.13935503740E+03  0.13935503740E+03  0.00000000000E+00 0. -1.
         21   -1    0    0  501  503 -0.00000000000E+00 -0.00000000000E+00 -0.34392987767E+03  0.34392987767E+03  0.00000000000E+00 0. -1.
          6    2    1    2  501    0  0.83352000883E+02  0.30083541799E+02  0.11924859692E+02  0.19690525880E+03  0.17543347208E+03 0.  0.
         24    2    3    3    0    0  0.36417036648E+02 -0.14571652187E+02  0.67420598489E+02  0.11147198518E+03  0.79636252884E+02 0.  0.
         -6    2    1    2    0  502 -0.83352000883E+02 -0.30083541799E+02 -0.21649969997E+03  0.28637965627E+03  0.16519265086E+03 0.  0.
        -24    2    5    5    0    0 -0.42080262348E+02  0.46409542961E+02 -0.12071395131E+03  0.15695188465E+03  0.78341827261E+02 0.  0.
          5    1    3    3  501    0  0.46934964235E+02  0.44655193985E+02 -0.55495738798E+02  0.85433273625E+02  0.47000000000E+01 0. -1.
        -13    1    4    4    0    0  0.15745727087E+02  0.33097735346E+02  0.24599893061E+02  0.44142301086E+02  0.00000000000E+00 0.  1.
         14    1    4    4    0    0  0.20671309561E+02 -0.47669387533E+02  0.42820705428E+02  0.67329684093E+02  0.00000000000E+00 0. -1.
         -5    1    5    5    0  502 -0.41271738535E+02 -0.76493084759E+02 -0.95785748663E+02  0.12942777161E+03  0.47000000000E+01 0.  1.
         13    1    6    6    0    0 -0.19881967794E+01  0.55018709419E+02 -0.90827805686E+02  0.10621064729E+03  0.00000000000E+00 0. -1.
        -14    1    6    6    0    0 -0.40092065569E+02 -0.86091664587E+01 -0.29886145621E+02  0.50741237360E+02  0.00000000000E+00 0.  1.
</event>
<event>
12    1  0.1050869E+000  0.1813785E+03  0.7818608E-02  0.1168530E+00
         21   -1    0    0  503  502  0.00000000000E+00  0.00000000000E+00  0.12913677469E+03  0.12913677469E+03  0.00000000000E+00 0. -1.
         21   -1    0    0  501  503 -0.00000000000E+00 -0.00000000000E+00 -0.32560898426E+03  0.32560898426E+03  0.00000000000E+00 0. -1.
          6    2    1    2  501    0 -0.41119404592E+02  0.36370300223E+02  0.17896776078E+02  0.17393938631E+03  0.16407623637E+03 0.  0.
         24    2    3    3    0    0 -0.68366554291E+02  0.30866398020E+02  0.50716496277E+02  0.13067364767E+03  0.94216341087E+02 0.  0.
         -6    2    1    2    0  502  0.41119404592E+02 -0.36370300223E+02 -0.21436898565E+03  0.28080637265E+03  0.17287149198E+03 0.  0.
        -24    2    5    5    0    0 -0.24623920306E+02  0.39835544865E+01 -0.18057051757E+03  0.19645564768E+03  0.73259153224E+02 0.  0.
          5    1    3    3  501    0  0.27247149699E+02  0.55039022034E+01 -0.32819720199E+02  0.43265738640E+02  0.47000000000E+01 0. -1.
        -11    1    4    4    0    0 -0.34161103659E+02 -0.25139700858E+02 -0.73506093989E+01  0.43046684204E+02  0.00000000000E+00 0.  1.
         12    1    4    4    0    0 -0.34205450632E+02  0.56006098877E+02  0.58067105676E+02  0.87626963464E+02  0.00000000000E+00 0. -1.
         -5    1    5    5    0  502  0.65743324898E+02 -0.40353854709E+02 -0.33798468078E+02  0.84350724970E+02  0.47000000000E+01 0.  1.
         13    1    6    6    0    0 -0.51757378162E+01 -0.24150929429E+02 -0.18616151162E+02  0.30929221431E+02  0.00000000000E+00 0. -1.
        -14    1    6    6    0    0 -0.19448182489E+02  0.28134483915E+02 -0.16195436641E+03  0.16552642625E+03  0.00000000000E+00 0.  1.
</event>
<event>
12    1  0.1050869E+000  0.1973597E+03  0.7818608E-02  0.1152411E+00
         21   -1    0    0  501  502  0.00000000000E+00  0.00000000000E+00  0.19998785644E+03  0.19998785644E+03  0.00000000000E+00 0.  1.
         21   -1    0    0  502  503 -0.00000000000E+00 -0.00000000000E+00 -0.25862446868E+03  0.25862446868E+03  0.00000000000E+00 0. -1.
         -6    2    1    2    0  503 -0.21699973105E+02 -0.92758210428E+02 -0.14508760089E+03  0.24495153403E+03  0.17284637010E+03 0.  0.
        -24    2    3    3    0    0  0.15389878033E+02 -0.60737398953E+02 -0.16342381541E+03  0.19242253072E+03  0.79957531918E+02 0.  0.
          6    2    1    2  501    0  0.21699973105E+02  0.92758210428E+02  0.86450988647E+02  0.21366079109E+03  0.17059362760E+03 0.  0.
         24    2    5    5    0    0  0.12664912575E+02  0.37516282595E+02 -0.22718267075E+02  0.90887344027E+02  0.78590827551E+02 0.  0.
          5    1    5    5  501    0  0.90350605300E+01  0.55241927833E+02  0.10916925572E+03  0.12277344707E+03  0.47000000000E+01 0. -1.
        -11    1    6    6    0    0  0.45957130398E+02  0.22455569493E+02 -0.94680926994E+01  0.52018796747E+02  0.00000000000E+00 0.  1.
         12    1    6    6    0    0 -0.33292217823E+02  0.15060713102E+02 -0.13250174376E+02  0.38868547280E+02  0.00000000000E+00 0. -1.
         -5    1    3    3    0  503 -0.37089851138E+02 -0.32020811475E+02  0.18336214523E+02  0.52529003303E+02  0.47000000000E+01 0.  1.
         13    1    4    4    0    0 -0.85983198168E+01  0.17491834738E+02 -0.26194003934E+02  0.32649980525E+02  0.00000000000E+00 0. -1.
        -14    1    4    4    0    0  0.23988197850E+02 -0.78229233692E+02 -0.13722981147E+03  0.15977255020E+03  0.00000000000E+00 0.  1.
</event>
<event>
12    1  0.1050869E+000  0.1864223E+03  0.7818608E-02  0.1161741E+00
         21   -1    0    0  501  502  0.00000000000E+00  0.00000000000E+00  0.10954981117E+03  0.10954981117E+03  0.00000000000E+00 0.  1.
         21   -1    0    0  502  503 -0.00000000000E+00 -0.00000000000E+00 -0.62975790214E+03  0.62975790214E+03  0.00000000000E+00 0.  1.
         -6    2    1    2    0  503  0.71404639770E+02  0.12294087868E+02 -0.52052768614E+03  0.55288509292E+03  0.17170639699E+03 0.  0.
        -24    2    3    3    0    0  0.36498961865E+02 -0.23422111101E+02 -0.47747361623E+03  0.48678065923E+03  0.84223431987E+02 0.  0.
          6    2    1    2  501    0 -0.71404639770E+02 -0.12294087868E+02  0.31959516557E+00  0.18642262039E+03  0.17176589904E+03 0.  0.
         24    2    5    5    0    0  0.50111952486E+01 -0.54221630928E+02  0.10719171148E+02  0.98516193491E+02  0.81396820648E+02 0.  0.
          5    1    5    5  501    0 -0.76415835019E+02  0.41927543060E+02 -0.10399575982E+02  0.87906426894E+02  0.47000000000E+01 0. -1.
        -13    1    6    6    0    0  0.19481223185E+02  0.15238887606E+00  0.32736884683E+02  0.38095208333E+02  0.00000000000E+00 0.  1.
         14    1    6    6    0    0 -0.14470027936E+02 -0.54374019804E+02 -0.22017713536E+02  0.60420985158E+02  0.00000000000E+00 0. -1.
         -5    1    3    3    0  503  0.34905677905E+02  0.35716198969E+02 -0.43054069901E+02  0.66104433693E+02  0.47000000000E+01 0.  1.
         13    1    4    4    0    0 -0.14391827064E+02  0.10766901594E+02 -0.28875196073E+02  0.34012171416E+02  0.00000000000E+00 0. -1.
        -14    1    4    4    0    0  0.50890788929E+02 -0.34189012695E+02 -0.44859842016E+03  0.45276848781E+03  0.00000000000E+00 0.  1.
</event>
<event>
12    1  0.1050869E+000  0.1901797E+03  0.7818608E-02  0.1158632E+00
         21   -1    0    0  501  502  0.00000000000E+00  0.00000000000E+00  0.14231495530E+03  0.14231495530E+03  0.00000000000E+00 0.  1.
         21   -1    0    0  502  503 -0.00000000000E+00 -0.00000000000E+00 -0.28386699278E+03  0.28386699278E+03  0.00000000000E+00 0.  1.
         -6    2    1    2    0  503 -0.20380274989E+02  0.74536280047E+02  0.66080921395E+00  0.18871023278E+03  0.17216301181E+03 0.  0.
        -24    2    3    3    0    0 -0.71232180272E+02  0.23543492607E+02  0.15934619797E+02  0.11494330298E+03  0.85613849591E+02 0.  0.
          6    2    1    2  501    0  0.20380274989E+02 -0.74536280047E+02 -0.14221284669E+03  0.23747171530E+03  0.17377372976E+03 0.  0.
         24    2    5    5    0    0  0.21528597127E+02 -0.51351562615E+02 -0.17295766603E+03  0.19866213294E+03  0.80323255335E+02 0.  0.
          5    1    5    5  501    0 -0.11483221385E+01 -0.23184717431E+02  0.30744819349E+02  0.38809582360E+02  0.47000000000E+01 0. -1.
        -11    1    6    6    0    0 -0.65513526675E+00  0.12050903711E+02  0.10747921080E+01  0.12116462378E+02  0.00000000000E+00 0.  1.
         12    1    6    6    0    0  0.22183732394E+02 -0.63402466327E+02 -0.17403245814E+03  0.18654567056E+03  0.00000000000E+00 0. -1.
         -5    1    3    3    0  503  0.50851905283E+02  0.50992787440E+02 -0.15273810583E+02  0.73766929796E+02  0.47000000000E+01 0.  1.
         13    1    4    4    0    0 -0.38331920566E+01  0.36561645925E+02 -0.14931089510E+02  0.39678517462E+02  0.00000000000E+00 0. -1.
        -14    1    4    4    0    0 -0.67398988215E+02 -0.13018153318E+02  0.30865709307E+02  0.75264785519E+02  0.00000000000E+00 0.  1.
</event>
<event>
12    1  0.1050869E+000  0.6616967E+03  0.7818608E-02  0.9785186E-01
         21   -1    0    0  501  502  0.00000000000E+00  0.00000000000E+00  0.97400159696E+03  0.97400159696E+03  0.00000000000E+00 0. -1.
         21   -1    0    0  502  503 -0.00000000000E+00 -0.00000000000E+00 -0.56327744499E+03  0.56327744499E+03  0.00000000000E+00 0. -1.
         -6    2    1    2    0  503  0.47214295860E+03  0.43015437471E+03 -0.14026528852E+03  0.67639989617E+03  0.17288929678E+03 0.  0.
        -24    2    3    3    0    0  0.40452527340E+03  0.37596570893E+03 -0.17214096322E+03  0.58395147008E+03  0.79849214613E+02 0.  0.
          6    2    1    2  501    0 -0.47214295860E+03 -0.43015437471E+03  0.55098944049E+03  0.86087914577E+03  0.17196447499E+03 0.  0.
         24    2    5    5    0    0 -0.25436199194E+03 -0.19948653676E+03  0.36056427757E+03  0.49085207436E+03  0.80213835188E+02 0.  0.
          5    1    5    5  501    0 -0.21778096667E+03 -0.23066783794E+03  0.19042516293E+03  0.37002707141E+03  0.47000000000E+01 0. -1.
        -13    1    6    6    0    0 -0.20785410054E+03 -0.19092820423E+03  0.33138706170E+03  0.43528644700E+03  0.00000000000E+00 0.  1.
         14    1    6    6    0    0 -0.46507891398E+02 -0.85583325316E+01  0.29177215866E+02  0.55565627358E+02  0.00000000000E+00 0. -1.
         -5    1    3    3    0  503  0.67617685197E+02  0.54188665770E+02  0.31875674696E+02  0.92448426091E+02  0.47000000000E+01 0.  1.
         13    1    4    4    0    0  0.49608226696E+02  0.87713714310E+02 -0.30009154283E+02  0.10514381187E+03  0.00000000000E+00 0. -1.
        -14    1    4    4    0    0  0.35491704671E+03  0.28825199463E+03 -0.14213180894E+03  0.47880765821E+03  0.00000000000E+00 0.  1.
</event>
<event>
12    1  0.1050869E+000  0.2247209E+03  0.7818608E-02  0.1130895E+00
         21   -1    0    0  503  502  0.00000000000E+00  0.00000000000E+00  0.69974524199E+03  0.69974524199E+03  0.00000000000E+00 0. -1.
         21   -1    0    0  501  503 -0.00000000000E+00 -0.00000000000E+00 -0.74449795057E+02  0.74449795057E+02  0.00000000000E+00 0. -1.
          6    2    1    2  501    0 -0.14246304851E+03 -0.23898181877E+02  0.39023248856E+03  0.44899651309E+03  0.16867018214E+03 0.  0.
         24    2    3    3    0    0 -0.16100445641E+02  0.17188330466E+02  0.14988506899E+03  0.17432474352E+03  0.85842409349E+02 0.  0.
         -6    2    1    2    0  502  0.14246304851E+03  0.23898181877E+02  0.23506295837E+03  0.32519852396E+03  0.17214134396E+03 0.  0.
        -24    2    5    5    0    0  0.13782169599E+03  0.34358490908E+02  0.25444263357E+03  0.30220674219E+03  0.80078308323E+02 0.  0.
          5    1    3    3  501    0 -0.12636260287E+03 -0.41086512343E+02  0.24034741957E+03  0.27467176957E+03  0.47000000000E+01 0. -1.
        -13    1    4    4    0    0 -0.17579539760E+02 -0.33203428422E+02  0.77343966900E+02  0.85986028475E+02  0.00000000000E+00 0.  1.
         14    1    4    4    0    0  0.14790941186E+01  0.50391758888E+02  0.72541102090E+02  0.88338715044E+02  0.00000000000E+00 0. -1.
         -5    1    5    5    0  502  0.46413525195E+01 -0.10460309031E+02 -0.19379675198E+02  0.22991781771E+02  0.47000000000E+01 0.  1.
         13    1    6    6    0    0  0.10901330810E+03  0.28283821725E+01  0.12490809869E+03  0.16581294946E+03  0.00000000000E+00 0. -1.
        -14    1    6    6    0    0  0.28808387890E+02  0.31530108736E+02  0.12953453488E+03  0.13639379273E+03  0.00000000000E+00 0.  1.
</event>
<event>
12    1  0.1050869E+000  0.2643969E+03  0.7818608E-02  0.1106426E+00
         21   -1    0    0  503  502  0.00000000000E+00  0.00000000000E+00  0.83415544755E+03  0.83415544755E+03  0.00000000000E+00 0.  1.
         21   -1    0    0  501  503 -0.00000000000E+00 -0.00000000000E+00 -0.15642868324E+03  0.15642868324E+03  0.00000000000E+00 0.  1.
          6    2    1    2  501    0  0.13346511430E+03 -0.15002622138E+03 -0.33740940526E+01  0.26441845119E+03  0.17200270051E+03 0.  0.
         24    2    3    3    0    0  0.11076400952E+03 -0.13986690294E+03 -0.58188558057E+02  0.20404240152E+03  0.80099793916E+02 0.  0.
         -6    2    1    2    0  502 -0.13346511430E+03  0.15002622138E+03  0.68110085837E+03  0.72616567961E+03  0.15197832456E+03 0.  0.
        -24    2    5    5    0    0 -0.10923092077E+03  0.46927796005E+02  0.44080719566E+03  0.46352578206E+03  0.80072184879E+02 0.  0.
          5    1    3    3  501    0  0.22701104779E+02 -0.10159318436E+02  0.54814464005E+02  0.60376049667E+02  0.47000000000E+01 0. -1.
        -11    1    4    4    0    0  0.29353372940E+02 -0.90161248550E+02 -0.52744665451E+02  0.10850193997E+03  0.00000000000E+00 0.  1.
         12    1    4    4    0    0  0.81410636580E+02 -0.49705654392E+02 -0.54438926064E+01  0.95540461552E+02  0.00000000000E+00 0. -1.
         -5    1    5    5    0  502 -0.24234193530E+02  0.10309842537E+03  0.24029366270E+03  0.26263989755E+03  0.47000000000E+01 0.  1.
         13    1    6    6    0    0 -0.69504645460E+02  0.68594223517E+02  0.28399171682E+03  0.30031210176E+03  0.00000000000E+00 0. -1.
        -14    1    6    6    0    0 -0.39726275310E+02 -0.21666427512E+02  0.15681547884E+03  0.16321368029E+03  0.00000000000E+00 0.  1.
</event>
<event>
12    1  0.1050869E+000  0.2370774E+03  0.7818608E-02  0.1122247E+00
         21   -1    0    0  503  502  0.00000000000E+00  0.00000000000E+00  0.32793428195E+03  0.32793428195E+03  0.00000000000E+00 0. -1.
         21   -1    0    0  501  503 -0.00000000000E+00 -0.00000000000E+00 -0.18994884465E+03  0.18994884465E+03  0.00000000000E+00 0. -1.
          6    2    1    2  501    0 -0.15643572280E+03  0.28403283156E+02  0.15472046122E+03  0.28309736689E+03  0.17586021766E+03 0.  0.
         24    2    3    3    0    0 -0.94364124262E+02  0.44621964975E+02  0.30777812865E+02  0.14345568591E+03  0.93469526312E+02 0.  0.
         -6    2    1    2    0  502  0.15643572280E+03 -0.28403283156E+02 -0.16735023920E+02  0.23478575971E+03  0.17194595103E+03 0.  0.
        -24    2    5    5    0    0  0.40458398858E+02 -0.24659446441E+00 -0.54713917752E+02  0.10945409905E+03  0.85730065647E+02 0.  0.
          5    1    3    3  501    0 -0.62071598540E+02 -0.16218681819E+02  0.12394264836E+03  0.13964168098E+03  0.47000000000E+01 0. -1.
        -13    1    4    4    0    0 -0.11203379084E+03  0.35534936860E+02  0.15838564205E+02  0.11859663630E+03  0.00000000000E+00 0.  1.
         14    1    4    4    0    0  0.17669666573E+02  0.90870281153E+01  0.14939248660E+02  0.24859049605E+02  0.00000000000E+00 0. -1.
         -5    1    5    5    0  502  0.11597732394E+03 -0.28156688691E+02  0.37978893832E+02  0.12533166066E+03  0.47000000000E+01 0.  1.
         13    1    6    6    0    0  0.63186649927E+02  0.17509365819E+02 -0.42472688414E+02  0.78122083187E+02  0.00000000000E+00 0. -1.
        -14    1    6    6    0    0 -0.22728251069E+02 -0.17755960283E+02 -0.12241229338E+02  0.31332015861E+02  0.00000000000E+00 0.  1.
</event>
<event>
12    1  0.1050869E+000  0.3300274E+03  0.7818608E-02  0.1071184E+00
         21   -1    0    0  503  502  0.00000000000E+00  0.00000000000E+00  0.47010060408E+03  0.47010060408E+03  0.00000000000E+00 0. -1.
         21   -1    0    0  501  503 -0.00000000000E+00 -0.00000000000E+00 -0.30539933526E+03  0.30539933526E+03  0.00000000000E+00 0. -1.
          6    2    1    2  501    0 -0.27841288072E+03  0.44154673245E+02 -0.10867206311E+03  0.34695463790E+03  0.17060051624E+03 0.  0.
         24    2    3    3    0    0 -0.12669804397E+03  0.82102003224E+02 -0.77386539155E+02  0.18739817281E+03  0.79600662387E+02 0.  0.
         -6    2    1    2    0  502  0.27841288072E+03 -0.44154673245E+02  0.27337333194E+03  0.42854530144E+03  0.17162380211E+03 0.  0.
        -24    2    5    5    0    0  0.27547695281E+03 -0.68624938762E+02  0.21525350629E+03  0.36524113333E+03  0.80436805946E+02 0.  0.
          5    1    3    3  501    0 -0.15171483675E+03 -0.37947329979E+02 -0.31285523956E+02  0.15955646509E+03  0.47000000000E+01 0. -1.
        -13    1    4    4    0    0 -0.21022203490E+02  0.66007453745E+01  0.16172442307E+02  0.27332229497E+02  0.00000000000E+00 0.  1.
         14    1    4    4    0    0 -0.10567584047E+03  0.75501257849E+02 -0.93558981461E+02  0.16006594331E+03  0.00000000000E+00 0. -1.
         -5    1    5    5    0  502  0.29359279006E+01  0.24470265517E+02  0.58119825643E+02  0.63304168108E+02  0.47000000000E+01 0.  1.
         13    1    6    6    0    0  0.62529994967E+01 -0.19698186384E+02  0.88079128421E+01  0.22465481926E+02  0.00000000000E+00 0. -1.
        -14    1    6    6    0    0  0.26922395332E+03 -0.48926752378E+02  0.20644559345E+03  0.34277565140E+03  0.00000000000E+00 0.  1.
</event>
<event>
12    1  0.1050869E+000  0.3910780E+03  0.7818608E-02  0.1047055E+00
         21   -1    0    0  503  502  0.00000000000E+00  0.00000000000E+00  0.10264012196E+04  0.10264012196E+04  0.00000000000E+00 0. -1.
         21   -1    0    0  501  503 -0.00000000000E+00 -0.00000000000E+00 -0.14994011220E+03  0.14994011220E+03  0.00000000000E+00 0. -1.
          6    2    1    2  501    0 -0.29244734700E+03 -0.18783176490E+03  0.49686865890E+03  0.63133453107E+03  0.17577998538E+03 0.  0.
         24    2    3    3    0    0 -0.10892779560E+03 -0.13410174925E+03  0.18414283687E+03  0.26474774723E+03  0.79587948120E+02 0.  0.
         -6    2    1    2    0  502  0.29244734700E+03  0.18783176490E+03  0.37959244846E+03  0.54500680070E+03  0.17926450627E+03 0.  0.
        -24    2    5    5    0    0  0.66891166848E+02  0.27264000412E+02  0.15327611355E+03  0.18737742433E+03  0.79993613756E+02 0.  0.
          5    1    3    3  501    0 -0.18351955140E+03 -0.53730015649E+02  0.31272582203E+03  0.36658678385E+03  0.47000000000E+01 0. -1.
        -11    1    4    4    0    0 -0.73910376791E+02 -0.29312851900E+02  0.83402106636E+02  0.11522976384E+03  0.00000000000E+00 0.  1.
         12    1    4    4    0    0 -0.35017418806E+02 -0.10478889735E+03  0.10074073024E+03  0.14951798338E+03  0.00000000000E+00 0. -1.
         -5    1    5    5    0  502  0.22555618015E+03  0.16056776448E+03  0.22631633491E+03  0.35762937637E+03  0.47000000000E+01 0.  1.
         11    1    6    6    0    0  0.81307962188E+02  0.80689559044E+01  0.10145483315E+03  0.13026578957E+03  0.00000000000E+00 0. -1.
        -12    1    6    6    0    0 -0.14416795340E+02  0.19195044508E+02  0.51821280403E+02  0.57111634753E+02  0.00000000000E+00 0.  1.
</event>
<event>
12    1  0.1050869E+000  0.2233722E+03  0.7818608E-02  0.1131458E+00
         21   -1    0    0  501  502  0.00000000000E+00  0.00000000000E+00  0.51138664934E+03  0.51138664934E+03  0.00000000000E+00 0. -1.
         21   -1    0    0  502  503 -0.00000000000E+00 -0.00000000000E+00 -0.11142607167E+03  0.11142607167E+03  0.00000000000E+00 0.  1.
         -6    2    1    2    0  503 -0.14241965503E+03 -0.17077330866E+02  0.31027093692E+03  0.38210676652E+03  0.17077041124E+03 0.  0.
        -24    2    3    3    0    0 -0.13367795316E+03  0.24451964362E+02  0.15500513635E+03  0.22107677384E+03  0.79878995469E+02 0.  0.
          6    2    1    2  501    0  0.14241965503E+03  0.17077330866E+02  0.89689640749E+02  0.24070595449E+03  0.17123122232E+03 0.  0.
         24    2    5    5    0    0  0.16200248141E+03  0.46311325359E+02  0.84833764575E+02  0.20487603604E+03  0.79924212173E+02 0.  0.
          5    1    5    5  501    0 -0.19582826374E+02 -0.29233994493E+02  0.48558761738E+01  0.35829918451E+02  0.47000000000E+01 0. -1.
        -13    1    6    6    0    0  0.89815893441E+02  0.62209572093E+01  0.52325730549E+01  0.90183007512E+02  0.00000000000E+00 0.  1.
         14    1    6    6    0    0  0.72186587967E+02  0.40090368150E+02  0.79601191520E+02  0.11469302852E+03  0.00000000000E+00 0. -1.
         -5    1    3    3    0  503 -0.87417018747E+01 -0.41529295227E+02  0.15526580058E+03  0.16102999268E+03  0.47000000000E+01 0.  1.
         11    1    4    4    0    0 -0.77678694886E+02 -0.55701120324E+01  0.13245747161E+03  0.15365541830E+03  0.00000000000E+00 0. -1.
        -12    1    4    4    0    0 -0.55999258273E+02  0.30022076394E+02  0.22547664733E+02  0.67421355542E+02  0.00000000000E+00 0.  1.
</event>
<event>
12    1  0.1050869E+000  0.3242881E+03  0.7818608E-02  0.1073714E+00
         21   -1    0    0  503  502  0.00000000000E+00  0.00000000000E+00  0.44791181004E+03  0.44791181004E+03  0.00000000000E+00 0. -1.
         21   -1    0    0  501  503 -0.00000000000E+00 -0.00000000000E+00 -0.57143618878E+03  0.57143618878E+03  0.00000000000E+00 0.  1.
          6    2    1    2  501    0 -0.91047137749E+02 -0.25935751046E+03 -0.45304881871E+03  0.55714991800E+03  0.17206655534E+03 0.  0.
         24    2    3    3    0    0 -0.46886271492E+02 -0.23924662063E+03 -0.29216454038E+03  0.38904140836E+03  0.80968085245E+02 0.  0.
         -6    2    1    2    0  502  0.91047137749E+02  0.25935751046E+03  0.32952443997E+03  0.46219808083E+03  0.17171141446E+03 0.  0.
        -24    2    5    5    0    0  0.25363846814E+02  0.23230088451E+03  0.21317413757E+03  0.32579486025E+03  0.78051600638E+02 0.  0.
          5    1    3    3  501    0 -0.44160866257E+02 -0.20110889837E+02 -0.16088427833E+03  0.16810850964E+03  0.47000000000E+01 0. -1.
        -13    1    4    4    0    0 -0.33292906269E+01 -0.49710369149E+02 -0.11756809389E+03  0.12768892543E+03  0.00000000000E+00 0.  1.
         14    1    4    4    0    0 -0.43556980865E+02 -0.18953625148E+03 -0.17459644649E+03  0.26135248293E+03  0.00000000000E+00 0. -1.
         -5    1    5    5    0  502  0.65683290935E+02  0.27056625949E+02  0.11635030240E+03  0.13640322058E+03  0.47000000000E+01 0.  1.
         13    1    6    6    0    0  0.28880425762E+02  0.14311060048E+03  0.17710467080E+03  0.22952295611E+03  0.00000000000E+00 0. -1.
        -14    1    6    6    0    0 -0.35165789481E+01  0.89190284032E+02  0.36069466779E+02  0.96271904141E+02  0.00000000000E+00 0.  1.
</event>
<event>
12    1  0.1050869E+000  0.2773908E+03  0.7818608E-02  0.1097282E+00
         21   -1    0    0  501  502  0.00000000000E+00  0.00000000000E+00  0.98327688810E+03  0.98327688810E+03  0.00000000000E+00 0. -1.
         21   -1    0    0  502  503 -0.00000000000E+00 -0.00000000000E+00 -0.87619289969E+02  0.87619289969E+02  0.00000000000E+00 0. -1.
         -6    2    1    2    0  503 -0.89158616177E+02 -0.19829463327E+03  0.26895052135E+03  0.38554413049E+03  0.17041089520E+03 0.  0.
        -24    2    3    3    0    0 -0.80754308459E+02 -0.11616640732E+03  0.83976865679E+02  0.18292867902E+03  0.79968088092E+02 0.  0.
          6    2    1    2  501    0  0.89158616177E+02  0.19829463327E+03  0.62670707678E+03  0.68535204757E+03  0.17226621433E+03 0.  0.
         24    2    5    5    0    0  0.75370346245E+02  0.19489270291E+03  0.39848779989E+03  0.45664302312E+03  0.77887541792E+02 0.  0.
          5    1    5    5  501    0  0.13788269932E+02  0.34019303580E+01  0.22821927689E+03  0.22870902445E+03  0.47000000000E+01 0. -1.
        -11    1    6    6    0    0  0.85934676433E+02  0.12148364817E+03  0.26958135135E+03  0.30792393603E+03  0.00000000000E+00 0.  1.
         12    1    6    6    0    0 -0.10564330188E+02  0.73409054741E+02  0.12890644854E+03  0.14871908709E+03  0.00000000000E+00 0. -1.
         -5    1    3    3    0  503 -0.84043077173E+01 -0.82128225951E+02  0.18497365567E+03  0.20261545148E+03  0.47000000000E+01 0.  1.
         13    1    4    4    0    0 -0.48622381475E+02 -0.41267533778E+02 -0.28577318906E+01  0.63838170055E+02  0.00000000000E+00 0. -1.
        -14    1    4    4    0    0 -0.32131926984E+02 -0.74898873542E+02  0.86834597570E+02  0.11909050896E+03  0.00000000000E+00 0.  1.
</event>
<event>
12    1  0.1050869E+000  0.1787105E+03  0.7818608E-02  0.1169420E+00
         21   -1    0    0  503  502  0.00000000000E+00  0.00000000000E+00  0.36137256958E+03  0.36137256958E+03  0.00000000000E+00 0.  1.
         21   -1    0    0  501  503 -0.00000000000E+00 -0.00000000000E+00 -0.16453366157E+03  0.16453366157E+03  0.00000000000E+00 0.  1.
          6    2    1    2  501    0  0.18410870932E+02  0.40075874917E+02  0.27838962733E+03  0.33081451308E+03  0.17318320224E+03 0.  0.
         24    2    3    3    0    0 -0.31799045015E+02  0.74979853714E+02  0.20613969026E+03  0.23604391214E+03  0.81178807773E+02 0.  0.
         -6    2    1    2    0  502 -0.18410870932E+02 -0.40075874917E+02 -0.81550719312E+02  0.19509171807E+03  0.17165436995E+03 0.  0.
        -24    2    5    5    0    0 -0.69825571399E+02  0.38877679027E+01 -0.69110541534E+02  0.12614883347E+03  0.79035030681E+02 0.  0.
          5    1    3    3  501    0  0.50209915947E+02 -0.34903978797E+02  0.72249937067E+02  0.94770600934E+02  0.47000000000E+01 0. -1.
        -11    1    4    4    0    0  0.14539388522E+02 -0.54328200929E+01  0.84957961501E+01  0.17694290180E+02  0.00000000000E+00 0.  1.
         12    1    4    4    0    0 -0.46338433537E+02  0.80412673807E+02  0.19764389411E+03  0.21834962196E+03  0.00000000000E+00 0. -1.
         -5    1    5    5    0  502  0.51414700467E+02 -0.43963642820E+02 -0.12440177778E+02  0.68942884602E+02  0.47000000000E+01 0.  1.
         13    1    6    6    0    0 -0.11765097307E+02 -0.33376719246E+02 -0.14857842640E+02  0.38382006073E+02  0.00000000000E+00 0. -1.
        -14    1    6    6    0    0 -0.58060474093E+02  0.37264487149E+02 -0.54252698894E+02  0.87766827399E+02  0.00000000000E+00 0.  1.
</event>
<event>
12    1  0.1050869E+000  0.1991282E+03  0.7818608E-02  0.1150482E+00
         21   -1    0    0  503  502  0.00000000000E+00  0.00000000000E+00  0.56169131501E+03  0.56169131501E+03  0.00000000000E+00 0. -1.
         21   -1    0    0  501  503 -0.00000000000E+00 -0.00000000000E+00 -0.70755515526E+02  0.70755515526E+02  0.00000000000E+00 0. -1.
          6    2    1    2  501    0 -0.24172134037E+02  0.97820848411E+02  0.22995139032E+03  0.30418694500E+03  0.17175227844E+03 0.  0.
         24    2    3    3    0    0 -0.56816870141E+02  0.35062537702E+02  0.49458886138E+02  0.11026964710E+03  0.72496036931E+02 0.  0.
         -6    2    1    2    0  502  0.24172134037E+02 -0.97820848411E+02  0.26098440916E+03  0.32825988554E+03  0.17172210160E+03 0.  0.
        -24    2    5    5    0    0 -0.33169924111E+02 -0.51998508003E+00  0.11394755710E+03  0.14279426742E+03  0.79408077612E+02 0.  0.
          5    1    3    3  501    0  0.32644736105E+02  0.62758310709E+02  0.18049250418E+03  0.19391729790E+03  0.47000000000E+01 0. -1.
        -11    1    4    4    0    0  0.15881287068E+02  0.17474618998E+02  0.93324815024E+01  0.25390407619E+02  0.00000000000E+00 0.  1.
         12    1    4    4    0    0 -0.72698157209E+02  0.17587918704E+02  0.40126404636E+02  0.84879239481E+02  0.00000000000E+00 0. -1.
         -5    1    5    5    0  502  0.57342058148E+02 -0.97300863331E+02  0.14703685206E+03  0.18546561811E+03  0.47000000000E+01 0.  1.
         13    1    6    6    0    0 -0.34353795068E+02  0.32419473669E+02  0.91322806622E+02  0.10281566280E+03  0.00000000000E+00 0. -1.
        -14    1    6    6    0    0  0.11838709569E+01 -0.32939458749E+02  0.22624750477E+02  0.39978604619E+02  0.00000000000E+00 0.  1.
</event>
<event>
12    1  0.1050869E+000  0.2831896E+03  0.7818608E-02  0.1094938E+00
         21   -1    0    0  501  502  0.00000000000E+00  0.00000000000E+00  0.53824089097E+03  0.53824089097E+03  0.00000000000E+00 0. -1.
         21   -1    0    0  502  503 -0.00000000000E+00 -0.00000000000E+00 -0.15490818866E+03  0.15490818866E+03  0.00000000000E+00 0. -1.
         -6    2    1    2    0  503 -0.10672711794E+03 -0.19902452533E+03  0.10743104752E+03  0.30288249580E+03  0.17086525951E+03 0.  0.
        -24    2    3    3    0    0 -0.12732948410E+03 -0.96646475393E+02  0.85943457649E+02  0.19616075894E+03  0.74427325009E+02 0.  0.
          6    2    1    2  501    0  0.10672711794E+03  0.19902452533E+03  0.27590165479E+03  0.39026658382E+03  0.15869733440E+03 0.  0.
         24    2    5    5    0    0  0.69699010221E+02  0.50811568894E+02  0.15729029758E+03  0.19680106938E+03  0.80936120735E+02 0.  0.
          5    1    5    5  501    0  0.37028107714E+02  0.14821295644E+03  0.11861135721E+03  0.19346551444E+03  0.47000000000E+01 0. -1.
        -11    1    6    6    0    0  0.23085726428E+02  0.62932228104E+02  0.68823842716E+02  0.96073604206E+02  0.00000000000E+00 0.  1.
         12    1    6    6    0    0  0.46613283793E+02 -0.12120659210E+02  0.88466454860E+02  0.10072746518E+03  0.00000000000E+00 0. -1.
         -5    1    3    3    0  503  0.20602366166E+02 -0.10237804994E+03  0.21487589875E+02  0.10672173686E+03  0.47000000000E+01 0.  1.
         13    1    4    4    0    0 -0.58567185632E+02 -0.89819234045E+02  0.52916029426E+02  0.11957305803E+03  0.00000000000E+00 0. -1.
        -14    1    4    4    0    0 -0.68762298468E+02 -0.68272413478E+01  0.33027428223E+02  0.76587700906E+02  0.00000000000E+00 0.  1.
</event>
<event>
12    1  0.1050869E+000  0.3237064E+03  0.7818608E-02  0.1074051E+00
         21   -1    0    0  501  502  0.00000000000E+00  0.00000000000E+00  0.31467458891E+03  0.31467458891E+03  0.00000000000E+00 0. -1.
         21   -1    0    0  502  503 -0.00000000000E+00 -0.00000000000E+00 -0.34626700335E+03  0.34626700335E+03  0.00000000000E+00 0. -1.
         -6    2    1    2    0  503 -0.11514024144E+03  0.24873257090E+03  0.50936548458E+02  0.32768943893E+03  0.17222273194E+03 0.  0.
        -24    2    3    3    0    0 -0.37403268521E+02  0.15685556454E+03 -0.30677733734E+02  0.18219922513E+03  0.79074405889E+02 0.  0.
          6    2    1    2  501    0  0.11514024144E+03 -0.24873257090E+03 -0.82528962900E+02  0.33325215333E+03  0.17064817888E+03 0.  0.
         24    2    5    5    0    0  0.85055761336E+02 -0.75363087202E+02 -0.74771789700E+02  0.15705817626E+03  0.78500781814E+02 0.  0.
          5    1    5    5  501    0  0.30084480105E+02 -0.17336948369E+03 -0.77571732004E+01  0.17619397707E+03  0.47000000000E+01 0. -1.
        -13    1    6    6    0    0  0.16152392810E+02 -0.13468540636E+01 -0.50534295576E+02  0.53070037109E+02  0.00000000000E+00 0.  1.
         14    1    6    6    0    0  0.68903368526E+02 -0.74016233138E+02 -0.24237494124E+02  0.10398813915E+03  0.00000000000E+00 0. -1.
         -5    1    3    3    0  503 -0.77736972920E+02  0.91877006353E+02  0.81614282192E+02  0.14549021380E+03  0.47000000000E+01 0.  1.
         13    1    4    4    0    0  0.23440758657E+02  0.35288895587E+02  0.19000313100E+01  0.42407374797E+02  0.00000000000E+00 0. -1.
        -14    1    4    4    0    0 -0.60844027178E+02  0.12156666896E+03 -0.32577765044E+02  0.13979185033E+03  0.00000000000E+00 0.  1.
</event>
<event>
12    1  0.1050869E+000  0.1946994E+03  0.7818608E-02  0.1154437E+00
         21   -1    0    0  503  502  0.00000000000E+00  0.00000000000E+00  0.55804105861E+03  0.55804105861E+03  0.00000000000E+00 0.  1.
         21   -1    0    0  501  503 -0.00000000000E+00 -0.00000000000E+00 -0.69203901818E+02  0.69203901818E+02  0.00000000000E+00 0.  1.
          6    2    1    2  501    0 -0.60015885031E+02 -0.66607959757E+02  0.29112583573E+03  0.35023149333E+03  0.17282742820E+03 0.  0.
         24    2    3    3    0    0 -0.58018821208E+02 -0.11104856767E+03  0.21659115937E+03  0.26330356989E+03  0.81969943278E+02 0.  0.
         -6    2    1    2    0  502  0.60015885031E+02  0.66607959757E+02  0.19771132106E+03  0.27701346709E+03  0.17207024064E+03 0.  0.
        -24    2    5    5    0    0  0.68240430340E+02  0.10564021186E+03  0.10486728962E+03  0.17585387029E+03  0.64115712347E+02 0.  0.
          5    1    3    3  501    0 -0.19970638229E+01  0.44440607913E+02  0.74534676353E+02  0.86927923446E+02  0.47000000000E+01 0. -1.
        -13    1    4    4    0    0 -0.61649819903E+00 -0.40433478089E+02  0.16849491328E+02  0.43808122288E+02  0.00000000000E+00 0.  1.
         14    1    4    4    0    0 -0.57402323009E+02 -0.70615089581E+02  0.19974166805E+03  0.21949544760E+03  0.00000000000E+00 0. -1.
         -5    1    5    5    0  502 -0.82245453086E+01 -0.39032252102E+02  0.92844031448E+02  0.10115959680E+03  0.47000000000E+01 0.  1.
         13    1    6    6    0    0  0.12762861400E+01 -0.36523146283E+01 -0.54894777768E+01  0.67158524937E+01  0.00000000000E+00 0. -1.
        -14    1    6    6    0    0  0.66964144200E+02  0.10929252649E+03  0.11035676739E+03  0.16913801780E+03  0.00000000000E+00 0.  1.
</event>
<event>
12    1  0.1050869E+000  0.2610681E+03  0.7818608E-02  0.1106532E+00
         21   -1    0    0  501  502  0.00000000000E+00  0.00000000000E+00  0.20956707830E+03  0.20956707830E+03  0.00000000000E+00 0.  1.
         21   -1    0    0  502  503 -0.00000000000E+00 -0.00000000000E+00 -0.33506232478E+03  0.33506232478E+03  0.00000000000E+00 0.  1.
         -6    2    1    2    0  503  0.11524163423E+03  0.15800589748E+03 -0.10999084611E+03  0.28329231871E+03  0.17294523327E+03 0.  0.
        -24    2    3    3    0    0  0.13276381791E+03  0.89994120206E+02 -0.11452030054E+03  0.21275697490E+03  0.80158955300E+02 0.  0.
          6    2    1    2  501    0 -0.11524163423E+03 -0.15800589748E+03 -0.15504400368E+02  0.26133708436E+03  0.17265626931E+03 0.  0.
         24    2    5    5    0    0 -0.38646634997E+02 -0.79474864845E+01  0.11739756279E+02  0.90607313409E+02  0.80716407426E+02 0.  0.
          5    1    5    5  501    0 -0.76594999238E+02 -0.15005841100E+03 -0.27244156648E+02  0.17072977096E+03  0.47000000000E+01 0. -1.
        -13    1    6    6    0    0  0.24235325190E+01  0.63077127603E+01 -0.29752934229E+02  0.30510618567E+02  0.00000000000E+00 0.  1.
         14    1    6    6    0    0 -0.41070167516E+02 -0.14255199245E+02  0.41492690508E+02  0.60096694842E+02  0.00000000000E+00 0. -1.
         -5    1    3    3    0  503 -0.17522183674E+02  0.68011777275E+02  0.45294544301E+01  0.70535343809E+02  0.47000000000E+01 0.  1.
         13    1    4    4    0    0  0.37044257139E+02  0.51230052719E+02 -0.68885855754E+01  0.63594401482E+02  0.00000000000E+00 0. -1.
        -14    1    4    4    0    0  0.95719560770E+02  0.38764067487E+02 -0.10763171496E+03  0.14916257342E+03  0.00000000000E+00 0.  1.
</event>
<event>
12    1  0.1050869E+000  0.1758288E+03  0.7818608E-02  0.1172699E+00
         21   -1    0    0  503  502  0.00000000000E+00  0.00000000000E+00  0.11562525472E+03  0.11562525472E+03  0.00000000000E+00 0. -1.
         21   -1    0    0  501  503 -0.00000000000E+00 -0.00000000000E+00 -0.41203744320E+03  0.41203744320E+03  0.00000000000E+00 0. -1.
          6    2    1    2  501    0  0.30206951206E+02  0.23214880366E+02  0.11539505985E+02  0.17305023209E+03  0.16840971485E+03 0.  0.
         24    2    3    3    0    0  0.48224902145E+02  0.40805618862E+02  0.60136120474E+02  0.11811571128E+03  0.79650665703E+02 0.  0.
         -6    2    1    2    0  502 -0.30206951206E+02 -0.23214880366E+02 -0.30795169446E+03  0.35461246583E+03  0.17165186930E+03 0.  0.
        -24    2    5    5    0    0  0.59662546961E+01  0.45951617324E+02 -0.16265899442E+03  0.18961378732E+03  0.85722182339E+02 0.  0.
          5    1    3    3  501    0 -0.18017950939E+02 -0.17590738496E+02 -0.48596614489E+02  0.54934520811E+02  0.47000000000E+01 0. -1.
        -11    1    4    4    0    0 -0.12982890377E+02  0.35532374210E+02  0.10851742649E+02  0.39355627019E+02  0.00000000000E+00 0.  1.
         12    1    4    4    0    0  0.61207792522E+02  0.52732446516E+01  0.49284377825E+02  0.78760084257E+02  0.00000000000E+00 0. -1.
         -5    1    5    5    0  502 -0.36173205902E+02 -0.69166497690E+02 -0.14529270003E+03  0.16499867851E+03  0.47000000000E+01 0.  1.
         11    1    6    6    0    0  0.43642522171E+02  0.10274163071E+02 -0.64006765473E+02  0.78147899489E+02  0.00000000000E+00 0. -1.
        -12    1    6    6    0    0 -0.37676267475E+02  0.35677454253E+02 -0.98652228951E+02  0.11146588783E+03  0.00000000000E+00 0.  1.
</event>
<event>
12    1  0.1050869E+000  0.2004449E+03  0.7818608E-02  0.1149401E+00
         21   -1    0    0  501  502  0.00000000000E+00  0.00000000000E+00  0.21719348774E+03  0.21719348774E+03  0.00000000000E+00 0.  1.
         21   -1    0    0  502  503 -0.00000000000E+00 -0.00000000000E+00 -0.48219087367E+03  0.48219087367E+03  0.00000000000E+00 0.  1.
         -6    2    1    2    0  503 -0.80106475923E+02  0.66051370426E+02  0.14209145211E+03  0.24569930979E+03  0.17145943849E+03 0.  0.
        -24    2    3    3    0    0 -0.86370010688E+02 -0.13580353868E+02  0.66182363287E+02  0.13540550603E+03  0.79437655400E+02 0.  0.
          6    2    1    2  501    0  0.80106475923E+02 -0.66051370426E+02 -0.40708883804E+03  0.45368505162E+03  0.17125703777E+03 0.  0.
         24    2    5    5    0    0  0.41613161784E+02  0.54693629606E+01 -0.33072646678E+03  0.34210435310E+03  0.76771240817E+02 0.  0.
          5    1    5    5  501    0  0.38493314140E+02 -0.71520733386E+02 -0.76362371264E+02  0.11158069852E+03  0.47000000000E+01 0. -1.
        -13    1    6    6    0    0  0.50678102363E+02 -0.21170271142E+02 -0.26459350237E+03  0.27023355072E+03  0.00000000000E+00 0.  1.
         14    1    6    6    0    0 -0.90649405795E+01  0.26639634103E+02 -0.66132964407E+02  0.71870802376E+02  0.00000000000E+00 0. -1.
         -5    1    3    3    0  503  0.62635347648E+01  0.79631724294E+02  0.75909088821E+02  0.11029380376E+03  0.47000000000E+01 0.  1.
         11    1    4    4    0    0 -0.78836079660E+02  0.20840896167E+02  0.55300982701E+02  0.98527504266E+02  0.00000000000E+00 0. -1.
        -12    1    4    4    0    0 -0.75339310286E+01 -0.34421250034E+02  0.10881380587E+02  0.36878001765E+02  0.00000000000E+00 0.  1.
</event>
<event>
12    1  0.1050869E+000  0.2928241E+03  0.7818608E-02  0.1089030E+00
         21   -1    0    0  501  502  0.00000000000E+00  0.00000000000E+00  0.85255255914E+03  0.85255255914E+03  0.00000000000E+00 0.  1.
         21   -1    0    0  502  503 -0.00000000000E+00 -0.00000000000E+00 -0.16467987010E+03  0.16467987010E+03  0.00000000000E+00 0.  1.
         -6    2    1    2    0  503  0.11340452534E+03  0.20767303089E+03  0.66182228976E+03  0.72325188236E+03  0.17057510951E+03 0.  0.
        -24    2    3    3    0    0  0.24166116539E+02  0.75794050772E+02  0.39893003498E+03  0.41585964657E+03  0.86402161493E+02 0.  0.
          6    2    1    2  501    0 -0.11340452534E+03 -0.20767303089E+03  0.26050399279E+02  0.29398054688E+03  0.17250294059E+03 0.  0.
         24    2    5    5    0    0 -0.42134849753E+02 -0.10183183148E+03 -0.51090052711E+02  0.14480124039E+03  0.78817119119E+02 0.  0.
          5    1    5    5  501    0 -0.71269675588E+02 -0.10584119941E+03  0.77140451990E+02  0.14917930649E+03  0.47000000000E+01 0. -1.
        -13    1    6    6    0    0  0.16796005686E+02 -0.11825977044E+02  0.80177736374E+01  0.22050946333E+02  0.00000000000E+00 0.  1.
         14    1    6    6    0    0 -0.58930855440E+02 -0.90005854436E+02 -0.59107826348E+02  0.12275029406E+03  0.00000000000E+00 0. -1.
         -5    1    3    3    0  503  0.89238408802E+02  0.13187898012E+03  0.26289225477E+03  0.30739223579E+03  0.47000000000E+01 0.  1.
         11    1    4    4    0    0 -0.52547910402E+01  0.85476275919E+02  0.26970402003E+03  0.28297361183E+03  0.00000000000E+00 0. -1.
        -12    1    4    4    0    0  0.29420907580E+02 -0.96822251468E+01  0.12922601496E+03  0.13288603474E+03  0.00000000000E+00 0.  1.
</event>
<event>
12    1  0.1050869E+000  0.3608516E+03  0.7818608E-02  0.1059042E+00
         21   -1    0    0  501  502  0.00000000000E+00  0.00000000000E+00  0.70485312998E+03  0.70485312998E+03  0.00000000000E+00 0. -1.
         21   -1    0    0  502  503 -0.00000000000E+00 -0.00000000000E+00 -0.19513194056E+03  0.19513194056E+03  0.00000000000E+00 0. -1.
         -6    2    1    2    0  503 -0.16193775426E+03  0.26249357466E+03  0.37990742270E+03  0.52396900602E+03  0.18731565994E+03 0.  0.
        -24    2    3    3    0    0 -0.87277428212E+02  0.21409928343E+03  0.35543311321E+03  0.43157174668E+03  0.80409091060E+02 0.  0.
          6    2    1    2  501    0  0.16193775426E+03 -0.26249357466E+03  0.12981376671E+03  0.37601606452E+03  0.17149272217E+03 0.  0.
         24    2    5    5    0    0  0.88109182808E+02 -0.19146015194E+03  0.15155792139E+03  0.27117664747E+03  0.78401229075E+02 0.  0.
          5    1    5    5  501    0  0.73828571453E+02 -0.71033422714E+02 -0.21744154671E+02  0.10483941705E+03  0.47000000000E+01 0. -1.
        -13    1    6    6    0    0  0.77162744899E+02 -0.11067051450E+03  0.57373857215E+02  0.14660767876E+03  0.00000000000E+00 0.  1.
         14    1    6    6    0    0  0.10946437908E+02 -0.80789637440E+02  0.94184064170E+02  0.12456896870E+03  0.00000000000E+00 0. -1.
         -5    1    3    3    0  503 -0.74660326049E+02  0.48394291228E+02  0.24474309490E+02  0.92397259343E+02  0.47000000000E+01 0.  1.
         11    1    4    4    0    0 -0.19254901126E+02  0.13141339324E+03  0.23876337204E+03  0.27321818931E+03  0.00000000000E+00 0. -1.
        -12    1    4    4    0    0 -0.68022527086E+02  0.82685890192E+02  0.11666974117E+03  0.15835355737E+03  0.00000000000E+00 0.  1.
</event>
<event>
12    1  0.1050869E+000  0.2865546E+03  0.7818608E-02  0.1093605E+00
         21   -1    0    0  501  502  0.00000000000E+00  0.00000000000E+00  0.10809682207E+03  0.10809682207E+03  0.00000000000E+00 0. -1.
         21   -1    0    0  502  503 -0.00000000000E+00 -0.00000000000E+00 -0.76459195870E+03  0.76459195870E+03  0.00000000000E+00 0. -1.
         -6    2    1    2    0  503  0.61218437077E+02  0.22081428833E+03 -0.24359833629E+03  0.37610330975E+03  0.17206656618E+03 0.  0.
        -24    2    3    3    0    0  0.68561854934E+02  0.55108266579E+02 -0.86908149299E+02  0.14787904258E+03  0.81102008739E+02 0.  0.
          6    2    1    2  501    0 -0.61218437077E+02 -0.22081428833E+03 -0.41289680034E+03  0.49658547102E+03  0.15364476996E+03 0.  0.
         24    2    5    5    0    0 -0.66338007037E+02 -0.21318392021E+03 -0.29392527328E+03  0.37716710240E+03  0.77555411462E+02 0.  0.
          5    1    5    5  501    0  0.51195699603E+01 -0.76303681186E+01 -0.11897152706E+03  0.11941836863E+03  0.47000000000E+01 0. -1.
        -11    1    6    6    0    0 -0.15064767665E+02 -0.13689603818E+03 -0.13085235888E+03  0.18997318842E+03  0.00000000000E+00 0.  1.
         12    1    6    6    0    0 -0.51273239372E+02 -0.76287882030E+02 -0.16307291440E+03  0.18719391398E+03  0.00000000000E+00 0. -1.
         -5    1    3    3    0  503 -0.73434178568E+01  0.16570602175E+03 -0.15669018699E+03  0.22822426718E+03  0.47000000000E+01 0.  1.
         11    1    4    4    0    0  0.68275675246E+01  0.16045302663E+02  0.14649959387E+02  0.22774738767E+02  0.00000000000E+00 0. -1.
        -12    1    4    4    0    0  0.61734287409E+02  0.39062963915E+02 -0.10155810869E+03  0.12510430381E+03  0.00000000000E+00 0.  1.
</event>
<event>
12    1  0.1050869E+000  0.3810043E+03  0.7818608E-02  0.1050601E+00
         21   -1    0    0  501  502  0.00000000000E+00  0.00000000000E+00  0.14502556866E+03  0.14502556866E+03  0.00000000000E+00 0. -1.
         21   -1    0    0  502  503 -0.00000000000E+00 -0.00000000000E+00 -0.10493317714E+04  0.10493317714E+04  0.00000000000E+00 0. -1.
         -6    2    1    2    0  503  0.35600088289E+02 -0.33808678034E+03 -0.58201973436E+03  0.69563730986E+03  0.17202981822E+03 0.  0.
        -24    2    3    3    0    0 -0.44182052143E+01 -0.16586537735E+03 -0.19290678069E+03  0.26821169507E+03  0.84815348820E+02 0.  0.
          6    2    1    2  501    0 -0.35600088289E+02  0.33808678034E+03 -0.32228646839E+03  0.49872003022E+03  0.17112294850E+03 0.  0.
         24    2    5    5    0    0  0.43302546346E+01  0.19320988047E+03 -0.10438221747E+03  0.23397845628E+03  0.80631641820E+02 0.  0.
          5    1    5    5  501    0 -0.39930342924E+02  0.14487689987E+03 -0.21790425092E+03  0.26474157394E+03  0.47000000000E+01 0. -1.
        -11    1    6    6    0    0 -0.11892048515E+01  0.11330966732E+03 -0.15559449759E+02  0.11437915629E+03  0.00000000000E+00 0.  1.
         12    1    6    6    0    0  0.55194594861E+01  0.79900213153E+02 -0.88822767716E+02  0.11959930000E+03  0.00000000000E+00 0. -1.
         -5    1    3    3    0  503  0.40018293503E+02 -0.17222140299E+03 -0.38911295367E+03  0.42742561479E+03  0.47000000000E+01 0.  1.
         13    1    4    4    0    0  0.28033194033E+02 -0.67844847956E+02 -0.12392704889E+03  0.14403713691E+03  0.00000000000E+00 0. -1.
        -14    1    4    4    0    0 -0.32451399247E+02 -0.98020529398E+02 -0.68979731804E+02  0.12417455817E+03  0.00000000000E+00 0.  1.
</event>
<event>
12    1  0.1050869E+000  0.1831549E+03  0.7818608E-02  0.1164879E+00
         21   -1    0    0  501  502  0.00000000000E+00  0.00000000000E+00  0.13306780255E+04  0.13306780255E+04  0.00000000000E+00 0.  1.
         21   -1    0    0  502  503 -0.00000000000E+00 -0.00000000000E+00 -0.53778479912E+02  0.53778479912E+02  0.00000000000E+00 0.  1.
         -6    2    1    2    0  503 -0.36026223064E+02 -0.50686374367E+02  0.13375480879E+03  0.22679517871E+03  0.17227509082E+03 0.  0.
        -24    2    3    3    0    0 -0.22252367232E+01 -0.86377871962E+02  0.33466782018E+02  0.11500891841E+03  0.68124425661E+02 0.  0.
          6    2    1    2  501    0  0.36026223064E+02  0.50686374367E+02  0.11431447368E+04  0.11576613267E+04  0.17185127518E+03 0.  0.
         24    2    5    5    0    0 -0.31022693322E+01  0.91477781954E+02  0.90728571380E+03  0.91507825520E+03  0.76308833115E+02 0.  0.
          5    1    5    5  501    0  0.39128492396E+02 -0.40791407587E+02  0.23585902304E+03  0.24258307155E+03  0.47000000000E+01 0. -1.
        -13    1    6    6    0    0 -0.38911303915E+02  0.37589607362E+02  0.44900697166E+03  0.45225471668E+03  0.00000000000E+00 0.  1.
         14    1    6    6    0    0  0.35809034583E+02  0.53888174592E+02  0.45827874214E+03  0.46282353853E+03  0.00000000000E+00 0. -1.
         -5    1    3    3    0  503 -0.33800986340E+02  0.35691497595E+02  0.10028802677E+03  0.11178626030E+03  0.47000000000E+01 0.  1.
         13    1    4    4    0    0 -0.30345586026E+02 -0.34040120301E+02  0.31756941278E+02  0.55570565057E+02  0.00000000000E+00 0. -1.
        -14    1    4    4    0    0  0.28120349303E+02 -0.52337751661E+02  0.17098407398E+01  0.59438353351E+02  0.00000000000E+00 0.  1.
</event>
<event>
12    1  0.1050869E+000  0.2076958E+03  0.7818608E-02  0.1143416E+00
         21   -1    0    0  501  502  0.00000000000E+00  0.00000000000E+00  0.13509911254E+03  0.13509911254E+03  0.00000000000E+00 0.  1.
         21   -1    0    0  502  503 -0.00000000000E+00 -0.00000000000E+00 -0.32109103798E+03  0.32109103798E+03  0.00000000000E+00 0.  1.
         -6    2    1    2    0  503 -0.76623723122E+02  0.88130552488E+02 -0.11044675605E+03  0.23518193132E+03  0.17167954355E+03 0.  0.
        -24    2    3    3    0    0 -0.51072067295E+02 -0.54385879477E+01 -0.97563979189E+02  0.13722210743E+03  0.81689916370E+02 0.  0.
          6    2    1    2  501    0  0.76623723122E+02 -0.88130552488E+02 -0.75545169393E+02  0.22100821919E+03  0.17175380958E+03 0.  0.
         24    2    5    5    0    0 -0.78538655880E+01 -0.29545709306E+02 -0.78160251953E+02  0.11806369286E+03  0.83038415467E+02 0.  0.
          5    1    5    5  501    0  0.84477588710E+02 -0.58584843182E+02  0.26150825595E+01  0.10294452633E+03  0.47000000000E+01 0. -1.
        -13    1    6    6    0    0 -0.41272522205E+01 -0.58774326758E+02 -0.49387350429E+02  0.76880206030E+02  0.00000000000E+00 0.  1.
         14    1    6    6    0    0 -0.37266133675E+01  0.29228617452E+02 -0.28772901524E+02  0.41183486830E+02  0.00000000000E+00 0. -1.
         -5    1    3    3    0  503 -0.25551655828E+02  0.93569140436E+02 -0.12882776857E+02  0.97959823892E+02  0.47000000000E+01 0.  1.
         11    1    4    4    0    0 -0.23754264658E+02 -0.30255895008E+02 -0.92231192480E+02  0.99931362136E+02  0.00000000000E+00 0. -1.
        -12    1    4    4    0    0 -0.27317802637E+02  0.24817307060E+02 -0.53327867086E+01  0.37290745296E+02  0.00000000000E+00 0.  1.
</event>
<event>
12    1  0.1050869E+000  0.1965101E+03  0.7818608E-02  0.1152980E+00
         21   -1    0    0  503  502  0.00000000000E+00  0.00000000000E+00  0.86593044939E+03  0.86593044939E+03  0.00000000000E+00 0. -1.
         21   -1    0    0  501  503 -0.00000000000E+00 -0.00000000000E+00 -0.51444117612E+02  0.51444117612E+02  0.00000000000E+00 0. -1.
          6    2    1    2  501    0 -0.69616510991E+02  0.63912935154E+02  0.57684393603E+03  0.60900767984E+03  0.17090964189E+03 0.  0.
         24    2    3    3    0    0 -0.65123393982E+02  0.92049392687E+02  0.27305173310E+03  0.30384601629E+03  0.71070426530E+02 0.  0.
         -6    2    1    2    0  502  0.69616510991E+02 -0.63912935154E+02  0.23764239575E+03  0.30836688716E+03  0.17229308447E+03 0.  0.
        -24    2    5    5    0    0  0.29405197282E+02 -0.10595246833E+03  0.18957527498E+03  0.23275729651E+03  0.78400146802E+02 0.  0.
          5    1    3    3  501    0 -0.44931170085E+01 -0.28136457532E+02  0.30379220293E+03  0.30516166355E+03  0.47000000000E+01 0. -1.
        -13    1    4    4    0    0 -0.23071696229E+02  0.26642732904E+02  0.23250845014E+02  0.42222507947E+02  0.00000000000E+00 0.  1.
         14    1    4    4    0    0 -0.42051697753E+02  0.65406659783E+02  0.24980088808E+03  0.26162350834E+03  0.00000000000E+00 0. -1.
         -5    1    5    5    0  502  0.40211313709E+02  0.42039533180E+02  0.48067120766E+02  0.75609590654E+02  0.47000000000E+01 0.  1.
         11    1    6    6    0    0  0.12576442487E+02 -0.11279115435E+03  0.14166246385E+03  0.18151656969E+03  0.00000000000E+00 0. -1.
        -12    1    6    6    0    0  0.16828754794E+02  0.68386860208E+01  0.47912811133E+02  0.51240726820E+02  0.00000000000E+00 0.  1.
</event>
<event>
12    1  0.1050869E+000  0.2540187E+03  0.7818608E-02  0.1111076E+00
         21   -1    0    0  503  502  0.00000000000E+00  0.00000000000E+00  0.12801788555E+03  0.12801788555E+03  0.00000000000E+00 0.  1.
         21   -1    0    0  501  503 -0.00000000000E+00 -0.00000000000E+00 -0.58583659275E+03  0.58583659275E+03  0.00000000000E+00 0.  1.
          6    2    1    2  501    0  0.70924815431E+01  0.18450030984E+03 -0.36450228518E+03  0.44323767924E+03  0.17177618220E+03 0.  0.
         24    2    3    3    0    0  0.14424559689E+02  0.15995486872E+02 -0.13662185216E+03  0.15969012329E+03  0.79821560152E+02 0.  0.
         -6    2    1    2    0  502 -0.70924815431E+01 -0.18450030984E+03 -0.93316422030E+02  0.27061679906E+03  0.17445581013E+03 0.  0.
        -24    2    5    5    0    0  0.51130223876E+02 -0.88267245936E+02 -0.60958462117E+02  0.15348519110E+03  0.97140945455E+02 0.  0.
          5    1    3    3  501    0 -0.73320781454E+01  0.16850482297E+03 -0.22788043302E+03  0.28354755595E+03  0.47000000000E+01 0. -1.
        -11    1    4    4    0    0 -0.80679323171E+01 -0.56290689521E+01  0.74108550014E+01  0.12316603468E+02  0.00000000000E+00 0.  1.
         12    1    4    4    0    0  0.22492492006E+02  0.21624555824E+02 -0.14403270717E+03  0.14737351982E+03  0.00000000000E+00 0. -1.
         -5    1    5    5    0  502 -0.58222705419E+02 -0.96233063903E+02 -0.32357959912E+02  0.11713160796E+03  0.47000000000E+01 0.  1.
         13    1    6    6    0    0 -0.14909096761E+02 -0.70869587355E+02 -0.27862837118E+02  0.77595858591E+02  0.00000000000E+00 0. -1.
        -14    1    6    6    0    0  0.66039320637E+02 -0.17397658581E+02 -0.33095625000E+02  0.75889332508E+02  0.00000000000E+00 0.  1.
</event>
<event>
12    1  0.1050869E+000  0.1743340E+03  0.7818608E-02  0.1174812E+00
         21   -1    0    0  503  502  0.00000000000E+00  0.00000000000E+00  0.19708051370E+02  0.19708051370E+02  0.00000000000E+00 0. -1.
         21   -1    0    0  501  503 -0.00000000000E+00 -0.00000000000E+00 -0.16642663886E+04  0.16642663886E+04  0.00000000000E+00 0. -1.
          6    2    1    2  501    0 -0.56103970090E+01  0.22234082508E+02 -0.10798212484E+04  0.10929411744E+04  0.16727418014E+03 0.  0.
         24    2    3    3    0    0  0.60269381095E+02 -0.15224466204E+01 -0.68954778066E+03  0.69640619812E+03  0.76620720543E+02 0.  0.
         -6    2    1    2    0  502  0.56103970090E+01 -0.22234082508E+02 -0.56473708891E+03  0.59103326559E+03  0.17281930005E+03 0.  0.
        -24    2    5    5    0    0 -0.45391804383E+02 -0.42148109239E+02 -0.22171585761E+03  0.24363803228E+03  0.79779008771E+02 0.  0.
          5    1    3    3  501    0 -0.65879778104E+02  0.23756529129E+02 -0.39027346769E+03  0.39653497629E+03  0.47000000000E+01 0. -1.
        -11    1    4    4    0    0 -0.14143271416E+02 -0.46792585068E+01 -0.41505912186E+02  0.44098393768E+02  0.00000000000E+00 0.  1.
         12    1    4    4    0    0  0.74412652510E+02  0.31568118864E+01 -0.64804186848E+03  0.65230780435E+03  0.00000000000E+00 0. -1.
         -5    1    5    5    0  502  0.51002201392E+02  0.19914026731E+02 -0.34302123130E+03  0.34739523331E+03  0.47000000000E+01 0.  1.
         13    1    6    6    0    0  0.12765470469E+02 -0.40782766005E+02 -0.88692596184E+02  0.98450839800E+02  0.00000000000E+00 0. -1.
        -14    1    6    6    0    0 -0.58157274852E+02 -0.13653432339E+01 -0.13302326143E+03  0.14518719248E+03  0.00000000000E+00 0.  1.
</event>
<event>
12    1  0.1050869E+000  0.1814321E+03  0.7818608E-02  0.1166428E+00
         21   -1    0    0  503  502  0.00000000000E+00  0.00000000000E+00  0.52344333880E+03  0.52344333880E+03  0.00000000000E+00 0.  1.
         21   -1    0    0  501  503 -0.00000000000E+00 -0.00000000000E+00 -0.69404193896E+02  0.69404193896E+02  0.00000000000E+00 0.  1.
          6    2    1    2  501    0 -0.49579491175E+02 -0.30671046500E+02  0.31790034042E+03  0.36603037516E+03  0.17181027344E+03 0.  0.
         24    2    3    3    0    0 -0.60892139212E+02  0.41076994809E+02  0.18846489620E+03  0.21753329890E+03  0.80040907723E+02 0.  0.
         -6    2    1    2    0  502  0.49579491175E+02  0.30671046500E+02  0.13613880448E+03  0.22681715753E+03  0.17179467346E+03 0.  0.
        -24    2    5    5    0    0  0.52071521145E+02 -0.50488651359E+01  0.94703279602E+01  0.95101117340E+02  0.78851766335E+02 0.  0.
          5    1    3    3  501    0  0.11312648037E+02 -0.71748041309E+02  0.12943544422E+03  0.14849707626E+03  0.47000000000E+01 0. -1.
        -13    1    4    4    0    0 -0.35677213545E+02  0.64243255767E+02  0.11489331446E+03  0.13638377171E+03  0.00000000000E+00 0.  1.
         14    1    4    4    0    0 -0.25214925666E+02 -0.23166260958E+02  0.73571581743E+02  0.81149527190E+02  0.00000000000E+00 0. -1.
         -5    1    5    5    0  502 -0.24920299698E+01  0.35719911636E+02  0.12666847652E+03  0.13171604019E+03  0.47000000000E+01 0.  1.
         13    1    6    6    0    0 -0.38717617294E+01  0.22990681537E+01  0.33479962869E+02  0.33781417481E+02  0.00000000000E+00 0. -1.
        -14    1    6    6    0    0  0.55943282874E+02 -0.73479332896E+01 -0.24009634909E+02  0.61319699859E+02  0.00000000000E+00 0.  1.
</event>
<event>
12    1  0.1585634E+000  0.1916088E+03  0.7818608E-02  0.1157129E+00
         21   -1    0    0  503  502  0.00000000000E+00  0.00000000000E+00  0.84232398392E+03  0.84232398392E+03  0.00000000000E+00 0.  1.
         21   -1    0    0  501  503 -0.00000000000E+00 -0.00000000000E+00 -0.20824579873E+03  0.20824579873E+03  0.00000000000E+00 0.  1.
          6    2    1    2  501    0 -0.13544608836E+02 -0.84834110846E+02  0.78420273266E+03  0.80715387270E+03  0.17071369455E+03 0.  0.
         24    2    3    3    0    0 -0.31352919060E+02 -0.97911127156E+02  0.76868589461E+03  0.77974937431E+03  0.81003011155E+02 0.  0.
         -6    2    1    2    0  502  0.13544608836E+02  0.84834110846E+02 -0.15012454747E+03  0.24341590996E+03  0.17127067080E+03 0.  0.
        -24    2    5    5    0    0  0.73088024860E+01  0.74632086407E+02 -0.18018213336E+03  0.21072776145E+03  0.79480949600E+02 0.  0.
          5    1    3    3  501    0  0.17808310224E+02  0.13077016310E+02  0.15516838052E+02  0.27404498385E+02  0.47000000000E+01 0. -1.
        -11    1    4    4    0    0  0.27268034185E+02 -0.36799089057E+02  0.29969510659E+03  0.30317466180E+03  0.00000000000E+00 0.  1.
         12    1    4    4    0    0 -0.58620953245E+02 -0.61112038098E+02  0.46899078802E+03  0.47657471251E+03  0.00000000000E+00 0. -1.
         -5    1    5    5    0  502  0.62358063497E+01  0.10202024440E+02  0.30057585887E+02  0.32688148508E+02  0.47000000000E+01 0.  1.
         11    1    6    6    0    0  0.22135849075E+02 -0.88359697129E+01 -0.30526533985E+02  0.38729051785E+02  0.00000000000E+00 0. -1.
        -12    1    6    6    0    0 -0.14827046589E+02  0.83468056119E+02 -0.14965559937E+03  0.17199870966E+03  0.00000000000E+00 0.  1.
</event>
<event>
12    1  0.1050869E+000  0.1908843E+03  0.7818608E-02  0.1157792E+00
         21   -1    0    0  503  502  0.00000000000E+00  0.00000000000E+00  0.23709241796E+03  0.23709241796E+03  0.00000000000E+00 0. -1.
         21   -1    0    0  501  503 -0.00000000000E+00 -0.00000000000E+00 -0.26537401007E+03  0.26537401007E+03  0.00000000000E+00 0. -1.
          6    2    1    2  501    0 -0.77255100413E+02 -0.28495957235E+02  0.14916404187E+03  0.24225344932E+03  0.17221048807E+03 0.  0.
         24    2    3    3    0    0 -0.72618068285E+02 -0.16398079861E+02  0.17870947011E+03  0.20965156236E+03  0.80463793271E+02 0.  0.
         -6    2    1    2    0  502  0.77255100413E+02  0.28495957235E+02 -0.17744563398E+03  0.26021297870E+03  0.17159099961E+03 0.  0.
        -24    2    5    5    0    0 -0.74389866497E+01 -0.30375156020E+02 -0.10257957458E+03  0.13267508939E+03  0.78116077723E+02 0.  0.
          5    1    3    3  501    0 -0.46370321273E+01 -0.12097877375E+02 -0.29545428235E+02  0.32601886962E+02  0.47000000000E+01 0. -1.
        -11    1    4    4    0    0 -0.19476846463E+02  0.30748808018E+02  0.81420514431E+02  0.89185968139E+02  0.00000000000E+00 0.  1.
         12    1    4    4    0    0 -0.53141221822E+02 -0.47146887878E+02  0.97288955677E+02  0.12046559422E+03  0.00000000000E+00 0. -1.
         -5    1    5    5    0  502  0.84694087062E+02  0.58871113256E+02 -0.74866059401E+02  0.12753788931E+03  0.47000000000E+01 0.  1.
         13    1    6    6    0    0  0.22667905969E+02 -0.20830259444E+01 -0.74119622628E+00  0.22775476504E+02  0.00000000000E+00 0. -1.
        -14    1    6    6    0    0 -0.30106892619E+02 -0.28292130076E+02 -0.10183837836E+03  0.10989961289E+03  0.00000000000E+00 0.  1.
</event>
<event>
12    1  0.1050869E+000  0.3481004E+03  0.7818608E-02  0.1063399E+00
         21   -1    0    0  503  502  0.00000000000E+00  0.00000000000E+00  0.31208875944E+03  0.31208875944E+03  0.00000000000E+00 0.  1.
         21   -1    0    0  501  503 -0.00000000000E+00 -0.00000000000E+00 -0.38837622223E+03  0.38837622223E+03  0.00000000000E+00 0.  1.
          6    2    1    2  501    0  0.73609589624E+02  0.29355809665E+03 -0.31712121885E+02  0.34954195113E+03  0.17198601435E+03 0.  0.
         24    2    3    3    0    0 -0.79787697647E+01  0.22230955665E+03  0.42752633916E+01  0.23530449344E+03  0.76581505682E+02 0.  0.
         -6    2    1    2    0  502 -0.73609589624E+02 -0.29355809665E+03 -0.44575340907E+02  0.35092303055E+03  0.17194558604E+03 0.  0.
        -24    2    5    5    0    0 -0.11592090364E+03 -0.19381954394E+03 -0.34026062886E+02  0.24196706028E+03  0.79916292406E+02 0.  0.
          5    1    3    3  501    0  0.81588359389E+02  0.71248540000E+02 -0.35987385276E+02  0.11423745769E+03  0.47000000000E+01 0. -1.
        -13    1    4    4    0    0 -0.32836534433E+02  0.16199714016E+03 -0.18238080772E+02  0.16629473534E+03  0.00000000000E+00 0.  1.
         14    1    4    4    0    0  0.24857764668E+02  0.60312416492E+02  0.22513344164E+02  0.69009758098E+02  0.00000000000E+00 0. -1.
         -5    1    5    5    0  502  0.42311314013E+02 -0.99738552709E+02 -0.10549278022E+02  0.10895597027E+03  0.47000000000E+01 0.  1.
         13    1    6    6    0    0 -0.70119604094E+02 -0.77333578186E+02  0.18870713114E+02  0.10608178452E+03  0.00000000000E+00 0. -1.
        -14    1    6    6    0    0 -0.45801299543E+02 -0.11648596575E+03 -0.52896775999E+02  0.13588527576E+03  0.00000000000E+00 0.  1.
</event>
<event>
12    1  0.1050869E+000  0.2541776E+03  0.7818608E-02  0.1110758E+00
         21   -1    0    0  503  502  0.00000000000E+00  0.00000000000E+00  0.96765089331E+02  0.96765089331E+02  0.00000000000E+00 0.  1.
         21   -1    0    0  501  503 -0.00000000000E+00 -0.00000000000E+00 -0.70172655411E+03  0.70172655411E+03  0.00000000000E+00 0.  1.
          6    2    1    2  501    0 -0.14310931606E+03  0.11961485018E+03 -0.21333129963E+03  0.33183805245E+03  0.17267964828E+03 0.  0.
         24    2    3    3    0    0 -0.84155647306E+02  0.65790112825E+02 -0.21442977691E+03  0.25186346860E+03  0.77746804886E+02 0.  0.
         -6    2    1    2    0  502  0.14310931606E+03 -0.11961485018E+03 -0.39163016515E+03  0.46665359099E+03  0.17205638319E+03 0.  0.
        -24    2    5    5    0    0  0.14586811795E+03 -0.86271024483E+02 -0.39038032644E+03  0.43284421659E+03  0.78975433289E+02 0.  0.
          5    1    3    3  501    0 -0.58953668750E+02  0.53824737360E+02  0.10984772789E+01  0.79974583858E+02  0.47000000000E+01 0. -1.
        -11    1    4    4    0    0 -0.69597224976E+02  0.74835571080E+02 -0.12821267655E+03  0.16395922313E+03  0.00000000000E+00 0.  1.
         12    1    4    4    0    0 -0.14558422330E+02 -0.90454582559E+01 -0.86217100361E+02  0.87904245463E+02  0.00000000000E+00 0. -1.
         -5    1    5    5    0  502 -0.27588018967E+01 -0.33343825701E+02 -0.12498387108E+01  0.33809374397E+02  0.47000000000E+01 0.  1.
         13    1    6    6    0    0  0.34056150487E+02 -0.62990907641E+02 -0.17433687488E+03  0.18847021455E+03  0.00000000000E+00 0. -1.
        -14    1    6    6    0    0  0.11181196746E+03 -0.23280116843E+02 -0.21604345157E+03  0.24437400204E+03  0.00000000000E+00 0.  1.
</event>
<event>
12    1  0.1050869E+000  0.2527011E+03  0.7818608E-02  0.1111757E+00
         21   -1    0    0  503  502  0.00000000000E+00  0.00000000000E+00  0.79803343874E+03  0.79803343874E+03  0.00000000000E+00 0. -1.
         21   -1    0    0  501  503 -0.00000000000E+00 -0.00000000000E+00 -0.14289893004E+03  0.14289893004E+03  0.00000000000E+00 0. -1.
          6    2    1    2  501    0 -0.64080266929E+02  0.17191480523E+03  0.14403074947E+02  0.25216925651E+03  0.17239751881E+03 0.  0.
         24    2    3    3    0    0 -0.56556129457E+02  0.12163241898E+03  0.74502245598E+02  0.17330905536E+03  0.80575448778E+02 0.  0.
         -6    2    1    2    0  502  0.64080266929E+02 -0.17191480523E+03  0.64073143375E+03  0.68876311227E+03  0.17377247698E+03 0.  0.
        -24    2    5    5    0    0  0.23669990761E+02 -0.94234154787E+02  0.17873734507E+03  0.21852072600E+03  0.79774211212E+02 0.  0.
          5    1    3    3  501    0 -0.75241374713E+01  0.50282386248E+02 -0.60099170651E+02  0.78860201144E+02  0.47000000000E+01 0. -1.
        -11    1    4    4    0    0 -0.76431320194E+02  0.10823989851E+03  0.62507184352E+02  0.14650860190E+03  0.00000000000E+00 0.  1.
         12    1    4    4    0    0  0.19875190737E+02  0.13392520467E+02  0.11995061247E+02  0.26800453459E+02  0.00000000000E+00 0. -1.
         -5    1    5    5    0  502  0.40410276168E+02 -0.77680650440E+02  0.46199408868E+03  0.47024238627E+03  0.47000000000E+01 0.  1.
         11    1    6    6    0    0 -0.14185105979E+02 -0.42882513925E+02  0.13178033458E+03  0.13930607961E+03  0.00000000000E+00 0. -1.
        -12    1    6    6    0    0  0.37855096740E+02 -0.51351640863E+02  0.46957010489E+02  0.79214646389E+02  0.00000000000E+00 0.  1.
</event>
<event>
12    1  0.1050869E+000  0.1765507E+03  0.7818608E-02  0.1171904E+00
         21   -1    0    0  503  502  0.00000000000E+00  0.00000000000E+00  0.14281924097E+03  0.14281924097E+03  0.00000000000E+00 0. -1.
         21   -1    0    0  501  503 -0.00000000000E+00 -0.00000000000E+00 -0.31817454310E+03  0.31817454310E+03  0.00000000000E+00 0. -1.
          6    2    1    2  501    0  0.27546354028E+02  0.26135190075E+02  0.43276111833E+02  0.18177729572E+03  0.17241900592E+03 0.  0.
         24    2    3    3    0    0  0.47601811999E+02 -0.16823708455E+02  0.77592809155E+02  0.12306261210E+03  0.81085095997E+02 0.  0.
         -6    2    1    2    0  502 -0.27546354028E+02 -0.26135190075E+02 -0.21863141396E+03  0.27921648835E+03  0.16947065355E+03 0.  0.
        -24    2    5    5    0    0 -0.75775215720E+01 -0.39685983203E+00 -0.57782041456E+02  0.11503419165E+03  0.99179254905E+02 0.  0.
          5    1    3    3  501    0 -0.20055457970E+02  0.42958898530E+02 -0.34316697322E+02  0.58714683618E+02  0.47000000000E+01 0. -1.
        -13    1    4    4    0    0  0.65033905859E+01  0.28402067623E+02  0.45521628903E+02  0.54048036342E+02  0.00000000000E+00 0.  1.
         14    1    4    4    0    0  0.41098421413E+02 -0.45225776078E+02  0.32071180252E+02  0.69014575759E+02  0.00000000000E+00 0. -1.
         -5    1    5    5    0  502 -0.19968832456E+02 -0.25738330243E+02 -0.16084937251E+03  0.16418229670E+03  0.47000000000E+01 0.  1.
         11    1    6    6    0    0  0.16216215338E+01 -0.49393518374E+02 -0.32376502261E+02  0.59081191698E+02  0.00000000000E+00 0. -1.
        -12    1    6    6    0    0 -0.91991431058E+01  0.48996658542E+02 -0.25405539195E+02  0.55952999955E+02  0.00000000000E+00 0.  1.
</event>
<event>
12    1  0.1050869E+000  0.3643424E+03  0.7818608E-02  0.1056885E+00
         21   -1    0    0  501  502  0.00000000000E+00  0.00000000000E+00  0.38227945025E+03  0.38227945025E+03  0.00000000000E+00 0.  1.
         21   -1    0    0  502  503 -0.00000000000E+00 -0.00000000000E+00 -0.35615972036E+03  0.35615972036E+03  0.00000000000E+00 0. -1.
         -6    2    1    2    0  503  0.26010529920E+03 -0.18808030768E+03  0.71720859703E+02  0.37133444148E+03  0.17238450310E+03 0.  0.
        -24    2    3    3    0    0  0.16667205734E+03 -0.40021199495E+02  0.49077214035E+02  0.19473858964E+03  0.78315223611E+02 0.  0.
          6    2    1    2  501    0 -0.26010529920E+03  0.18808030768E+03 -0.45601129811E+02  0.36710472913E+03  0.17221338595E+03 0.  0.
         24    2    5    5    0    0 -0.11673473012E+03  0.12868780459E+03 -0.82019320811E+02  0.20763384108E+03  0.78721627946E+02 0.  0.
          5    1    5    5  501    0 -0.14337056908E+03  0.59392503085E+02  0.36418191000E+02  0.15947088805E+03  0.47000000000E+01 0. -1.
        -11    1    6    6    0    0 -0.91702059557E+01 -0.79842820824E+01  0.50106022405E+01  0.13150953291E+02  0.00000000000E+00 0.  1.
         12    1    6    6    0    0 -0.10756452416E+03  0.13667208668E+03 -0.87029923052E+02  0.19448288778E+03  0.00000000000E+00 0. -1.
         -5    1    3    3    0  503  0.93433241854E+02 -0.14805910818E+03  0.22643645668E+02  0.17659585184E+03  0.47000000000E+01 0.  1.
         13    1    4    4    0    0  0.20411627201E+02  0.21365931426E+02  0.11647705747E+02  0.31761715946E+02  0.00000000000E+00 0. -1.
        -14    1    4    4    0    0  0.14626043014E+03 -0.61387130921E+02  0.37429508289E+02  0.16297687369E+03  0.00000000000E+00 0.  1.
</event>
<event>
12    1  0.1050869E+000  0.9691389E+03  0.7818608E-02  0.9343062E-01
         21   -1    0    0  501  502  0.00000000000E+00  0.00000000000E+00  0.16428920381E+04  0.16428920381E+04  0.00000000000E+00 0.  1.
         21   -1    0    0  502  503 -0.00000000000E+00 -0.00000000000E+00 -0.83957110386E+03  0.83957110386E+03  0.00000000000E+00 0.  1.
         -6    2    1    2    0  503  0.74657121923E+03  0.59360579465E+03  0.11027937125E+04  0.14681090521E+04  0.17162107006E+03 0.  0.
        -24    2    3    3    0    0  0.35164284376E+03  0.35358220621E+03  0.61536261536E+03  0.79640159403E+03  0.83134135459E+02 0.  0.
          6    2    1    2  501    0 -0.74657121923E+03 -0.59360579465E+03 -0.29947277827E+03  0.10143540898E+04  0.17173773563E+03 0.  0.
         24    2    5    5    0    0 -0.40043297589E+03 -0.24546900470E+03 -0.11671504599E+03  0.49049018888E+03  0.79728432740E+02 0.  0.
          5    1    5    5  501    0 -0.34613824335E+03 -0.34813678996E+03 -0.18275773228E+03  0.52386390097E+03  0.47000000000E+01 0. -1.
        -11    1    6    6    0    0 -0.38839013571E+03 -0.24404344898E+03 -0.99389954888E+02  0.46934258878E+03  0.00000000000E+00 0.  1.
         12    1    6    6    0    0 -0.12042840174E+02 -0.14255557145E+01 -0.17325091099E+02  0.21147600103E+02  0.00000000000E+00 0. -1.
         -5    1    3    3    0  503  0.39492837547E+03  0.24002358845E+03  0.48743109713E+03  0.67170745806E+03  0.47000000000E+01 0.  1.
         13    1    4    4    0    0  0.30521749391E+03  0.26984441809E+03  0.52701966235E+03  0.66612570366E+03  0.00000000000E+00 0. -1.
        -14    1    4    4    0    0  0.46425349856E+02  0.83737788115E+02  0.88342953003E+02  0.13027589037E+03  0.00000000000E+00 0.  1.
</event>
<event>
12    1  0.1050869E+000  0.1878544E+03  0.7818608E-02  0.1160771E+00
         21   -1    0    0  503  502  0.00000000000E+00  0.00000000000E+00  0.57856133011E+02  0.57856133011E+02  0.00000000000E+00 0. -1.
         21   -1    0    0  501  503 -0.00000000000E+00 -0.00000000000E+00 -0.60924448436E+03  0.60924448436E+03  0.00000000000E+00 0. -1.
          6    2    1    2  501    0 -0.47615373107E+01  0.74660327235E+02 -0.24630814507E+03  0.30882247988E+03  0.17060710727E+03 0.  0.
         24    2    3    3    0    0  0.48449392036E+02  0.88126510901E+02 -0.14394408359E+03  0.19257605117E+03  0.79069657722E+02 0.  0.
         -6    2    1    2    0  502  0.47615373107E+01 -0.74660327235E+02 -0.30508020628E+03  0.35827813749E+03  0.17231498728E+03 0.  0.
        -24    2    5    5    0    0 -0.48585310875E+02 -0.83953100158E+02 -0.25592831272E+03  0.28499621284E+03  0.79466248328E+02 0.  0.
          5    1    3    3  501    0 -0.53210929347E+02 -0.13466183666E+02 -0.10236406148E+03  0.11624642871E+03  0.47000000000E+01 0. -1.
        -11    1    4    4    0    0 -0.10667301001E+02  0.58921403500E+02 -0.86023654078E+02  0.10481217564E+03  0.00000000000E+00 0.  1.
         12    1    4    4    0    0  0.59116693037E+02  0.29205107401E+02 -0.57920429513E+02  0.87763875535E+02  0.00000000000E+00 0. -1.
         -5    1    5    5    0  502  0.53346848186E+02  0.92927729228E+01 -0.49151893558E+02  0.73281924649E+02  0.47000000000E+01 0.  1.
         11    1    6    6    0    0 -0.46078849849E+02 -0.20677470817E+02 -0.56633661042E+02  0.75882736942E+02  0.00000000000E+00 0. -1.
        -12    1    6    6    0    0 -0.25064610265E+01 -0.63275629341E+02 -0.19929465168E+03  0.20911347590E+03  0.00000000000E+00 0.  1.
</event>
<event>
12    1  0.1050869E+000  0.1862912E+03  0.7818608E-02  0.1161989E+00
         21   -1    0    0  503  502  0.00000000000E+00  0.00000000000E+00  0.48870157897E+02  0.48870157897E+02  0.00000000000E+00 0.  1.
         21   -1    0    0  501  503 -0.00000000000E+00 -0.00000000000E+00 -0.72002676496E+03  0.72002676496E+03  0.00000000000E+00 0.  1.
          6    2    1    2  501    0  0.20743865907E+02 -0.66890127996E+02 -0.28502788485E+03  0.34017815317E+03  0.17197582258E+03 0.  0.
         24    2    3    3    0    0  0.66383575893E+02 -0.84817789669E+02 -0.22949351821E+03  0.26594514125E+03  0.80366079029E+02 0.  0.
         -6    2    1    2    0  502 -0.20743865907E+02  0.66890127996E+02 -0.38612872221E+03  0.42871876969E+03  0.17262617465E+03 0.  0.
        -24    2    5    5    0    0 -0.75644770385E+02  0.58049152577E+02 -0.31416093240E+03  0.33764887933E+03  0.78853274312E+02 0.  0.
          5    1    3    3  501    0 -0.45639709986E+02  0.17927661673E+02 -0.55534366641E+02  0.74233011921E+02  0.47000000000E+01 0. -1.
        -13    1    4    4    0    0  0.21375562069E+02 -0.30528968432E+02 -0.16891882544E+03  0.17298121908E+03  0.00000000000E+00 0.  1.
         14    1    4    4    0    0  0.45008013823E+02 -0.54288821237E+02 -0.60574692773E+02  0.92963922164E+02  0.00000000000E+00 0. -1.
         -5    1    5    5    0  502  0.54900904478E+02  0.88409754191E+01 -0.71967789818E+02  0.91069890360E+02  0.47000000000E+01 0.  1.
         13    1    6    6    0    0 -0.65971021661E+02  0.14850385201E+01 -0.15514663854E+03  0.16859673926E+03  0.00000000000E+00 0. -1.
        -14    1    6    6    0    0 -0.96737487246E+01  0.56564114057E+02 -0.15901429385E+03  0.16905214007E+03  0.00000000000E+00 0.  1.
</event>
<event>
12    1  0.1050869E+000  0.5457072E+03  0.7818608E-02  0.1002501E+00
         21   -1    0    0  501  502  0.00000000000E+00  0.00000000000E+00  0.24065852738E+03  0.24065852738E+03  0.00000000000E+00 0. -1.
         21   -1    0    0  502  503 -0.00000000000E+00 -0.00000000000E+00 -0.15924561564E+04  0.15924561564E+04  0.00000000000E+00 0.  1.
         -6    2    1    2    0  503 -0.22814931124E+03 -0.46461296993E+03 -0.24299260187E+03  0.59736237462E+03  0.17285566812E+03 0.  0.
        -24    2    3    3    0    0 -0.16845691412E+03 -0.44518457581E+03 -0.21179269968E+03  0.52710450197E+03  0.80099749748E+02 0.  0.
          6    2    1    2  501    0  0.22814931124E+03  0.46461296993E+03 -0.11088050271E+04  0.12357523091E+04  0.17238869257E+03 0.  0.
         24    2    5    5    0    0  0.10134917870E+03  0.11022088397E+03 -0.32933134344E+03  0.37014654567E+03  0.78288135830E+02 0.  0.
          5    1    5    5  501    0  0.12680013254E+03  0.35439208595E+03 -0.77947368369E+03  0.86560576347E+03  0.47000000000E+01 0. -1.
        -11    1    6    6    0    0  0.23382800477E+02  0.51301179992E+02 -0.20150383349E+03  0.20924235072E+03  0.00000000000E+00 0.  1.
         12    1    6    6    0    0  0.77966378218E+02  0.58919703982E+02 -0.12782750996E+03  0.16090419495E+03  0.00000000000E+00 0. -1.
         -5    1    3    3    0  503 -0.59692397122E+02 -0.19428394122E+02 -0.31199902184E+02  0.70257872645E+02  0.47000000000E+01 0.  1.
         13    1    4    4    0    0 -0.53989659030E+02 -0.24786805051E+03 -0.12745213073E+03  0.28389698726E+03  0.00000000000E+00 0. -1.
        -14    1    4    4    0    0 -0.11446725509E+03 -0.19731652530E+03 -0.84340568948E+02  0.24320751471E+03  0.00000000000E+00 0.  1.
</event>
<event>
12    1  0.1050869E+000  0.1786860E+03  0.7818608E-02  0.1170040E+00
         21   -1    0    0  503  502  0.00000000000E+00  0.00000000000E+00  0.23018337119E+02  0.23018337119E+02  0.00000000000E+00 0.  1.
         21   -1    0    0  501  503 -0.00000000000E+00 -0.00000000000E+00 -0.15114682001E+04  0.15114682001E+04  0.00000000000E+00 0.  1.
          6    2    1    2  501    0 -0.29152297767E+02  0.32080026687E+02 -0.99670360535E+03  0.10125940740E+04  0.17334848461E+03 0.  0.
         24    2    3    3    0    0  0.35622294362E+02  0.62203493651E+02 -0.57762972737E+03  0.58744918541E+03  0.79386529249E+02 0.  0.
         -6    2    1    2    0  502  0.29152297767E+02 -0.32080026687E+02 -0.49174625759E+03  0.52189246322E+03  0.16934691239E+03 0.  0.
        -24    2    5    5    0    0  0.52507207200E+01 -0.59862148033E+02 -0.17009645028E+03  0.19812739377E+03  0.81918343065E+02 0.  0.
          5    1    3    3  501    0 -0.64774592129E+02 -0.30123466964E+02 -0.41907387798E+03  0.42514488854E+03  0.47000000000E+01 0. -1.
        -11    1    4    4    0    0 -0.84579489096E+01  0.61496055875E+02 -0.30169919975E+03  0.30801900739E+03  0.00000000000E+00 0.  1.
         12    1    4    4    0    0  0.44080243272E+02  0.70743777602E+00 -0.27593052762E+03  0.27943017802E+03  0.00000000000E+00 0. -1.
         -5    1    5    5    0  502  0.23901577047E+02  0.27782121346E+02 -0.32164980731E+03  0.32376506944E+03  0.47000000000E+01 0.  1.
         13    1    6    6    0    0 -0.73522645149E+01 -0.31391783826E+02 -0.16304702024E+03  0.16620418374E+03  0.00000000000E+00 0. -1.
        -14    1    6    6    0    0  0.12602985235E+02 -0.28470364207E+02 -0.70494300456E+01  0.31923210034E+02  0.00000000000E+00 0.  1.
</event>
<event>
12    1  0.1050869E+000  0.1692361E+03  0.7818608E-02  0.1181111E+00
         21   -1    0    0  503  502  0.00000000000E+00  0.00000000000E+00  0.17093617298E+03  0.17093617298E+03  0.00000000000E+00 0.  1.
         21   -1    0    0  501  503 -0.00000000000E+00 -0.00000000000E+00 -0.16122170258E+03  0.16122170258E+03  0.00000000000E+00 0.  1.
          6    2    1    2  501    0 -0.11363144538E+02  0.12090617049E+02  0.25713076793E+02  0.16216722375E+03  0.15925370346E+03 0.  0.
         24    2    3    3    0    0  0.53609993222E+02  0.12604193922E+02  0.10203369449E+02  0.95201460753E+02  0.76982545448E+02 0.  0.
         -6    2    1    2    0  502  0.11363144538E+02 -0.12090617049E+02 -0.15998606402E+02  0.16999065181E+03  0.16842078916E+03 0.  0.
        -24    2    5    5    0    0  0.16356150441E+02  0.46748467089E+01  0.54194004358E+02  0.97498559220E+02  0.79243934107E+02 0.  0.
          5    1    3    3  501    0 -0.64973137761E+02 -0.51357687261E+00  0.15509707345E+02  0.66965762996E+02  0.47000000000E+01 0. -1.
        -13    1    4    4    0    0  0.36407896126E+01  0.17210931546E+02  0.35041721034E+02  0.39209612682E+02  0.00000000000E+00 0.  1.
         14    1    4    4    0    0  0.49969203610E+02 -0.46067376238E+01 -0.24838351585E+02  0.55991848071E+02  0.00000000000E+00 0. -1.
         -5    1    5    5    0  502 -0.49930059030E+01 -0.16765463758E+02 -0.70192610760E+02  0.72492092591E+02  0.47000000000E+01 0.  1.
         13    1    6    6    0    0 -0.19054012413E+01  0.38455230593E+02  0.11736673252E+02  0.40251519386E+02  0.00000000000E+00 0. -1.
        -14    1    6    6    0    0  0.18261551683E+02 -0.33780383884E+02  0.42457331106E+02  0.57247039835E+02  0.00000000000E+00 0.  1.
</event>
<event>
12    1  0.1050869E+000  0.2042551E+03  0.7818608E-02  0.1146409E+00
         21   -1    0    0  503  502  0.00000000000E+00  0.00000000000E+00  0.21076775611E+03  0.21076775611E+03  0.00000000000E+00 0.  1.
         21   -1    0    0  501  503 -0.00000000000E+00 -0.00000000000E+00 -0.45772215245E+03  0.45772215245E+03  0.00000000000E+00 0.  1.
          6    2    1    2  501    0 -0.10593972221E+03 -0.34445229824E+02 -0.37563036129E+03  0.42708224254E+03  0.16997463038E+03 0.  0.
         24    2    3    3    0    0 -0.12203248761E+03 -0.71545822427E+02 -0.30143171392E+03  0.34244796851E+03  0.79992501151E+02 0.  0.
         -6    2    1    2    0  502  0.10593972221E+03  0.34445229824E+02  0.12867596495E+03  0.24140766602E+03  0.17120297503E+03 0.  0.
        -24    2    5    5    0    0  0.81404675450E+02  0.42542731775E+01  0.65931241375E+01  0.11318999016E+03  0.78253974737E+02 0.  0.
          5    1    3    3  501    0  0.16092765397E+02  0.37100592603E+02 -0.74198647366E+02  0.84634274030E+02  0.47000000000E+01 0. -1.
        -13    1    4    4    0    0  0.51409283927E+01 -0.26026223806E+02 -0.37168909168E+02  0.45665318121E+02  0.00000000000E+00 0.  1.
         14    1    4    4    0    0 -0.12717341600E+03 -0.45519598621E+02 -0.26426280476E+03  0.29678265039E+03  0.00000000000E+00 0. -1.
         -5    1    5    5    0  502  0.24535046761E+02  0.30190956647E+02  0.12208284081E+03  0.12821767586E+03  0.47000000000E+01 0.  1.
         13    1    6    6    0    0  0.22055134851E+02  0.31249001471E+02 -0.19536301062E+02  0.42948761629E+02  0.00000000000E+00 0. -1.
        -14    1    6    6    0    0  0.59349540599E+02 -0.26994728294E+02  0.26129425200E+02  0.70241228536E+02  0.00000000000E+00 0.  1.
</event>
<event>
12    1  0.1050869E+000  0.2241978E+03  0.7818608E-02  0.1131128E+00
         21   -1    0    0  503  502  0.00000000000E+00  0.00000000000E+00  0.37521547274E+02  0.37521547274E+02  0.00000000000E+00 0.  1.
         21   -1    0    0  501  503 -0.00000000000E+00 -0.00000000000E+00 -0.14879711203E+04  0.14879711203E+04  0.00000000000E+00 0.  1.
          6    2    1    2  501    0 -0.72745159025E+02 -0.12345033684E+03 -0.97214931915E+03  0.99725429034E+03  0.17002934170E+03 0.  0.
         24    2    3    3    0    0 -0.84167048662E+02 -0.44276366619E+02 -0.76709984114E+03  0.77710353390E+03  0.80020293737E+02 0.  0.
         -6    2    1    2    0  502  0.72745159025E+02  0.12345033684E+03 -0.47830025387E+03  0.52823837723E+03  0.17243203444E+03 0.  0.
        -24    2    5    5    0    0 -0.24315648874E+02  0.34164371107E+02 -0.23906445572E+03  0.25501934198E+03  0.78259796592E+02 0.  0.
          5    1    3    3  501    0  0.11421889636E+02 -0.79173970226E+02 -0.20504947802E+03  0.22015075644E+03  0.47000000000E+01 0. -1.
        -13    1    4    4    0    0  0.51131561058E+01  0.10315326593E+02 -0.23419338825E+02  0.26096278644E+02  0.00000000000E+00 0.  1.
         14    1    4    4    0    0 -0.89280204768E+02 -0.54591693212E+02 -0.74368050231E+03  0.75100725526E+03  0.00000000000E+00 0. -1.
         -5    1    5    5    0  502  0.97060807899E+02  0.89285965737E+02 -0.23923579815E+03  0.27321903525E+03  0.47000000000E+01 0.  1.
         13    1    6    6    0    0 -0.25234806567E+02  0.14081928935E+01 -0.16790895502E+02  0.30343247049E+02  0.00000000000E+00 0. -1.
        -14    1    6    6    0    0  0.91915769382E+00  0.32756178214E+02 -0.22227356022E+03  0.22467609493E+03  0.00000000000E+00 0.  1.
</event>
<event>
12    1  0.1050869E+000  0.2338589E+03  0.7818608E-02  0.1124002E+00
         21   -1    0    0  503  502  0.00000000000E+00  0.00000000000E+00  0.48176913397E+03  0.48176913397E+03  0.00000000000E+00 0.  1.
         21   -1    0    0  501  503 -0.00000000000E+00 -0.00000000000E+00 -0.18563310768E+03  0.18563310768E+03  0.00000000000E+00 0.  1.
          6    2    1    2  501    0 -0.51360576508E+02 -0.14942866409E+03  0.35631000236E+03  0.42620042798E+03  0.17240403869E+03 0.  0.
         24    2    3    3    0    0  0.11415479568E+02 -0.12895522846E+03  0.17064479258E+03  0.22908712324E+03  0.81249619563E+02 0.  0.
         -6    2    1    2    0  502  0.51360576508E+02  0.14942866409E+03 -0.60173976065E+02  0.24120181367E+03  0.17201910665E+03 0.  0.
        -24    2    5    5    0    0 -0.82993659978E+01  0.89953920310E+02  0.26452999790E+02  0.12027672598E+03  0.74874176852E+02 0.  0.
          5    1    3    3  501    0 -0.62776056076E+02 -0.20473435637E+02  0.18566520978E+03  0.19711330474E+03  0.47000000000E+01 0. -1.
        -13    1    4    4    0    0  0.45407563937E+02 -0.64859425378E+02  0.75177236324E+02  0.10917970867E+03  0.00000000000E+00 0.  1.
         14    1    4    4    0    0 -0.33992084369E+02 -0.64095803077E+02  0.95467556255E+02  0.11990741457E+03  0.00000000000E+00 0. -1.
         -5    1    5    5    0  502  0.59659942506E+02  0.59474743783E+02 -0.86626975855E+02  0.12092508769E+03  0.47000000000E+01 0.  1.
         13    1    6    6    0    0  0.21686002243E+02  0.23962899612E+02 -0.16223696329E+02  0.36162294917E+02  0.00000000000E+00 0. -1.
        -14    1    6    6    0    0 -0.29985368241E+02  0.65991020697E+02  0.42676696119E+02  0.84114431062E+02  0.00000000000E+00 0.  1.
</event>
<event>
12    1  0.1050869E+000  0.2960196E+03  0.7818608E-02  0.1087546E+00
         21   -1    0    0  501  502  0.00000000000E+00  0.00000000000E+00  0.77294779069E+03  0.77294779069E+03  0.00000000000E+00 0. -1.
         21   -1    0    0  502  503 -0.00000000000E+00 -0.00000000000E+00 -0.11344696156E+03  0.11344696156E+03  0.00000000000E+00 0. -1.
         -6    2    1    2    0  503  0.16245955269E+03  0.17351284044E+03  0.36951030575E+03  0.47200108893E+03  0.17247420048E+03 0.  0.
        -24    2    3    3    0    0  0.14974232552E+03  0.13205917065E+03  0.18702512193E+03  0.28437628534E+03  0.77647194566E+02 0.  0.
          6    2    1    2  501    0 -0.16245955269E+03 -0.17351284044E+03  0.28999052337E+03  0.41439366332E+03  0.17643070170E+03 0.  0.
         24    2    5    5    0    0 -0.17170015485E+03 -0.18608787810E+03  0.29632760351E+03  0.39690741487E+03  0.74938680406E+02 0.  0.
          5    1    5    5  501    0  0.92406021637E+01  0.12575037657E+02 -0.63370801422E+01  0.17486248458E+02  0.47000000000E+01 0. -1.
        -11    1    6    6    0    0 -0.50767071679E+02 -0.96777664452E+02  0.89740857462E+02  0.14140945301E+03  0.00000000000E+00 0.  1.
         12    1    6    6    0    0 -0.12093308317E+03 -0.89310213649E+02  0.20658674605E+03  0.25549796185E+03  0.00000000000E+00 0. -1.
         -5    1    3    3    0  503  0.12717227166E+02  0.41453669789E+02  0.18248518382E+03  0.18762480358E+03  0.47000000000E+01 0.  1.
         13    1    4    4    0    0  0.19488084348E+02  0.14081618316E+01  0.52592028982E+02  0.56104276697E+02  0.00000000000E+00 0. -1.
        -14    1    4    4    0    0  0.13025424117E+03  0.13065100882E+03  0.13443309295E+03  0.22827200864E+03  0.00000000000E+00 0.  1.
</event>
<event>
12    1  0.1050869E+000  0.2558340E+03  0.7818608E-02  0.1109718E+00
         21   -1    0    0  503  502  0.00000000000E+00  0.00000000000E+00  0.18506236790E+04  0.18506236790E+04  0.00000000000E+00 0. -1.
         21   -1    0    0  501  503 -0.00000000000E+00 -0.00000000000E+00 -0.35375682094E+02  0.35375682094E+02  0.00000000000E+00 0. -1.
          6    2    1    2  501    0  0.23005378441E+02 -0.18779467797E+03  0.87268433796E+03  0.90941134026E+03  0.17220610780E+03 0.  0.
         24    2    3    3    0    0  0.66814055973E+02 -0.13751601602E+03  0.45397023916E+03  0.48539396961E+03  0.78380832856E+02 0.  0.
         -6    2    1    2    0  502 -0.23005378441E+02  0.18779467797E+03  0.94256365898E+03  0.97658802086E+03  0.17176094656E+03 0.  0.
        -24    2    5    5    0    0 -0.43921709579E+02  0.53293597198E+02  0.42133426764E+03  0.43785784533E+03  0.97095847267E+02 0.  0.
          5    1    3    3  501    0 -0.43808677532E+02 -0.50278661947E+02  0.41871409880E+03  0.42401737065E+03  0.47000000000E+01 0. -1.
        -11    1    4    4    0    0  0.17598391339E+02 -0.99755900599E+02  0.34961264489E+03  0.36399168198E+03  0.00000000000E+00 0.  1.
         12    1    4    4    0    0  0.49215664634E+02 -0.37760115420E+02  0.10435759427E+03  0.12140228764E+03  0.00000000000E+00 0. -1.
         -5    1    5    5    0  502  0.20916331138E+02  0.13450108077E+03  0.52122939133E+03  0.53873017553E+03  0.47000000000E+01 0.  1.
         11    1    6    6    0    0 -0.46499262890E+02  0.68563850054E+02  0.41093828308E+03  0.41920574362E+03  0.00000000000E+00 0. -1.
        -12    1    6    6    0    0  0.25775533108E+01 -0.15270252856E+02  0.10395984565E+02  0.18652101716E+02  0.00000000000E+00 0.  1.
</event>
<event>
12    1  0.1050869E+000  0.2037096E+03  0.7818608E-02  0.1146730E+00
         21   -1    0    0  503  502  0.00000000000E+00  0.00000000000E+00  0.30394207631E+02  0.30394207631E+02  0.00000000000E+00 0.  1.
         21   -1    0    0  501  503 -0.00000000000E+00 -0.00000000000E+00 -0.15576128581E+04  0.15576128581E+04  0.00000000000E+00 0.  1.
          6    2    1    2  501    0  0.63708090518E+02 -0.89317799168E+02 -0.48198695581E+03  0.52310946074E+03  0.17115984431E+03 0.  0.
         24    2    3    3    0    0  0.71138266995E+02 -0.12319810295E+03 -0.33635922618E+03  0.37333426873E+03  0.77475941868E+02 0.  0.
         -6    2    1    2    0  502 -0.63708090518E+02  0.89317799168E+02 -0.10452316947E+04  0.10648976050E+04  0.17164272060E+03 0.  0.
        -24    2    5    5    0    0 -0.45699980854E+02  0.11708981468E+03 -0.59318780793E+03  0.61161916695E+03  0.80048216408E+02 0.  0.
          5    1    3    3  501    0 -0.74301764767E+01  0.33880303785E+02 -0.14562772962E+03  0.14977519201E+03  0.47000000000E+01 0. -1.
        -11    1    4    4    0    0  0.13564906661E+02 -0.97104022435E+02 -0.18686090595E+03  0.21102179043E+03  0.00000000000E+00 0.  1.
         12    1    4    4    0    0  0.57573360334E+02 -0.26094080518E+02 -0.14949832023E+03  0.16231247830E+03  0.00000000000E+00 0. -1.
         -5    1    5    5    0  502 -0.18008109664E+02 -0.27772015509E+02 -0.45204388676E+03  0.45327843806E+03  0.47000000000E+01 0.  1.
         13    1    6    6    0    0 -0.45619547667E+02  0.58321493576E+02 -0.46164663396E+03  0.46754695421E+03  0.00000000000E+00 0. -1.
        -14    1    6    6    0    0 -0.80433186592E-01  0.58768321101E+02 -0.13154117397E+03  0.14407221275E+03  0.00000000000E+00 0.  1.
</event>
<event>
12    1  0.1050869E+000  0.2036025E+03  0.7818608E-02  0.1147276E+00
         21   -1    0    0  503  502  0.00000000000E+00  0.00000000000E+00  0.82379586937E+03  0.82379586937E+03  0.00000000000E+00 0.  1.
         21   -1    0    0  501  503 -0.00000000000E+00 -0.00000000000E+00 -0.10220796738E+03  0.10220796738E+03  0.00000000000E+00 0.  1.
          6    2    1    2  501    0  0.10372208409E+03  0.17817128925E+02  0.69158860341E+03  0.72020308414E+03  0.17123657680E+03 0.  0.
         24    2    3    3    0    0  0.17024034330E+02  0.42321245837E+02  0.19215656657E+03  0.21268810604E+03  0.78937815914E+02 0.  0.
         -6    2    1    2    0  502 -0.10372208409E+03 -0.17817128925E+02  0.29999298587E+02  0.20580075260E+03  0.17429363455E+03 0.  0.
        -24    2    5    5    0    0 -0.95224034334E+02  0.28725613609E+02  0.66580436028E+02  0.14581147566E+03  0.83278174686E+02 0.  0.
          5    1    3    3  501    0  0.86698049760E+02 -0.24504116912E+02  0.49943203684E+03  0.50751497810E+03  0.47000000000E+01 0. -1.
        -11    1    4    4    0    0  0.19255133533E+02 -0.20563851974E+02  0.63457757272E+02  0.69429958471E+02  0.00000000000E+00 0.  1.
         12    1    4    4    0    0 -0.22310992028E+01  0.62885097811E+02  0.12869880929E+03  0.14325814757E+03  0.00000000000E+00 0. -1.
         -5    1    5    5    0  502 -0.84980497554E+01 -0.46542742534E+02 -0.36581137441E+02  0.59989276948E+02  0.47000000000E+01 0.  1.
         13    1    6    6    0    0 -0.21666204709E+02  0.12037859192E+02  0.65872370580E+02  0.70381131607E+02  0.00000000000E+00 0. -1.
        -14    1    6    6    0    0 -0.73557829625E+02  0.16687754417E+02  0.70806544802E+00  0.75430344048E+02  0.00000000000E+00 0.  1.
</event>
<event>
12    1  0.1050869E+000  0.1856248E+03  0.7818608E-02  0.1163272E+00
         21   -1    0    0  503  502  0.00000000000E+00  0.00000000000E+00  0.40346081582E+03  0.40346081582E+03  0.00000000000E+00 0. -1.
         21   -1    0    0  501  503 -0.00000000000E+00 -0.00000000000E+00 -0.16242333574E+03  0.16242333574E+03  0.00000000000E+00 0. -1.
          6    2    1    2  501    0 -0.61661699033E+02  0.10772070804E+02  0.31790631141E+03  0.36813174054E+03  0.17475226156E+03 0.  0.
         24    2    3    3    0    0  0.30937494215E+02  0.11735864551E+02  0.20324496177E+03  0.22067037411E+03  0.79322383090E+02 0.  0.
         -6    2    1    2    0  502  0.61661699033E+02 -0.10772070804E+02 -0.76868831331E+02  0.19775241102E+03  0.17111106392E+03 0.  0.
        -24    2    5    5    0    0 -0.36462620254E+02  0.11837770207E+02 -0.25373568909E+02  0.84555949069E+02  0.70966436042E+02 0.  0.
          5    1    3    3  501    0 -0.92599193247E+02 -0.96379374727E+00  0.11466134965E+03  0.14746136644E+03  0.47000000000E+01 0. -1.
        -13    1    4    4    0    0  0.25502452426E+02 -0.24912960804E+02  0.15906567450E+03  0.16301202257E+03  0.00000000000E+00 0.  1.
         14    1    4    4    0    0  0.54350417883E+01  0.36648825355E+02  0.44179287264E+02  0.57658351540E+02  0.00000000000E+00 0. -1.
         -5    1    5    5    0  502  0.98124319287E+02 -0.22609841010E+02 -0.51495262422E+02  0.11319646195E+03  0.47000000000E+01 0.  1.
         11    1    6    6    0    0 -0.48953078649E+02 -0.13085418050E+02 -0.25392309101E+02  0.56678050745E+02  0.00000000000E+00 0. -1.
        -12    1    6    6    0    0  0.12490458394E+02  0.24923188257E+02  0.18740192391E-01  0.27877898324E+02  0.00000000000E+00 0.  1.
</event>
<event>
12    1  0.1050869E+000  0.1739474E+03  0.7818608E-02  0.1176043E+00
         21   -1    0    0  503  502  0.00000000000E+00  0.00000000000E+00  0.63911349748E+02  0.63911349748E+02  0.00000000000E+00 0. -1.
         21   -1    0    0  501  503 -0.00000000000E+00 -0.00000000000E+00 -0.54744562406E+03  0.54744562406E+03  0.00000000000E+00 0. -1.
          6    2    1    2  501    0  0.21080475910E+02  0.71461016926E+01 -0.11801851872E+03  0.21020486126E+03  0.17251741854E+03 0.  0.
         24    2    3    3    0    0  0.68221223924E+02  0.11750262507E+02 -0.27085563266E+02  0.10756792440E+03  0.77749768866E+02 0.  0.
         -6    2    1    2    0  502 -0.21080475910E+02 -0.71461016926E+01 -0.36551575559E+03  0.40115211255E+03  0.16378582535E+03 0.  0.
        -24    2    5    5    0    0  0.48209408838E+02  0.10397136050E+02 -0.20034445302E+03  0.22111738670E+03  0.79515729937E+02 0.  0.
          5    1    3    3  501    0 -0.47140748014E+02 -0.46041608149E+01 -0.90932955458E+02  0.10263693686E+03  0.47000000000E+01 0. -1.
        -11    1    4    4    0    0  0.22631850246E+02 -0.26249444830E+02 -0.33086106364E+02  0.47915805678E+02  0.00000000000E+00 0.  1.
         12    1    4    4    0    0  0.45589373678E+02  0.37999707337E+02  0.60005430985E+01  0.59652118718E+02  0.00000000000E+00 0. -1.
         -5    1    5    5    0  502 -0.69289884748E+02 -0.17543237742E+02 -0.16517130257E+03  0.18003472585E+03  0.47000000000E+01 0.  1.
         13    1    6    6    0    0  0.28105496744E+02 -0.17549961707E+02 -0.22692809607E+02  0.40160723487E+02  0.00000000000E+00 0. -1.
        -14    1    6    6    0    0  0.20103912095E+02  0.27947097757E+02 -0.17765164342E+03  0.18095666322E+03  0.00000000000E+00 0.  1.
</event>
<event>
12    1  0.1050869E+000  0.2271106E+03  0.7818608E-02  0.1129278E+00
         21   -1    0    0  501  502  0.00000000000E+00  0.00000000000E+00  0.11975426632E+03  0.11975426632E+03  0.00000000000E+00 0. -1.
         21   -1    0    0  502  503 -0.00000000000E+00 -0.00000000000E+00 -0.45548410434E+03  0.45548410434E+03  0.00000000000E+00 0. -1.
         -6    2    1    2    0  503 -0.95900685446E+02  0.10714403671E+03 -0.24169456073E+03  0.32942976523E+03  0.17155443293E+03 0.  0.
        -24    2    3    3    0    0  0.15384329530E+01  0.84837745495E+02 -0.88855007313E+02  0.14674432106E+03  0.80242592192E+02 0.  0.
          6    2    1    2  501    0  0.95900685446E+02 -0.10714403671E+03 -0.94035277290E+02  0.24580860543E+03  0.17579092997E+03 0.  0.
         24    2    5    5    0    0 -0.71223403394E+01 -0.81847992008E+02 -0.20754969905E+02  0.11679028437E+03  0.80370269502E+02 0.  0.
          5    1    5    5  501    0  0.10302302579E+03 -0.25296044702E+02 -0.73280307385E+02  0.12901832106E+03  0.47000000000E+01 0. -1.
        -11    1    6    6    0    0  0.15444518121E+02 -0.39071115171E+02 -0.45946029435E+02  0.62258515896E+02  0.00000000000E+00 0.  1.
         12    1    6    6    0    0 -0.22566858460E+02 -0.42776876837E+02  0.25191059530E+02  0.54531768474E+02  0.00000000000E+00 0. -1.
         -5    1    3    3    0  503 -0.97439118399E+02  0.22306291216E+02 -0.15283955342E+03  0.18268544417E+03  0.47000000000E+01 0.  1.
         13    1    4    4    0    0 -0.29404151000E+02  0.63523650680E+02 -0.28349687102E+02  0.75521937545E+02  0.00000000000E+00 0. -1.
        -14    1    4    4    0    0  0.30942583953E+02  0.21314094815E+02 -0.60505320212E+02  0.71222383514E+02  0.00000000000E+00 0.  1.
</event>
<event>
12    1  0.1050869E+000  0.2282269E+03  0.7818608E-02  0.1129620E+00
         21   -1    0    0  503  502  0.00000000000E+00  0.00000000000E+00  0.13087014050E+03  0.13087014050E+03  0.00000000000E+00 0. -1.
         21   -1    0    0  501  503 -0.00000000000E+00 -0.00000000000E+00 -0.42256786369E+03  0.42256786369E+03  0.00000000000E+00 0. -1.
          6    2    1    2  501    0  0.34916158077E+02 -0.12987891663E+03 -0.23476697275E+03  0.32741876159E+03  0.18439046306E+03 0.  0.
         24    2    3    3    0    0 -0.42643453289E+02 -0.11934082173E+03 -0.14512953728E+03  0.20832424200E+03  0.79219387613E+02 0.  0.
         -6    2    1    2    0  502 -0.34916158077E+02  0.12987891663E+03 -0.56930750445E+02  0.22601924259E+03  0.17249903360E+03 0.  0.
        -24    2    5    5    0    0  0.26507495288E+02  0.13239009982E+03 -0.29639764677E+02  0.15859477272E+03  0.77743169763E+02 0.  0.
          5    1    3    3  501    0  0.77559611365E+02 -0.10538094899E+02 -0.89637435467E+02  0.11909451959E+03  0.47000000000E+01 0. -1.
        -11    1    4    4    0    0  0.75441508529E+00 -0.97188313349E+02 -0.74228323820E+02  0.12229465013E+03  0.00000000000E+00 0.  1.
         12    1    4    4    0    0 -0.43397868374E+02 -0.22152508386E+02 -0.70901213461E+02  0.86029591870E+02  0.00000000000E+00 0. -1.
         -5    1    5    5    0  502 -0.61423653365E+02 -0.25111831911E+01 -0.27290985768E+02  0.67424469875E+02  0.47000000000E+01 0.  1.
         13    1    6    6    0    0  0.48709681885E+01  0.26375585354E+02  0.25627822667E+02  0.37096942307E+02  0.00000000000E+00 0. -1.
        -14    1    6    6    0    0  0.21636527099E+02  0.10601451447E+03 -0.55267587344E+02  0.12149783041E+03  0.00000000000E+00 0.  1.
</event>
<event>
12    1  0.1050869E+000  0.2159344E+03  0.7818608E-02  0.1136972E+00
         21   -1    0    0  503  502  0.00000000000E+00  0.00000000000E+00  0.21315849865E+03  0.21315849865E+03  0.00000000000E+00 0. -1.
         21   -1    0    0  501  503 -0.00000000000E+00 -0.00000000000E+00 -0.40950460715E+03  0.40950460715E+03  0.00000000000E+00 0. -1.
          6    2    1    2  501    0  0.76436304770E+02 -0.10569628905E+03  0.11438925747E+03  0.24426631592E+03  0.17195033196E+03 0.  0.
         24    2    3    3    0    0  0.59556675804E+02 -0.10601761489E+03  0.20086490324E+02  0.14834902333E+03  0.82566538810E+02 0.  0.
         -6    2    1    2    0  502 -0.76436304770E+02  0.10569628905E+03 -0.31073536597E+03  0.37839678988E+03  0.17208558546E+03 0.  0.
        -24    2    5    5    0    0 -0.59134067501E+02  0.12422153429E+03 -0.31450824668E+03  0.35234152641E+03  0.79380643007E+02 0.  0.
          5    1    3    3  501    0  0.16879628966E+02  0.32132584029E+00  0.94302767150E+02  0.95917292583E+02  0.47000000000E+01 0. -1.
        -13    1    4    4    0    0 -0.91246977608E+01 -0.64693494661E+01 -0.18311734667E+02  0.21457684363E+02  0.00000000000E+00 0.  1.
         14    1    4    4    0    0  0.68681373565E+02 -0.99548265422E+02  0.38398224990E+02  0.12689133897E+03  0.00000000000E+00 0. -1.
         -5    1    5    5    0  502 -0.17302237268E+02 -0.18525245237E+02  0.37728807116E+01  0.26055263469E+02  0.47000000000E+01 0.  1.
         13    1    6    6    0    0 -0.74090494096E+02  0.11260513810E+03 -0.29857863409E+03  0.32759505365E+03  0.00000000000E+00 0. -1.
        -14    1    6    6    0    0  0.14956426594E+02  0.11616396183E+02 -0.15929612593E+02  0.24746472761E+02  0.00000000000E+00 0.  1.
</event>
<event>
12    1  0.1050869E+000  0.2603615E+03  0.7818608E-02  0.1106962E+00
         21   -1    0    0  501  502  0.00000000000E+00  0.00000000000E+00  0.13076340145E+04  0.13076340145E+04  0.00000000000E+00 0. -1.
         21   -1    0    0  502  503 -0.00000000000E+00 -0.00000000000E+00 -0.55273206235E+02  0.55273206235E+02  0.00000000000E+00 0. -1.
         -6    2    1    2    0  503 -0.46030723704E+02 -0.19047821403E+03  0.45545682307E+03  0.52462276117E+03  0.17142737914E+03 0.  0.
        -24    2    3    3    0    0 -0.90142575428E+02 -0.17670851240E+03  0.37264409095E+03  0.42967278094E+03  0.80021858891E+02 0.  0.
          6    2    1    2  501    0  0.46030723704E+02  0.19047821403E+03  0.79690398522E+03  0.83828445958E+03  0.17106751878E+03 0.  0.
         24    2    5    5    0    0 -0.37365502659E+01  0.13160648763E+03  0.31557128964E+03  0.35079505913E+03  0.78343508145E+02 0.  0.
          5    1    5    5  501    0  0.49767273970E+02  0.58871726398E+02  0.48133269558E+03  0.48748940046E+03  0.47000000000E+01 0. -1.
        -11    1    6    6    0    0  0.33067064200E+02  0.34759850281E+02  0.77357160355E+02  0.91026414763E+02  0.00000000000E+00 0.  1.
         12    1    6    6    0    0 -0.36803614466E+02  0.96846637346E+02  0.23821412928E+03  0.25976864436E+03  0.00000000000E+00 0. -1.
         -5    1    3    3    0  503  0.44111851723E+02 -0.13769701623E+02  0.82812732113E+02  0.94949980228E+02  0.47000000000E+01 0.  1.
         13    1    4    4    0    0 -0.23676810503E+02 -0.20530119815E+02  0.17119207553E+02  0.35709164685E+02  0.00000000000E+00 0. -1.
        -14    1    4    4    0    0 -0.66465764924E+02 -0.15617839259E+03  0.35552488340E+03  0.39396361626E+03  0.00000000000E+00 0.  1.
</event>
<event>
12    1  0.1050869E+000  0.1779041E+03  0.7818608E-02  0.1169926E+00
         21   -1    0    0  503  502  0.00000000000E+00  0.00000000000E+00  0.58600540305E+03  0.58600540305E+03  0.00000000000E+00 0. -1.
         21   -1    0    0  501  503 -0.00000000000E+00 -0.00000000000E+00 -0.72119284237E+02  0.72119284237E+02  0.00000000000E+00 0. -1.
          6    2    1    2  501    0 -0.43685563534E+02  0.98053754143E+01  0.42210843190E+03  0.45794225155E+03  0.17184587170E+03 0.  0.
         24    2    3    3    0    0 -0.20166237109E+02  0.66129959951E+02  0.33939329489E+03  0.35503694833E+03  0.77997290620E+02 0.  0.
         -6    2    1    2    0  502  0.43685563534E+02 -0.98053754143E+01  0.91777686912E+02  0.20018243574E+03  0.17217807617E+03 0.  0.
        -24    2    5    5    0    0 -0.11642245430E+02  0.50051011917E+02  0.40917865079E+02  0.10399114182E+03  0.80617865400E+02 0.  0.
          5    1    3    3  501    0 -0.23519326425E+02 -0.56324584537E+02  0.82715137013E+02  0.10290530322E+03  0.47000000000E+01 0. -1.
        -13    1    4    4    0    0 -0.40062850630E+02  0.57249284299E+02  0.16358418680E+03  0.17788282301E+03  0.00000000000E+00 0.  1.
         14    1    4    4    0    0  0.19896613521E+02  0.88806756523E+01  0.17580910809E+03  0.17715412532E+03  0.00000000000E+00 0. -1.
         -5    1    5    5    0  502  0.55327808965E+02 -0.59856387332E+02  0.50859821833E+02  0.96191293920E+02  0.47000000000E+01 0.  1.
         11    1    6    6    0    0 -0.33847967064E+02 -0.61139647295E+01  0.84360320466E+01  0.35415139076E+02  0.00000000000E+00 0. -1.
        -12    1    6    6    0    0  0.22205721634E+02  0.56164976647E+02  0.32481833033E+02  0.68576002743E+02  0.00000000000E+00 0.  1.
</event>
<event>
12    1  0.1050869E+000  0.3057353E+03  0.7818608E-02  0.1082447E+00
         21   -1    0    0  501  502  0.00000000000E+00  0.00000000000E+00  0.13595813244E+04  0.13595813244E+04  0.00000000000E+00 0. -1.
         21   -1    0    0  502  503 -0.00000000000E+00 -0.00000000000E+00 -0.71552248523E+02  0.71552248523E+02  0.00000000000E+00 0.  1.
         -6    2    1    2    0  503 -0.10748735196E+03  0.22760793399E+03  0.50096758296E+03  0.58689232023E+03  0.17353724074E+03 0.  0.
        -24    2    3    3    0    0 -0.41092879369E+02  0.17626890312E+03  0.22987071008E+03  0.30306221865E+03  0.79036789377E+02 0.  0.
          6    2    1    2  501    0  0.10748735196E+03 -0.22760793399E+03  0.78706149295E+03  0.84424125272E+03  0.17296992996E+03 0.  0.
         24    2    5    5    0    0  0.54753372991E+02 -0.23496514249E+03  0.67535071410E+03  0.72040107683E+03  0.68356231775E+02 0.  0.
          5    1    5    5  501    0  0.52733978969E+02  0.73572084972E+01  0.11171077884E+03  0.12384017589E+03  0.47000000000E+01 0. -1.
        -11    1    6    6    0    0 -0.38114297477E+01 -0.11242287960E+02  0.85328066893E+01  0.14619330535E+02  0.00000000000E+00 0.  1.
         12    1    6    6    0    0  0.58564802739E+02 -0.22372285453E+03  0.66681790741E+03  0.70578174630E+03  0.00000000000E+00 0. -1.
         -5    1    3    3    0  503 -0.66394472591E+02  0.51339030868E+02  0.27109687288E+03  0.28383010158E+03  0.47000000000E+01 0.  1.
         13    1    4    4    0    0 -0.38560857564E+02  0.64787395203E+02  0.14318382000E+03  0.16182074225E+03  0.00000000000E+00 0. -1.
        -14    1    4    4    0    0 -0.25320218051E+01  0.11148150792E+03  0.86686890087E+02  0.14124147640E+03  0.00000000000E+00 0.  1.
</event>
<event>
12    1  0.1050869E+000  0.2156504E+03  0.7818608E-02  0.1137352E+00
         21   -1    0    0  503  502  0.00000000000E+00  0.00000000000E+00  0.40228963847E+02  0.40228963847E+02  0.00000000000E+00 0.  1.
         21   -1    0    0  501  503 -0.00000000000E+00 -0.00000000000E+00 -0.12027769779E+04  0.12027769779E+04  0.00000000000E+00 0. -1.
          6    2    1    2  501    0 -0.12799141787E+03  0.98409894425E+01 -0.71160380101E+03  0.74356240978E+03  0.17328138821E+03 0.  0.
         24    2    3    3    0    0 -0.57956973206E+02 -0.48384238041E+02 -0.25658827695E+03  0.27949752456E+03  0.81125070930E+02 0.  0.
         -6    2    1    2    0  502  0.12799141787E+03 -0.98409894425E+01 -0.45094421302E+03  0.49944353195E+03  0.17208866967E+03 0.  0.
        -24    2    5    5    0    0  0.11079011064E+03  0.41414211396E+02 -0.22052004149E+03  0.26271506005E+03  0.80003303404E+02 0.  0.
          5    1    3    3  501    0 -0.70034444659E+02  0.58225227484E+02 -0.45501552406E+03  0.46406488522E+03  0.47000000000E+01 0. -1.
        -13    1    4    4    0    0 -0.45844103510E+02 -0.52120120225E+01 -0.20932060934E+03  0.21434543240E+03  0.00000000000E+00 0.  1.
         14    1    4    4    0    0 -0.12112869696E+02 -0.43172226019E+02 -0.47267667609E+02  0.65152092160E+02  0.00000000000E+00 0. -1.
         -5    1    5    5    0  502  0.17201307224E+02 -0.51255200839E+02 -0.23042417153E+03  0.23672847190E+03  0.47000000000E+01 0.  1.
         13    1    6    6    0    0  0.82554236089E+02 -0.32415257555E+01 -0.17274053536E+03  0.19148107463E+03  0.00000000000E+00 0. -1.
        -14    1    6    6    0    0  0.28235874553E+02  0.44655737152E+02 -0.47779506131E+02  0.71233985418E+02  0.00000000000E+00 0.  1.
</event>
<event>
12    1  0.1050869E+000  0.1812370E+03  0.7818608E-02  0.1166636E+00
         21   -1    0    0  501  502  0.00000000000E+00  0.00000000000E+00  0.69913334445E+02  0.69913334445E+02  0.00000000000E+00 0.  1.
         21   -1    0    0  502  503 -0.00000000000E+00 -0.00000000000E+00 -0.50320951616E+03  0.50320951616E+03  0.00000000000E+00 0.  1.
         -6    2    1    2    0  503  0.56813906522E+02  0.23144304436E+01 -0.29070086115E+03  0.34251433003E+03  0.17197644908E+03 0.  0.
        -24    2    3    3    0    0 -0.17121612852E+01 -0.30019239417E+01 -0.53054784279E+02  0.97664759698E+02  0.81924673380E+02 0.  0.
          6    2    1    2  501    0 -0.56813906522E+02 -0.23144304436E+01 -0.14259532056E+03  0.23060852058E+03  0.17208627997E+03 0.  0.
         24    2    5    5    0    0 -0.10253551662E+03  0.73871045763E+01 -0.12098741792E+03  0.17890187818E+03  0.82461052871E+02 0.  0.
          5    1    5    5  501    0  0.45721610094E+02 -0.97015350199E+01 -0.21607902649E+02  0.51706642400E+02  0.47000000000E+01 0. -1.
        -13    1    6    6    0    0 -0.84495558991E+02 -0.29790745153E+02 -0.92055251181E+02  0.12845683032E+03  0.00000000000E+00 0.  1.
         14    1    6    6    0    0 -0.18039957626E+02  0.37177849729E+02 -0.28932166734E+02  0.50445047860E+02  0.00000000000E+00 0. -1.
         -5    1    3    3    0  503  0.58526067808E+02  0.53163543853E+01 -0.23764607687E+03  0.24484957033E+03  0.47000000000E+01 0.  1.
         11    1    4    4    0    0  0.48611100667E+01 -0.12755937071E+02 -0.73132383153E+02  0.74395495745E+02  0.00000000000E+00 0. -1.
        -12    1    4    4    0    0 -0.65732713519E+01  0.97540131289E+01  0.20077598874E+02  0.23269263953E+02  0.00000000000E+00 0.  1.
</event>
<event>
12    1  0.1050869E+000  0.1801354E+03  0.7818608E-02  0.1167872E+00
         21   -1    0    0  503  502  0.00000000000E+00  0.00000000000E+00  0.10543464932E+04  0.10543464932E+04  0.00000000000E+00 0.  1.
         21   -1    0    0  501  503 -0.00000000000E+00 -0.00000000000E+00 -0.32651118514E+02  0.32651118514E+02  0.00000000000E+00 0.  1.
          6    2    1    2  501    0 -0.24916737393E+02 -0.51165418007E+02  0.37469215882E+03  0.41538617290E+03  0.17003739282E+03 0.  0.
         24    2    3    3    0    0 -0.46136203494E+02 -0.40885252773E+02  0.10895476849E+03  0.14856338872E+03  0.79998660769E+02 0.  0.
         -6    2    1    2    0  502  0.24916737393E+02  0.51165418007E+02  0.64700321582E+03  0.67161143876E+03  0.17090939002E+03 0.  0.
        -24    2    5    5    0    0 -0.45629249070E+02  0.28639831817E+02  0.24330783946E+03  0.26115293279E+03  0.78101736350E+02 0.  0.
          5    1    3    3  501    0  0.21219466102E+02 -0.10280165234E+02  0.26573739033E+03  0.26682278418E+03  0.47000000000E+01 0. -1.
        -11    1    4    4    0    0 -0.12652256456E+02  0.24069627715E+02  0.21990090500E+02  0.34971283247E+02  0.00000000000E+00 0.  1.
         12    1    4    4    0    0 -0.33483947039E+02 -0.64954880488E+02  0.86964677989E+02  0.11359210547E+03  0.00000000000E+00 0. -1.
         -5    1    5    5    0  502  0.70545986462E+02  0.22525586191E+02  0.40369537635E+03  0.41045850598E+03  0.47000000000E+01 0.  1.
         13    1    6    6    0    0  0.13741196071E+02 -0.36410525552E+01  0.11738162188E+03  0.11823926120E+03  0.00000000000E+00 0. -1.
        -14    1    6    6    0    0 -0.59370445141E+02  0.32280884372E+02  0.12592621758E+03  0.14291367159E+03  0.00000000000E+00 0.  1.
</event>
<event>
12    1  0.1050869E+000  0.1859901E+03  0.7818608E-02  0.1162857E+00
         21   -1    0    0  503  502  0.00000000000E+00  0.00000000000E+00  0.22597837707E+04  0.22597837707E+04  0.00000000000E+00 0. -1.
         21   -1    0    0  501  503 -0.00000000000E+00 -0.00000000000E+00 -0.15538539077E+02  0.15538539077E+02  0.00000000000E+00 0. -1.
          6    2    1    2  501    0  0.17367746460E+02 -0.66976369986E+02  0.13324807951E+04  0.13453985914E+04  0.17264074699E+03 0.  0.
         24    2    3    3    0    0 -0.18334307194E+02 -0.81663060165E+01  0.10848878662E+04  0.10883818434E+04  0.84796931189E+02 0.  0.
         -6    2    1    2    0  502 -0.17367746460E+02  0.66976369986E+02  0.91176443648E+03  0.92992371839E+03  0.16928160457E+03 0.  0.
        -24    2    5    5    0    0  0.34964971711E+02  0.77690353280E+02  0.64454959050E+03  0.65738130565E+03  0.97199105806E+02 0.  0.
          5    1    3    3  501    0  0.35702053655E+02 -0.58810063970E+02  0.24759292896E+03  0.25701674795E+03  0.47000000000E+01 0. -1.
        -11    1    4    4    0    0  0.11192820581E+02  0.23006359733E+02  0.12804041013E+03  0.13057150703E+03  0.00000000000E+00 0.  1.
         12    1    4    4    0    0 -0.29527127775E+02 -0.31172665750E+02  0.95684745604E+03  0.95781033639E+03  0.00000000000E+00 0. -1.
         -5    1    5    5    0  502 -0.52332718171E+02 -0.10713983293E+02  0.26721484598E+03  0.27254241274E+03  0.47000000000E+01 0.  1.
         13    1    6    6    0    0  0.11844020519E+02 -0.20185920518E+02  0.63147132184E+02  0.67344728912E+02  0.00000000000E+00 0. -1.
        -14    1    6    6    0    0  0.23120951191E+02  0.97876273798E+02  0.58140245832E+03  0.59003657674E+03  0.00000000000E+00 0.  1.
</event>
<event>
12    1  0.1050869E+000  0.1894998E+03  0.7818608E-02  0.1159806E+00
         21   -1    0    0  503  502  0.00000000000E+00  0.00000000000E+00  0.20062148363E+03  0.20062148363E+03  0.00000000000E+00 0.  1.
         21   -1    0    0  501  503 -0.00000000000E+00 -0.00000000000E+00 -0.25117329968E+03  0.25117329968E+03  0.00000000000E+00 0. -1.
          6    2    1    2  501    0  0.78294125487E+02  0.14363458099E+02  0.98668046122E+02  0.21364823040E+03  0.17197064870E+03 0.  0.
         24    2    3    3    0    0  0.14061370504E+02 -0.32177674351E+02  0.10313308212E+03  0.13406211121E+03  0.78122289815E+02 0.  0.
         -6    2    1    2    0  502 -0.78294125487E+02 -0.14363458099E+02 -0.14921986217E+03  0.23814655292E+03  0.16766315750E+03 0.  0.
        -24    2    5    5    0    0 -0.34240736065E+02 -0.44370621699E+02 -0.15626386774E+03  0.18417582936E+03  0.79756878584E+02 0.  0.
          5    1    3    3  501    0  0.64232754983E+02  0.46541132450E+02 -0.44650359997E+01  0.79586119197E+02  0.47000000000E+01 0. -1.
        -13    1    4    4    0    0  0.24459833295E+02 -0.45364935269E+02  0.31314974338E+02  0.60306619989E+02  0.00000000000E+00 0.  1.
         14    1    4    4    0    0 -0.10398462792E+02  0.13187260918E+02  0.71818107784E+02  0.73755491217E+02  0.00000000000E+00 0. -1.
         -5    1    5    5    0  502 -0.44053389421E+02  0.30007163600E+02  0.70440055703E+01  0.53970723557E+02  0.47000000000E+01 0.  1.
         11    1    6    6    0    0  0.18416736692E+02 -0.23120072737E+02 -0.99847361698E+02  0.10413073318E+03  0.00000000000E+00 0. -1.
        -12    1    6    6    0    0 -0.52657472758E+02 -0.21250548962E+02 -0.56416506045E+02  0.80045096182E+02  0.00000000000E+00 0.  1.
</event>
<event>
12    1  0.1050869E+000  0.1770092E+03  0.7818608E-02  0.1171654E+00
         21   -1    0    0  501  502  0.00000000000E+00  0.00000000000E+00  0.18656716583E+03  0.18656716583E+03  0.00000000000E+00 0.  1.
         21   -1    0    0  502  503 -0.00000000000E+00 -0.00000000000E+00 -0.30978232070E+03  0.30978232070E+03  0.00000000000E+00 0.  1.
         -6    2    1    2    0  503  0.21771188767E+02 -0.20248360066E+02  0.10871664270E+03  0.20458822811E+03  0.17074265412E+03 0.  0.
        -24    2    3    3    0    0  0.96089323157E+01  0.27673559573E+02 -0.53883127467E+00  0.84574564483E+02  0.79337312399E+02 0.  0.
          6    2    1    2  501    0 -0.21771188767E+02  0.20248360066E+02 -0.23193179757E+03  0.29176125843E+03  0.17449439088E+03 0.  0.
         24    2    5    5    0    0 -0.74872342800E+02  0.33985241653E+02 -0.17209655167E+03  0.21045454820E+03  0.88955210055E+02 0.  0.
          5    1    5    5  501    0  0.53101154033E+02 -0.13736881587E+02 -0.59835245896E+02  0.81306710220E+02  0.47000000000E+01 0. -1.
        -13    1    6    6    0    0  0.16097958467E+02  0.21678792259E+02 -0.23535768209E+02  0.35819641062E+02  0.00000000000E+00 0.  1.
         14    1    6    6    0    0 -0.90970301267E+02  0.12306449394E+02 -0.14856078346E+03  0.17463490714E+03  0.00000000000E+00 0. -1.
         -5    1    3    3    0  503  0.12162256451E+02 -0.47921919639E+02  0.10925547397E+03  0.12001366362E+03  0.47000000000E+01 0.  1.
         11    1    4    4    0    0 -0.32898236316E+02  0.52768243808E+01 -0.11583541315E+02  0.35274881398E+02  0.00000000000E+00 0. -1.
        -12    1    4    4    0    0  0.42507168632E+02  0.22396735192E+02  0.11044710040E+02  0.49299683085E+02  0.00000000000E+00 0.  1.
</event>
<event>
12    1  0.1050869E+000  0.2135469E+03  0.7818608E-02  0.1139329E+00
         21   -1    0    0  501  502  0.00000000000E+00  0.00000000000E+00  0.16796782829E+03  0.16796782829E+03  0.00000000000E+00 0.  1.
         21   -1    0    0  502  503 -0.00000000000E+00 -0.00000000000E+00 -0.43873728822E+03  0.43873728822E+03  0.00000000000E+00 0.  1.
         -6    2    1    2    0  503 -0.74220019955E+02 -0.10241793274E+03  0.54403505365E+02  0.21768101520E+03  0.16860379199E+03 0.  0.
        -24    2    3    3    0    0 -0.26236833432E+01 -0.11477181979E+03  0.50687737690E+02  0.14478004901E+03  0.72198071358E+02 0.  0.
          6    2    1    2  501    0  0.74220019955E+02  0.10241793274E+03 -0.32517296530E+03  0.38902410131E+03  0.17205885543E+03 0.  0.
         24    2    5    5    0    0  0.12477830564E+02  0.55458661526E+02 -0.28584560561E+03  0.30192644162E+03  0.78870187699E+02 0.  0.
          5    1    5    5  501    0  0.61742189390E+02  0.46959271216E+02 -0.39327359686E+02  0.87097659691E+02  0.47000000000E+01 0. -1.
        -11    1    6    6    0    0  0.45567348163E+01 -0.19629216817E+02 -0.85036879305E+02  0.87391880784E+02  0.00000000000E+00 0.  1.
         12    1    6    6    0    0  0.79210957480E+01  0.75087878343E+02 -0.20080872630E+03  0.21453456083E+03  0.00000000000E+00 0. -1.
         -5    1    3    3    0  503 -0.71596336612E+02  0.12353887047E+02  0.37157676747E+01  0.72900966186E+02  0.47000000000E+01 0.  1.
         11    1    4    4    0    0  0.14155842350E+02 -0.12633322320E+02 -0.13227386182E+02  0.23129039122E+02  0.00000000000E+00 0. -1.
        -12    1    4    4    0    0 -0.16779525693E+02 -0.10213849747E+03  0.63915123873E+02  0.12165100989E+03  0.00000000000E+00 0.  1.
</event>
<event>
12    1  0.1050869E+000  0.2097284E+03  0.7818608E-02  0.1141954E+00
         21   -1    0    0  503  502  0.00000000000E+00  0.00000000000E+00  0.42246054410E+03  0.42246054410E+03  0.00000000000E+00 0. -1.
         21   -1    0    0  501  503 -0.00000000000E+00 -0.00000000000E+00 -0.10369148813E+03  0.10369148813E+03  0.00000000000E+00 0. -1.
          6    2    1    2  501    0 -0.41987429429E+02 -0.11236725645E+03  0.15792908842E+03  0.26254065649E+03  0.17203678325E+03 0.  0.
         24    2    3    3    0    0  0.36740240019E+02 -0.29092730192E+02  0.39544717787E+02  0.97708493762E+02  0.76071892718E+02 0.  0.
         -6    2    1    2    0  502  0.41987429429E+02  0.11236725645E+03  0.16083996755E+03  0.26361137573E+03  0.17097402639E+03 0.  0.
        -24    2    5    5    0    0  0.35597165653E+02  0.14735521501E+03  0.11872164377E+03  0.20828474639E+03  0.79416555492E+02 0.  0.
          5    1    3    3  501    0 -0.78727669449E+02 -0.83274526260E+02  0.11838437063E+03  0.16483216273E+03  0.47000000000E+01 0. -1.
        -13    1    4    4    0    0  0.15593583027E+02  0.23232347736E+02  0.28995405806E+02  0.40294359044E+02  0.00000000000E+00 0.  1.
         14    1    4    4    0    0  0.21146656992E+02 -0.52325077928E+02  0.10549311981E+02  0.57414134718E+02  0.00000000000E+00 0. -1.
         -5    1    5    5    0  502  0.63902637766E+01 -0.34987958562E+02  0.42118323784E+02  0.55326629337E+02  0.47000000000E+01 0.  1.
         11    1    6    6    0    0  0.53432106964E+02  0.11670591552E+03  0.64898184296E+02  0.14382988249E+03  0.00000000000E+00 0. -1.
        -12    1    6    6    0    0 -0.17834941311E+02  0.30649299492E+02  0.53823459473E+02  0.64454863901E+02  0.00000000000E+00 0.  1.
</event>
<event>
12    1  0.1050869E+000  0.2197721E+03  0.7818608E-02  0.1136080E+00
         21   -1    0    0  501  502  0.00000000000E+00  0.00000000000E+00  0.67997960382E+02  0.67997960382E+02  0.00000000000E+00 0. -1.
         21   -1    0    0  502  503 -0.00000000000E+00 -0.00000000000E+00 -0.84116742249E+03  0.84116742249E+03  0.00000000000E+00 0. -1.
         -6    2    1    2    0  503 -0.11914007009E+03  0.27477527216E+02 -0.17785839757E+03  0.27458281138E+03  0.16974315867E+03 0.  0.
        -24    2    3    3    0    0 -0.10738156739E+00 -0.25115562082E+00 -0.10377218662E+03  0.13158449866E+03  0.80905741209E+02 0.  0.
          6    2    1    2  501    0  0.11914007009E+03 -0.27477527216E+02 -0.59531106454E+03  0.63458257149E+03  0.18262093438E+03 0.  0.
         24    2    5    5    0    0  0.40073065066E+02 -0.14076666301E+02 -0.10790240311E+03  0.14059829280E+03  0.79504391473E+02 0.  0.
          5    1    5    5  501    0  0.79067005026E+02 -0.13400860915E+02 -0.48740866143E+03  0.49398427869E+03  0.47000000000E+01 0. -1.
        -11    1    6    6    0    0  0.62912712850E+02  0.37916048313E+00 -0.79618578739E+02  0.10147547133E+03  0.00000000000E+00 0.  1.
         12    1    6    6    0    0 -0.22839647784E+02 -0.14455826785E+02 -0.28283824369E+02  0.39122821471E+02  0.00000000000E+00 0. -1.
         -5    1    3    3    0  503 -0.11903268852E+03  0.27728682837E+02 -0.74086210947E+02  0.14299831272E+03  0.47000000000E+01 0.  1.
         13    1    4    4    0    0 -0.25323034568E+02  0.25913322734E+02 -0.80913284361E+02  0.88655039117E+02  0.00000000000E+00 0. -1.
        -14    1    4    4    0    0  0.25215653000E+02 -0.26164478354E+02 -0.22858902260E+02  0.42929459539E+02  0.00000000000E+00 0.  1.
</event>
<event>
12    1  0.1050869E+000  0.2669795E+03  0.7818608E-02  0.1103151E+00
         21   -1    0    0  503  502  0.00000000000E+00  0.00000000000E+00  0.59094141363E+03  0.59094141363E+03  0.00000000000E+00 0. -1.
         21   -1    0    0  501  503 -0.00000000000E+00 -0.00000000000E+00 -0.15142975009E+03  0.15142975009E+03  0.00000000000E+00 0. -1.
          6    2    1    2  501    0 -0.71945536649E+02  0.18975294399E+03  0.50929778641E+02  0.27091181648E+03  0.17209599053E+03 0.  0.
         24    2    3    3    0    0 -0.50307986183E+02  0.72008769643E+02  0.85476102359E+02  0.14622255204E+03  0.79741546706E+02 0.  0.
         -6    2    1    2    0  502  0.71945536649E+02 -0.18975294399E+03  0.38858188490E+03  0.47145934725E+03  0.17348110803E+03 0.  0.
        -24    2    5    5    0    0  0.11057401632E+03 -0.95932372035E+02  0.25646814852E+03  0.30481424981E+03  0.75539278451E+02 0.  0.
          5    1    3    3  501    0 -0.21637550466E+02  0.11774417435E+03 -0.34546323718E+02  0.12468926444E+03  0.47000000000E+01 0. -1.
        -13    1    4    4    0    0 -0.22553765400E+02  0.76529297275E+02  0.32309070431E+02  0.86077184592E+02  0.00000000000E+00 0.  1.
         14    1    4    4    0    0 -0.27754220783E+02 -0.45205276323E+01  0.53167031927E+02  0.60145367447E+02  0.00000000000E+00 0. -1.
         -5    1    5    5    0  502 -0.38628479671E+02 -0.93820571957E+02  0.13211373637E+03  0.16664509745E+03  0.47000000000E+01 0.  1.
         13    1    6    6    0    0  0.59537713379E+02 -0.42631852282E+01  0.98658800353E+02  0.11531033323E+03  0.00000000000E+00 0. -1.
        -14    1    6    6    0    0  0.51036302940E+02 -0.91669186807E+02  0.15780934817E+03  0.18950391657E+03  0.00000000000E+00 0.  1.
</event>
<event>
12    1  0.1050869E+000  0.1805078E+03  0.7818608E-02  0.1167339E+00
         21   -1    0    0  503  502  0.00000000000E+00  0.00000000000E+00  0.14589983902E+04  0.14589983902E+04  0.00000000000E+00 0. -1.
         21   -1    0    0  501  503 -0.00000000000E+00 -0.00000000000E+00 -0.39399473034E+02  0.39399473034E+02  0.00000000000E+00 0. -1.
          6    2    1    2  501    0 -0.46015743736E+02 -0.28331539994E+02  0.12032138576E+04  0.12166785271E+04  0.17222928397E+03 0.  0.
         24    2    3    3    0    0  0.48602591202E+01 -0.31320146231E+01  0.10525640096E+04  0.10556168915E+04  0.80016221408E+02 0.  0.
         -6    2    1    2    0  502  0.46015743736E+02  0.28331539994E+02  0.21638505955E+03  0.28171933616E+03  0.17211381566E+03 0.  0.
        -24    2    5    5    0    0 -0.35930507896E+02  0.70942032790E+01  0.13121525490E+03  0.16154363874E+03  0.86819208585E+02 0.  0.
          5    1    3    3  501    0 -0.50876002856E+02 -0.25199525371E+02  0.15064984799E+03  0.16106163555E+03  0.47000000000E+01 0. -1.
        -11    1    4    4    0    0 -0.31468761444E+02  0.11170624202E+02  0.26650717628E+03  0.26859102889E+03  0.00000000000E+00 0.  1.
         12    1    4    4    0    0  0.36329020564E+02 -0.14302638825E+02  0.78605683331E+03  0.78702586261E+03  0.00000000000E+00 0. -1.
         -5    1    5    5    0  502  0.81946251632E+02  0.21237336715E+02  0.85169804647E+02  0.12017569742E+03  0.47000000000E+01 0.  1.
         13    1    6    6    0    0  0.22749668690E+02  0.33523487055E+01  0.68744406890E+01  0.24000908361E+02  0.00000000000E+00 0. -1.
        -14    1    6    6    0    0 -0.58680176587E+02  0.37418545736E+01  0.12434081421E+03  0.13754273038E+03  0.00000000000E+00 0.  1.
</event>
<event>
12    1  0.1050869E+000  0.1962625E+03  0.7818608E-02  0.1153030E+00
         21   -1    0    0  503  502  0.00000000000E+00  0.00000000000E+00  0.21852606309E+03  0.21852606309E+03  0.00000000000E+00 0.  1.
         21   -1    0    0  501  503 -0.00000000000E+00 -0.00000000000E+00 -0.24855982065E+03  0.24855982065E+03  0.00000000000E+00 0.  1.
          6    2    1    2  501    0  0.49765855083E+02  0.78790606152E+02 -0.14133715726E+03  0.24185772242E+03  0.17272627456E+03 0.  0.
         24    2    3    3    0    0  0.40583120462E+02 -0.23158282345E+02 -0.74992176098E+02  0.11978542824E+03  0.80879086514E+02 0.  0.
         -6    2    1    2    0  502 -0.49765855083E+02 -0.78790606152E+02  0.11130339970E+03  0.22522816132E+03  0.17220533649E+03 0.  0.
        -24    2    5    5    0    0  0.26605304279E+01  0.88081916877E+01  0.87236162330E+02  0.12023579400E+03  0.82230380503E+02 0.  0.
          5    1    3    3  501    0  0.91827346210E+01  0.10194888850E+03 -0.66344981166E+02  0.12207229418E+03  0.47000000000E+01 0. -1.
        -11    1    4    4    0    0  0.42753809135E+02  0.15791470408E+02 -0.14541596479E+02  0.47840534711E+02  0.00000000000E+00 0.  1.
         12    1    4    4    0    0 -0.21706886737E+01 -0.38949752753E+02 -0.60450579619E+02  0.71944893531E+02  0.00000000000E+00 0. -1.
         -5    1    5    5    0  502 -0.52426385510E+02 -0.87598797840E+02  0.24067237367E+02  0.10499236732E+03  0.47000000000E+01 0.  1.
         13    1    6    6    0    0  0.21092204075E+02 -0.30901118937E+02  0.51879389851E+02  0.63962733803E+02  0.00000000000E+00 0. -1.
        -14    1    6    6    0    0 -0.18431673647E+02  0.39709310625E+02  0.35356772480E+02  0.56273060197E+02  0.00000000000E+00 0.  1.
</event>
<event>
12    1  0.1050869E+000  0.1933866E+03  0.7818608E-02  0.1155773E+00
         21   -1    0    0  503  502  0.00000000000E+00  0.00000000000E+00  0.12260158494E+03  0.12260158494E+03  0.00000000000E+00 0.  1.
         21   -1    0    0  501  503 -0.00000000000E+00 -0.00000000000E+00 -0.35444753999E+03  0.35444753999E+03  0.00000000000E+00 0.  1.
          6    2    1    2  501    0 -0.30674534821E+02  0.83764564555E+02 -0.25155447117E+02  0.19501582612E+03  0.17158364303E+03 0.  0.
         24    2    3    3    0    0  0.32393176533E+02  0.96501018101E+01 -0.41652009833E+02  0.96199246614E+02  0.79855887543E+02 0.  0.
         -6    2    1    2    0  502  0.30674534821E+02 -0.83764564555E+02 -0.20669050794E+03  0.28203329881E+03  0.16989522125E+03 0.  0.
        -24    2    5    5    0    0 -0.26091300526E+02 -0.72259985868E+02 -0.62906022536E+02  0.12695014810E+03  0.79100637857E+02 0.  0.
          5    1    3    3  501    0 -0.63067711354E+02  0.74114462744E+02  0.16496562715E+02  0.98816579503E+02  0.47000000000E+01 0. -1.
        -11    1    4    4    0    0  0.14673902268E+02  0.60328553287E+01 -0.64862683549E+02  0.66774893997E+02  0.00000000000E+00 0.  1.
         12    1    4    4    0    0  0.17719274265E+02  0.36172464815E+01  0.23210673716E+02  0.29424352617E+02  0.00000000000E+00 0. -1.
         -5    1    5    5    0  502  0.56765835347E+02 -0.11504578687E+02 -0.14378448540E+03  0.15508315071E+03  0.47000000000E+01 0.  1.
         11    1    6    6    0    0  0.23057908171E+02 -0.55435972001E+01 -0.28883758735E+02  0.37372049954E+02  0.00000000000E+00 0. -1.
        -12    1    6    6    0    0 -0.49149208697E+02 -0.66716388668E+02 -0.34022263802E+02  0.89578098141E+02  0.00000000000E+00 0.  1.
</event>
<event>
12    1  0.1050869E+000  0.1864501E+03  0.7818608E-02  0.1162079E+00
         21   -1    0    0  501  502  0.00000000000E+00  0.00000000000E+00  0.93838861592E+03  0.93838861592E+03  0.00000000000E+00 0. -1.
         21   -1    0    0  502  503 -0.00000000000E+00 -0.00000000000E+00 -0.40153798386E+02  0.40153798386E+02  0.00000000000E+00 0. -1.
         -6    2    1    2    0  503 -0.57766007225E+02 -0.38785415750E+02  0.30793732185E+03  0.35998476130E+03  0.17298096460E+03 0.  0.
        -24    2    3    3    0    0 -0.66293221844E+01  0.40084514071E+02  0.15733985017E+03  0.18239783930E+03  0.82839767931E+02 0.  0.
          6    2    1    2  501    0  0.57766007225E+02  0.38785415750E+02  0.59029749569E+03  0.61855765301E+03  0.17123439087E+03 0.  0.
         24    2    5    5    0    0 -0.15312925023E+01  0.76978634628E+02  0.41892805400E+03  0.43318109767E+03  0.78848550467E+02 0.  0.
          5    1    5    5  501    0  0.59297299727E+02 -0.38193218878E+02  0.17136944169E+03  0.18537655534E+03  0.47000000000E+01 0. -1.
        -13    1    6    6    0    0  0.25723869812E+02 -0.74229845178E+00  0.67716316926E+02  0.72441480265E+02  0.00000000000E+00 0.  1.
         14    1    6    6    0    0 -0.27255162314E+02  0.77720933080E+02  0.35121173707E+03  0.36073961741E+03  0.00000000000E+00 0. -1.
         -5    1    3    3    0  503 -0.51136685040E+02 -0.78869929821E+02  0.15059747168E+03  0.17758692200E+03  0.47000000000E+01 0.  1.
         13    1    4    4    0    0  0.20442243023E+02 -0.18288166029E+02  0.55992319151E+02  0.62349676185E+02  0.00000000000E+00 0. -1.
        -14    1    4    4    0    0 -0.27071565207E+02  0.58372680100E+02  0.10134753101E+03  0.12004816312E+03  0.00000000000E+00 0.  1.
</event>
<event>
12    1  0.1050869E+000  0.2617939E+03  0.7818608E-02  0.1106765E+00
         21   -1    0    0  503  502  0.00000000000E+00  0.00000000000E+00  0.79339682336E+02  0.79339682336E+02  0.00000000000E+00 0. -1.
         21   -1    0    0  501  503 -0.00000000000E+00 -0.00000000000E+00 -0.87317102292E+03  0.87317102292E+03  0.00000000000E+00 0. -1.
          6    2    1    2  501    0 -0.11639687473E+03  0.15247072988E+03 -0.32055045828E+03  0.41387029362E+03  0.17815854659E+03 0.  0.
         24    2    3    3    0    0 -0.15476502650E+03  0.12575966353E+03 -0.25611798109E+03  0.33412551165E+03  0.79219510831E+02 0.  0.
         -6    2    1    2    0  502  0.11639687473E+03 -0.15247072988E+03 -0.47328088231E+03  0.53864041164E+03  0.17129840505E+03 0.  0.
        -24    2    5    5    0    0  0.12242390598E+03 -0.11095810392E+03 -0.45693057960E+03  0.49337402655E+03  0.85633299158E+02 0.  0.
          5    1    3    3  501    0  0.38368151772E+02  0.26711066351E+02 -0.64432477187E+02  0.79744781976E+02  0.47000000000E+01 0. -1.
        -13    1    4    4    0    0 -0.18251135068E+02  0.58895944338E+02 -0.88300656455E+02  0.10769792069E+03  0.00000000000E+00 0.  1.
         14    1    4    4    0    0 -0.13651389143E+03  0.66863719190E+02 -0.16781732463E+03  0.22642759095E+03  0.00000000000E+00 0. -1.
         -5    1    5    5    0  502 -0.60270312503E+01 -0.41512625960E+02 -0.16350302711E+02  0.45266385083E+02  0.47000000000E+01 0.  1.
         13    1    6    6    0    0  0.10753026908E+03 -0.58099788869E+02 -0.23661777519E+03  0.26631995001E+03  0.00000000000E+00 0. -1.
        -14    1    6    6    0    0  0.14893636895E+02 -0.52858315049E+02 -0.22031280441E+03  0.22705407655E+03  0.00000000000E+00 0.  1.
</event>
<event>
12    1  0.1173630E+000  0.2530256E+03  0.7818608E-02  0.1111744E+00
         21   -1    0    0  501  502  0.00000000000E+00  0.00000000000E+00  0.38688185698E+03  0.38688185698E+03  0.00000000000E+00 0.  1.
         21   -1    0    0  502  503 -0.00000000000E+00 -0.00000000000E+00 -0.13811790600E+04  0.13811790600E+04  0.00000000000E+00 0.  1.
         -6    2    1    2    0  503  0.18134157736E+03  0.26696809036E+02  0.33296476791E+03  0.41689612185E+03  0.17128733886E+03 0.  0.
        -24    2    3    3    0    0  0.75114051572E+02  0.26261512889E+02  0.56035323313E+02  0.12025410864E+03  0.70635015278E+02 0.  0.
          6    2    1    2  501    0 -0.18134157736E+03 -0.26696809036E+02 -0.13272619709E+04  0.13511647951E+04  0.17442613565E+03 0.  0.
         24    2    5    5    0    0 -0.88991445410E+02  0.59363096316E+02 -0.64945151777E+03  0.66168386384E+03  0.67785007007E+02 0.  0.
          5    1    5    5  501    0 -0.92350131949E+02 -0.86059905352E+02 -0.67781045317E+03  0.68948093128E+03  0.47000000000E+01 0. -1.
        -13    1    6    6    0    0 -0.99535802167E+02  0.58900267344E+02 -0.57810154499E+03  0.58955747280E+03  0.00000000000E+00 0.  1.
         14    1    6    6    0    0  0.10544356757E+02  0.46282897187E+00 -0.71349972772E+02  0.72126391042E+02  0.00000000000E+00 0. -1.
         -5    1    3    3    0  503  0.10622752579E+03  0.43529614681E+00  0.27692944460E+03  0.29664201321E+03  0.47000000000E+01 0.  1.
         11    1    4    4    0    0  0.86265381471E+02  0.25254336260E+02  0.60337328142E+02  0.10825936776E+03  0.00000000000E+00 0. -1.
        -12    1    4    4    0    0 -0.11151329899E+02  0.10071766284E+01 -0.43020048286E+01  0.11994740881E+02  0.00000000000E+00 0.  1.
</event>
<event>
12    1  0.1050869E+000  0.1883297E+03  0.7818608E-02  0.1160025E+00
         21   -1    0    0  501  502  0.00000000000E+00  0.00000000000E+00  0.10506946532E+03  0.10506946532E+03  0.00000000000E+00 0.  1.
         21   -1    0    0  502  503 -0.00000000000E+00 -0.00000000000E+00 -0.33719940822E+03  0.33719940822E+03  0.00000000000E+00 0.  1.
         -6    2    1    2    0  503 -0.75115711087E+02  0.19124418181E+02 -0.11756049855E+03  0.22201026402E+03  0.17163907798E+03 0.  0.
        -24    2    3    3    0    0 -0.24474950096E+02 -0.37765214982E+02 -0.12708378440E+02  0.92329987471E+02  0.79612116282E+02 0.  0.
          6    2    1    2  501    0  0.75115711087E+02 -0.19124418181E+02 -0.11456944434E+03  0.22025860952E+03  0.17140473758E+03 0.  0.
         24    2    5    5    0    0  0.92616703103E+02 -0.38158584640E+02 -0.13517605523E+03  0.18686240274E+03  0.81308427457E+02 0.  0.
          5    1    5    5  501    0 -0.17500992017E+02  0.19034166459E+02  0.20606610890E+02  0.33396206771E+02  0.47000000000E+01 0. -1.
        -13    1    6    6    0    0  0.38789099718E+02  0.18318487048E+02 -0.18992441533E+02  0.46913474185E+02  0.00000000000E+00 0.  1.
         14    1    6    6    0    0  0.53827603385E+02 -0.56477071688E+02 -0.11618361370E+03  0.13994892856E+03  0.00000000000E+00 0. -1.
         -5    1    3    3    0  503 -0.50640760990E+02  0.56889633163E+02 -0.10485212011E+03  0.12968027655E+03  0.47000000000E+01 0.  1.
         13    1    4    4    0    0 -0.17572719892E+02 -0.62119123528E+01 -0.43736094495E+02  0.47541921513E+02  0.00000000000E+00 0. -1.
        -14    1    4    4    0    0 -0.69022302044E+01 -0.31553302629E+02  0.31027716055E+02  0.44788065957E+02  0.00000000000E+00 0.  1.
</event>
<event>
12    1  0.1050869E+000  0.1969982E+03  0.7818608E-02  0.1152798E+00
         21   -1    0    0  501  502  0.00000000000E+00  0.00000000000E+00  0.23614793435E+02  0.23614793435E+02  0.00000000000E+00 0.  1.
         21   -1    0    0  502  503 -0.00000000000E+00 -0.00000000000E+00 -0.16546123901E+04  0.16546123901E+04  0.00000000000E+00 0.  1.
         -6    2    1    2    0  503 -0.48154053529E+02 -0.81666893623E+02 -0.70632943158E+03  0.73328681106E+03  0.17268464602E+03 0.  0.
        -24    2    3    3    0    0 -0.96071128737E+02 -0.35498349212E+02 -0.47980643305E+03  0.49714630320E+03  0.80314625154E+02 0.  0.
          6    2    1    2  501    0  0.48154053529E+02  0.81666893623E+02 -0.92466816505E+03  0.94494037244E+03  0.17003763592E+03 0.  0.
         24    2    5    5    0    0 -0.33816517198E+02  0.25136795061E+02 -0.51771044337E+03  0.52595170465E+03  0.82617656356E+02 0.  0.
          5    1    5    5  501    0  0.81970570728E+02  0.56530098562E+02 -0.40695772167E+03  0.41898866779E+03  0.47000000000E+01 0. -1.
        -13    1    6    6    0    0 -0.39487792883E+02 -0.10862502217E+02 -0.12465321649E+03  0.13120862823E+03  0.00000000000E+00 0.  1.
         14    1    6    6    0    0  0.56712756847E+01  0.35999297278E+02 -0.39305722688E+03  0.39474307641E+03  0.00000000000E+00 0. -1.
         -5    1    3    3    0  503  0.47917075208E+02 -0.46168544411E+02 -0.22652299853E+03  0.23614050786E+03  0.47000000000E+01 0.  1.
         11    1    4    4    0    0 -0.64512790874E+02 -0.58265114337E+02 -0.26649921072E+03  0.28031866340E+03  0.00000000000E+00 0. -1.
        -12    1    4    4    0    0 -0.31558337863E+02  0.22766765125E+02 -0.21330722233E+03  0.21682763980E+03  0.00000000000E+00 0.  1.
</event>
<event>
12    1  0.1050869E+000  0.1959097E+03  0.7818608E-02  0.1156741E+00
         21   -1    0    0  503  502  0.00000000000E+00  0.00000000000E+00  0.21265831269E+04  0.21265831269E+04  0.00000000000E+00 0.  1.
         21   -1    0    0  501  503 -0.00000000000E+00 -0.00000000000E+00 -0.18102135785E+02  0.18102135785E+02  0.00000000000E+00 0.  1.
          6    2    1    2  501    0  0.28295003400E+02  0.57319555116E+02  0.13975911481E+04  0.14112553423E+04  0.18518770316E+03 0.  0.
         24    2    3    3    0    0  0.37350921596E+02 -0.22863095319E+02  0.10523214796E+04  0.10566506313E+04  0.84924953787E+02 0.  0.
         -6    2    1    2    0  502 -0.28295003400E+02 -0.57319555116E+02  0.71088984302E+03  0.73342992036E+03  0.16872741493E+03 0.  0.
        -24    2    5    5    0    0 -0.81781790894E+02 -0.36448779506E+02  0.50739939660E+03  0.52194262170E+03  0.83385717137E+02 0.  0.
          5    1    3    3  501    0 -0.90559181958E+01  0.80182650434E+02  0.34526966854E+03  0.35460471105E+03  0.47000000000E+01 0. -1.
        -11    1    4    4    0    0 -0.21929392816E+00 -0.39941696931E+02  0.24160375283E+03  0.24488315708E+03  0.00000000000E+00 0.  1.
         12    1    4    4    0    0  0.37570215524E+02  0.17078601612E+02  0.81071772675E+03  0.81176747421E+03  0.00000000000E+00 0. -1.
         -5    1    5    5    0  502  0.53486787494E+02 -0.20870775609E+02  0.20349044642E+03  0.21148729866E+03  0.47000000000E+01 0.  1.
         11    1    6    6    0    0 -0.59999809800E+02 -0.50198297651E+02  0.22194407741E+03  0.23532747345E+03  0.00000000000E+00 0. -1.
        -12    1    6    6    0    0 -0.21781981094E+02  0.13749518145E+02  0.28545531919E+03  0.28661514824E+03  0.00000000000E+00 0.  1.
</event>
<event>
12    1  0.1050869E+000  0.2108843E+03  0.7818608E-02  0.1141109E+00
         21   -1    0    0  503  502  0.00000000000E+00  0.00000000000E+00  0.16662628052E+03  0.16662628052E+03  0.00000000000E+00 0.  1.
         21   -1    0    0  501  503 -0.00000000000E+00 -0.00000000000E+00 -0.27382999515E+03  0.27382999515E+03  0.00000000000E+00 0.  1.
          6    2    1    2  501    0  0.75518074101E+02  0.93646014341E+02 -0.92501682500E+02  0.23027969466E+03  0.17320398664E+03 0.  0.
         24    2    3    3    0    0 -0.21548635486E+02  0.11009485316E+02 -0.32150704886E+02  0.89158921780E+02  0.79561881891E+02 0.  0.
         -6    2    1    2    0  502 -0.75518074101E+02 -0.93646014341E+02 -0.14702032129E+02  0.21017658100E+03  0.17171339475E+03 0.  0.
        -24    2    5    5    0    0 -0.23823801554E+02 -0.42079493586E+02  0.55600762933E+02  0.10870748782E+03  0.79922561078E+02 0.  0.
          5    1    3    3  501    0  0.97066709587E+02  0.82636529025E+02 -0.60350977614E+02  0.14112077288E+03  0.47000000000E+01 0. -1.
        -13    1    4    4    0    0 -0.16377969072E+02 -0.14789360351E+02 -0.51810007830E+02  0.56313763520E+02  0.00000000000E+00 0.  1.
         14    1    4    4    0    0 -0.51706664135E+01  0.25798845666E+02  0.19659302944E+02  0.32845158259E+02  0.00000000000E+00 0. -1.
         -5    1    5    5    0  502 -0.51694272548E+02 -0.51566520755E+02 -0.70302795062E+02  0.10146909318E+03  0.47000000000E+01 0.  1.
         11    1    6    6    0    0 -0.27566761758E+02  0.15776137119E+02  0.58182375532E+01  0.32290319671E+02  0.00000000000E+00 0. -1.
        -12    1    6    6    0    0  0.37429602040E+01 -0.57855630705E+02  0.49782525380E+02  0.76417168153E+02  0.00000000000E+00 0.  1.
</event>
<event>
12    1  0.1050869E+000  0.1880399E+03  0.7818608E-02  0.1160540E+00
         21   -1    0    0  501  502  0.00000000000E+00  0.00000000000E+00  0.54481318361E+02  0.54481318361E+02  0.00000000000E+00 0. -1.
         21   -1    0    0  502  503 -0.00000000000E+00 -0.00000000000E+00 -0.76848423232E+03  0.76848423232E+03  0.00000000000E+00 0. -1.
         -6    2    1    2    0  503  0.70236239636E+02 -0.85342031269E+01 -0.52122593053E+03  0.55366653823E+03  0.17281262370E+03 0.  0.
        -24    2    3    3    0    0 -0.26648918608E+01  0.45013724763E+02 -0.32580189354E+03  0.33827248123E+03  0.79044675079E+02 0.  0.
          6    2    1    2  501    0 -0.70236239636E+02  0.85342031269E+01 -0.19277698343E+03  0.26929901246E+03  0.17422121222E+03 0.  0.
         24    2    5    5    0    0 -0.57527389772E+02 -0.44962286519E+02 -0.54551856112E+02  0.12046465792E+03  0.78770686291E+02 0.  0.
          5    1    5    5  501    0 -0.12708849863E+02  0.53496489646E+02 -0.13822512732E+03  0.14883435454E+03  0.47000000000E+01 0. -1.
        -13    1    6    6    0    0 -0.40332005686E+02 -0.52295799062E+01 -0.64304257103E+02  0.76085850657E+02  0.00000000000E+00 0.  1.
         14    1    6    6    0    0 -0.17195384087E+02 -0.39732706613E+02  0.97524009916E+01  0.44378807260E+02  0.00000000000E+00 0. -1.
         -5    1    3    3    0  503  0.72901131497E+02 -0.53547927890E+02 -0.19542403699E+03  0.21539405700E+03  0.47000000000E+01 0.  1.
         11    1    4    4    0    0 -0.21789343598E+02 -0.16011894997E+02 -0.99145582981E+02  0.10276674024E+03  0.00000000000E+00 0. -1.
        -12    1    4    4    0    0  0.19124451737E+02  0.61025619760E+02 -0.22665631056E+03  0.23550574099E+03  0.00000000000E+00 0.  1.
</event>
<event>
12    1  0.1050869E+000  0.1741121E+03  0.7818608E-02  0.1174487E+00
         21   -1    0    0  501  502  0.00000000000E+00  0.00000000000E+00  0.51672895523E+03  0.51672895523E+03  0.00000000000E+00 0.  1.
         21   -1    0    0  502  503 -0.00000000000E+00 -0.00000000000E+00 -0.61476008194E+02  0.61476008194E+02  0.00000000000E+00 0.  1.
         -6    2    1    2    0  503  0.19939554652E+02 -0.14866494862E+01  0.15237191725E+03  0.22884562149E+03  0.16956804340E+03 0.  0.
        -24    2    3    3    0    0  0.76825967011E+02  0.17894960039E+02  0.11215148845E+03  0.15637850073E+03  0.75191890024E+02 0.  0.
          6    2    1    2  501    0 -0.19939554652E+02  0.14866494862E+01  0.30288102978E+03  0.34935934193E+03  0.17296021400E+03 0.  0.
         24    2    5    5    0    0 -0.69571729750E+02  0.39038312155E+02  0.20049252750E+03  0.22944697571E+03  0.78002856877E+02 0.  0.
          5    1    5    5  501    0  0.49632175098E+02 -0.37551662668E+02  0.10238850228E+03  0.11991236622E+03  0.47000000000E+01 0. -1.
        -13    1    6    6    0    0  0.17397223662E+02  0.74286370910E+01  0.30152578250E+02  0.35595308894E+02  0.00000000000E+00 0.  1.
         14    1    6    6    0    0 -0.86968953411E+02  0.31609675064E+02  0.17033994925E+03  0.19385166682E+03  0.00000000000E+00 0. -1.
         -5    1    3    3    0  503 -0.56886412359E+02 -0.19381609525E+02  0.40220428797E+02  0.72467120762E+02  0.47000000000E+01 0.  1.
         11    1    4    4    0    0  0.58256087952E+02 -0.23824749566E+02  0.58552936942E+02  0.85964160555E+02  0.00000000000E+00 0. -1.
        -12    1    4    4    0    0  0.18569879059E+02  0.41719709605E+02  0.53598551511E+02  0.70414340172E+02  0.00000000000E+00 0.  1.
</event>
<event>
12    1  0.1050869E+000  0.2921178E+03  0.7818608E-02  0.1089517E+00
         21   -1    0    0  501  502  0.00000000000E+00  0.00000000000E+00  0.54457707442E+02  0.54457707442E+02  0.00000000000E+00 0. -1.
         21   -1    0    0  502  503 -0.00000000000E+00 -0.00000000000E+00 -0.23062505918E+04  0.23062505918E+04  0.00000000000E+00 0.  1.
         -6    2    1    2    0  503 -0.63600398198E+02  0.22458461400E+03 -0.17964786276E+04  0.18197425991E+04  0.17217551577E+03 0.  0.
        -24    2    3    3    0    0 -0.94283649740E+02  0.21685330500E+03 -0.16983812120E+04  0.17165610697E+04  0.78539177264E+02 0.  0.
          6    2    1    2  501    0  0.63600398198E+02 -0.22458461400E+03 -0.45531425675E+03  0.54096570009E+03  0.17564041897E+03 0.  0.
         24    2    5    5    0    0 -0.95522612074E+01 -0.15629866423E+03 -0.36815560360E+03  0.40817638074E+03  0.80925219797E+02 0.  0.
          5    1    5    5  501    0  0.73152659405E+02 -0.68285949767E+02 -0.87158653156E+02  0.13278931935E+03  0.47000000000E+01 0. -1.
        -13    1    6    6    0    0  0.89906234935E+01 -0.43071473139E+01 -0.58212869656E+00  0.99860754355E+01  0.00000000000E+00 0.  1.
         14    1    6    6    0    0 -0.18542884701E+02 -0.15199151691E+03 -0.36757347490E+03  0.39819030530E+03  0.00000000000E+00 0. -1.
         -5    1    3    3    0  503  0.30683251542E+02  0.77313089941E+01 -0.98097415608E+02  0.10318152942E+03  0.47000000000E+01 0.  1.
         13    1    4    4    0    0 -0.55418226043E+02  0.80755926294E+02 -0.93969204244E+03  0.94478242682E+03  0.00000000000E+00 0. -1.
        -14    1    4    4    0    0 -0.38865423697E+02  0.13609737871E+03 -0.75868916953E+03  0.77177864288E+03  0.00000000000E+00 0.  1.
</event>
<event>
12    1  0.1050869E+000  0.4169682E+03  0.7818608E-02  0.1038135E+00
         21   -1    0    0  501  502  0.00000000000E+00  0.00000000000E+00  0.11800774184E+04  0.11800774184E+04  0.00000000000E+00 0. -1.
         21   -1    0    0  502  503 -0.00000000000E+00 -0.00000000000E+00 -0.20459683850E+03  0.20459683850E+03  0.00000000000E+00 0. -1.
         -6    2    1    2    0  503 -0.36188676323E+03 -0.11281226775E+03  0.11999816127E+03  0.43298490623E+03  0.17142850744E+03 0.  0.
        -24    2    3    3    0    0 -0.22402107202E+03 -0.27041894357E+01  0.51121489845E+02  0.24352033543E+03  0.80597727609E+02 0.  0.
          6    2    1    2  501    0  0.36188676323E+03  0.11281226775E+03  0.85548241866E+03  0.95168935069E+03  0.17370611512E+03 0.  0.
         24    2    5    5    0    0  0.18103447236E+03  0.10320804766E+03  0.58658820504E+03  0.62745798226E+03  0.78691905108E+02 0.  0.
          5    1    5    5  501    0  0.18085229086E+03  0.96042200867E+01  0.26889421362E+03  0.32423136843E+03  0.47000000000E+01 0. -1.
        -11    1    6    6    0    0  0.41366094838E+02  0.53150771095E+02  0.11713791721E+03  0.13512013143E+03  0.00000000000E+00 0.  1.
         12    1    6    6    0    0  0.13966837753E+03  0.50057276564E+02  0.46945028783E+03  0.49233785083E+03  0.00000000000E+00 0. -1.
         -5    1    3    3    0  503 -0.13786569121E+03 -0.11010807831E+03  0.68876671429E+02  0.18946457080E+03  0.47000000000E+01 0.  1.
         11    1    4    4    0    0 -0.47212679628E+02  0.12011833954E+01 -0.22059312808E+02  0.52125744511E+02  0.00000000000E+00 0. -1.
        -12    1    4    4    0    0 -0.17680839239E+03 -0.39053728311E+01  0.73180802653E+02  0.19139459092E+03  0.00000000000E+00 0.  1.
</event>
<event>
12    1  0.1050869E+000  0.4881224E+03  0.7818608E-02  0.1016968E+00
         21   -1    0    0  503  502  0.00000000000E+00  0.00000000000E+00  0.11209332619E+04  0.11209332619E+04  0.00000000000E+00 0. -1.
         21   -1    0    0  501  503 -0.00000000000E+00 -0.00000000000E+00 -0.43598452030E+03  0.43598452030E+03  0.00000000000E+00 0. -1.
          6    2    1    2  501    0 -0.19645665083E+03 -0.41209924121E+03  0.90018441158E+03  0.10240094958E+04  0.17274973898E+03 0.  0.
         24    2    3    3    0    0 -0.10520050979E+03 -0.14361639494E+03  0.26941844951E+03  0.33241820684E+03  0.78884391031E+02 0.  0.
         -6    2    1    2    0  502  0.19645665083E+03  0.41209924121E+03 -0.21523566994E+03  0.53290828647E+03  0.17100832701E+03 0.  0.
        -24    2    5    5    0    0  0.56676561505E+02  0.24220940334E+03 -0.70811351683E+02  0.26969448727E+03  0.76441096571E+02 0.  0.
          5    1    3    3  501    0 -0.91256141045E+02 -0.26848284627E+03  0.63076596206E+03  0.69159128893E+03  0.47000000000E+01 0. -1.
        -13    1    4    4    0    0 -0.22797992514E+02 -0.46690862431E+02  0.14680859761E+03  0.15573230053E+03  0.00000000000E+00 0.  1.
         14    1    4    4    0    0 -0.82402517274E+02 -0.96925532509E+02  0.12260985190E+03  0.17668590631E+03  0.00000000000E+00 0. -1.
         -5    1    5    5    0  502  0.13978008933E+03  0.16988983787E+03 -0.14442431826E+03  0.26321379920E+03  0.47000000000E+01 0.  1.
         11    1    6    6    0    0 -0.35751207935E+01  0.31053393676E+01  0.92935773777E+01  0.10430493840E+02  0.00000000000E+00 0. -1.
        -12    1    6    6    0    0  0.60251682298E+02  0.23910406398E+03 -0.80104929061E+02  0.25926399343E+03  0.00000000000E+00 0.  1.
</event>
<event>
12    1  0.1050869E+000  0.1795063E+03  0.7818608E-02  0.1168913E+00
         21   -1    0    0  501  502  0.00000000000E+00  0.00000000000E+00  0.11860438967E+03  0.11860438967E+03  0.00000000000E+00 0. -1.
         21   -1    0    0  502  503 -0.00000000000E+00 -0.00000000000E+00 -0.28531899031E+03  0.28531899031E+03  0.00000000000E+00 0. -1.
         -6    2    1    2    0  503  0.46925976039E+02  0.20468869263E+02 -0.33864133719E+02  0.18267261254E+03  0.17205081221E+03 0.  0.
        -24    2    3    3    0    0 -0.30182500696E+02  0.41738278013E+02 -0.38957857550E+02  0.10238474948E+03  0.79447184095E+02 0.  0.
          6    2    1    2  501    0 -0.46925976039E+02 -0.20468869263E+02 -0.13285046691E+03  0.22125076744E+03  0.16935652835E+03 0.  0.
         24    2    5    5    0    0 -0.53510873129E+02 -0.74496247618E+02 -0.10669610782E+03  0.16068296261E+03  0.77600583746E+02 0.  0.
          5    1    5    5  501    0  0.65848970904E+01  0.54027378356E+02 -0.26154359096E+02  0.60567804826E+02  0.47000000000E+01 0. -1.
        -13    1    6    6    0    0 -0.26778780104E+02 -0.29633298620E+02 -0.10043531975E+03  0.10808556289E+03  0.00000000000E+00 0.  1.
         14    1    6    6    0    0 -0.26732093025E+02 -0.44862948999E+02 -0.62607880643E+01  0.52597399722E+02  0.00000000000E+00 0. -1.
         -5    1    3    3    0  503  0.77108476735E+02 -0.21269408751E+02  0.50937238307E+01  0.80287863064E+02  0.47000000000E+01 0.  1.
         13    1    4    4    0    0 -0.18667748717E+02  0.31529821211E+02 -0.63560529668E+02  0.73365900795E+02  0.00000000000E+00 0. -1.
        -14    1    4    4    0    0 -0.11514751978E+02  0.10208456803E+02  0.24602672118E+02  0.29018848681E+02  0.00000000000E+00 0.  1.
</event>
<event>
12    1  0.1050869E+000  0.2499362E+03  0.7818608E-02  0.1113499E+00
         21   -1    0    0  501  502  0.00000000000E+00  0.00000000000E+00  0.87527571192E+02  0.87527571192E+02  0.00000000000E+00 0. -1.
         21   -1    0    0  502  503 -0.00000000000E+00 -0.00000000000E+00 -0.72387481371E+03  0.72387481371E+03  0.00000000000E+00 0. -1.
         -6    2    1    2    0  503 -0.16253173182E+03  0.80133264909E+02 -0.26452519074E+03  0.36392536535E+03  0.17213422384E+03 0.  0.
        -24    2    3    3    0    0 -0.59537780198E+02 -0.20223812986E+02 -0.82171732996E+02  0.13164499445E+03  0.81390791724E+02 0.  0.
          6    2    1    2  501    0  0.16253173182E+03 -0.80133264909E+02 -0.37182205178E+03  0.44747701955E+03  0.17072240874E+03 0.  0.
         24    2    5    5    0    0  0.13009074618E+03 -0.30562949693E+01 -0.30130907070E+03  0.33798981781E+03  0.80728047659E+02 0.  0.
          5    1    5    5  501    0  0.32440985635E+02 -0.77076969940E+02 -0.70512981075E+02  0.10948720174E+03  0.47000000000E+01 0. -1.
        -11    1    6    6    0    0  0.66452249243E+01 -0.17657956402E+02 -0.97148343684E+02  0.98963443347E+02  0.00000000000E+00 0.  1.
         12    1    6    6    0    0  0.12344552126E+03  0.14601661433E+02 -0.20416072702E+03  0.23902637447E+03  0.00000000000E+00 0. -1.
         -5    1    3    3    0  503 -0.10299395162E+03  0.10035707790E+03 -0.18235345775E+03  0.23228037090E+03  0.47000000000E+01 0.  1.
         11    1    4    4    0    0  0.45920881757E+01 -0.10023135135E+02 -0.62972208031E+02  0.63930035946E+02  0.00000000000E+00 0. -1.
        -12    1    4    4    0    0 -0.64129868374E+02 -0.10200677851E+02 -0.19199524964E+02  0.67714958504E+02  0.00000000000E+00 0.  1.
</event>
<event>
12    1  0.1050869E+000  0.2138859E+03  0.7818608E-02  0.1138769E+00
         21   -1    0    0  503  502  0.00000000000E+00  0.00000000000E+00  0.65545627309E+03  0.65545627309E+03  0.00000000000E+00 0. -1.
         21   -1    0    0  501  503 -0.00000000000E+00 -0.00000000000E+00 -0.71264252677E+02  0.71264252677E+02  0.00000000000E+00 0. -1.
          6    2    1    2  501    0  0.28333464241E+02 -0.12280097859E+03  0.23224128365E+03  0.31487528172E+03  0.17125292309E+03 0.  0.
         24    2    3    3    0    0 -0.18084756857E+02 -0.13181160011E+03  0.13730561761E+03  0.20871166631E+03  0.83704066041E+02 0.  0.
         -6    2    1    2    0  502 -0.28333464241E+02  0.12280097859E+03  0.35195073676E+03  0.41184524405E+03  0.17281295785E+03 0.  0.
        -24    2    5    5    0    0  0.11917457681E+02  0.10907260867E+03  0.14136114900E+03  0.19695301681E+03  0.82271845875E+02 0.  0.
          5    1    3    3  501    0  0.46418221098E+02  0.90106215185E+01  0.94935666041E+02  0.10616361541E+03  0.47000000000E+01 0. -1.
        -11    1    4    4    0    0 -0.98404895073E+00 -0.10595013755E+03  0.14218956093E+03  0.17732532599E+03  0.00000000000E+00 0.  1.
         12    1    4    4    0    0 -0.17100707906E+02 -0.25861462562E+02 -0.48839433144E+01  0.31386340325E+02  0.00000000000E+00 0. -1.
         -5    1    5    5    0  502 -0.40250921922E+02  0.13728369925E+02  0.21058958776E+03  0.21489222724E+03  0.47000000000E+01 0.  1.
         13    1    6    6    0    0  0.17423829051E+02  0.16967173676E+01  0.58923812093E+02  0.61469376930E+02  0.00000000000E+00 0. -1.
        -14    1    6    6    0    0 -0.55063713696E+01  0.10737589130E+03  0.82437336909E+02  0.13548363988E+03  0.00000000000E+00 0.  1.
</event>
<event>
12    1  0.1050869E+000  0.2320002E+03  0.7818608E-02  0.1125553E+00
         21   -1    0    0  501  502  0.00000000000E+00  0.00000000000E+00  0.86225369761E+02  0.86225369761E+02  0.00000000000E+00 0.  1.
         21   -1    0    0  502  503 -0.00000000000E+00 -0.00000000000E+00 -0.93309092742E+03  0.93309092742E+03  0.00000000000E+00 0. -1.
         -6    2    1    2    0  503  0.14343555138E+03 -0.51053592195E+02 -0.71784343082E+03  0.75385290928E+03  0.17266960064E+03 0.  0.
        -24    2    3    3    0    0  0.99506877991E+02  0.29628645958E+02 -0.31650820302E+03  0.34211099136E+03  0.77993668995E+02 0.  0.
          6    2    1    2  501    0 -0.14343555138E+03  0.51053592195E+02 -0.12902212684E+03  0.26546338790E+03  0.17505391862E+03 0.  0.
         24    2    5    5    0    0 -0.13060763004E+03  0.82938575183E+02 -0.53814198078E+02  0.18264110675E+03  0.80775278900E+02 0.  0.
          5    1    5    5  501    0 -0.12827921343E+02 -0.31884982988E+02 -0.75207928760E+02  0.82822281147E+02  0.47000000000E+01 0. -1.
        -11    1    6    6    0    0 -0.15177080793E+02 -0.16274119771E+02 -0.51308920183E+01  0.22836742513E+02  0.00000000000E+00 0.  1.
         12    1    6    6    0    0 -0.11543054925E+03  0.99212694954E+02 -0.48683306060E+02  0.15980436424E+03  0.00000000000E+00 0. -1.
         -5    1    3    3    0  503  0.43928673392E+02 -0.80682238153E+02 -0.40133522780E+03  0.41174191792E+03  0.47000000000E+01 0.  1.
         11    1    4    4    0    0  0.46566324869E+02  0.21508346061E+02 -0.25691814575E+03  0.26198848291E+03  0.00000000000E+00 0. -1.
        -12    1    4    4    0    0  0.52940553122E+02  0.81202998978E+01 -0.59590057271E+02  0.80122508453E+02  0.00000000000E+00 0.  1.
</event>
<event>
12    1  0.1050869E+000  0.2552000E+03  0.7818608E-02  0.1110194E+00
         21   -1    0    0  503  502  0.00000000000E+00  0.00000000000E+00  0.30787269733E+03  0.30787269733E+03  0.00000000000E+00 0.  1.
         21   -1    0    0  501  503 -0.00000000000E+00 -0.00000000000E+00 -0.23878949961E+03  0.23878949961E+03  0.00000000000E+00 0.  1.
          6    2    1    2  501    0  0.52529755417E+02 -0.17954639646E+03 -0.58940278683E+02  0.26191787925E+03  0.17358207089E+03 0.  0.
         24    2    3    3    0    0  0.71706006384E+02 -0.14030582115E+03 -0.99544095444E+02  0.20209889157E+03  0.78150241431E+02 0.  0.
         -6    2    1    2    0  502 -0.52529755417E+02  0.17954639646E+03  0.12802347641E+03  0.28474431769E+03  0.17231666275E+03 0.  0.
        -24    2    5    5    0    0  0.25348743661E+01  0.93290885559E+02  0.13412892987E+03  0.18212125412E+03  0.80423668525E+02 0.  0.
          5    1    3    3  501    0 -0.19176250968E+02 -0.39240575314E+02  0.40603816762E+02  0.59818987686E+02  0.47000000000E+01 0. -1.
        -13    1    4    4    0    0 -0.94308688008E+01 -0.89143309378E+01 -0.30100383686E+02  0.32778646715E+02  0.00000000000E+00 0.  1.
         14    1    4    4    0    0  0.81136875185E+02 -0.13139149021E+03 -0.69443711758E+02  0.16932024485E+03  0.00000000000E+00 0. -1.
         -5    1    5    5    0  502 -0.55064629783E+02  0.86255510903E+02 -0.61054534640E+01  0.10262306357E+03  0.47000000000E+01 0.  1.
         13    1    6    6    0    0 -0.21903344688E+02  0.93308747187E+02  0.88972680849E+02  0.13077620865E+03  0.00000000000E+00 0. -1.
        -14    1    6    6    0    0  0.24438219054E+02 -0.17861628298E-01  0.45156249021E+02  0.51345045478E+02  0.00000000000E+00 0.  1.
</event>
<event>
12    1  0.1050869E+000  0.1806549E+03  0.7818608E-02  0.1167311E+00
         21   -1    0    0  501  502  0.00000000000E+00  0.00000000000E+00  0.32081338046E+03  0.32081338046E+03  0.00000000000E+00 0. -1.
         21   -1    0    0  502  503 -0.00000000000E+00 -0.00000000000E+00 -0.10271179056E+03  0.10271179056E+03  0.00000000000E+00 0. -1.
         -6    2    1    2    0  503  0.44863402106E+02 -0.29991306905E+02  0.84970639750E+02  0.19911472917E+03  0.17179773693E+03 0.  0.
        -24    2    3    3    0    0  0.65584112335E+02  0.18570131015E+02  0.81895789446E+01  0.10581423408E+03  0.80519919113E+02 0.  0.
          6    2    1    2  501    0 -0.44863402106E+02  0.29991306905E+02  0.13313095015E+03  0.22441044185E+03  0.17240647663E+03 0.  0.
         24    2    5    5    0    0 -0.26833501469E+02 -0.43524772011E+02  0.10987914097E+03  0.14508561719E+03  0.79761946547E+02 0.  0.
          5    1    5    5  501    0 -0.18029900637E+02  0.73516078915E+02  0.23251809184E+02  0.79324824654E+02  0.47000000000E+01 0. -1.
        -11    1    6    6    0    0 -0.43344638559E+02 -0.56107704437E+00  0.77537000570E+02  0.88831632635E+02  0.00000000000E+00 0.  1.
         12    1    6    6    0    0  0.16511137091E+02 -0.42963694966E+02  0.32342140398E+02  0.56253984558E+02  0.00000000000E+00 0. -1.
         -5    1    3    3    0  503 -0.20720710230E+02 -0.48561437920E+02  0.76781060806E+02  0.93300495088E+02  0.47000000000E+01 0.  1.
         11    1    4    4    0    0  0.29172792583E+02  0.29031849540E+02  0.39213960508E+02  0.56847469719E+02  0.00000000000E+00 0. -1.
        -12    1    4    4    0    0  0.36411319753E+02 -0.10461718524E+02 -0.31024381563E+02  0.48966764361E+02  0.00000000000E+00 0.  1.
</event>
<event>
12    1  0.1050869E+000  0.3224873E+03  0.7818608E-02  0.1074582E+00
         21   -1    0    0  501  502  0.00000000000E+00  0.00000000000E+00  0.78008250181E+02  0.78008250181E+02  0.00000000000E+00 0.  1.
         21   -1    0    0  502  503 -0.00000000000E+00 -0.00000000000E+00 -0.13999830465E+04  0.13999830465E+04  0.00000000000E+00 0.  1.
         -6    2    1    2    0  503 -0.23670760582E+03 -0.13524339346E+03 -0.49706017412E+03  0.59250894421E+03  0.17226945793E+03 0.  0.
        -24    2    3    3    0    0 -0.34686516390E+02 -0.51225078461E+02 -0.14658420928E+03  0.17931759657E+03  0.82708566343E+02 0.  0.
          6    2    1    2  501    0  0.23670760582E+03  0.13524339346E+03 -0.82491462219E+03  0.88548235247E+03  0.17109528487E+03 0.  0.
         24    2    5    5    0    0  0.13628467207E+03  0.10722663559E+02 -0.33988574590E+03  0.37473263036E+03  0.78827258206E+02 0.  0.
          5    1    5    5  501    0  0.10042293374E+03  0.12452072991E+03 -0.48502887629E+03  0.51074972211E+03  0.47000000000E+01 0. -1.
        -13    1    6    6    0    0  0.22592211254E+02 -0.17281395425E+00 -0.83689234561E+01  0.24093085187E+02  0.00000000000E+00 0.  1.
         14    1    6    6    0    0  0.11369246082E+03  0.10895477513E+02 -0.33151682245E+03  0.35063954518E+03  0.00000000000E+00 0. -1.
         -5    1    3    3    0  503 -0.20202108942E+03 -0.84018315003E+02 -0.35047596484E+03  0.41319134763E+03  0.47000000000E+01 0.  1.
         13    1    4    4    0    0 -0.64827163018E+01 -0.62597907978E+02 -0.13057755688E+03  0.14495179218E+03  0.00000000000E+00 0. -1.
        -14    1    4    4    0    0 -0.28203800089E+02  0.11372829517E+02 -0.16006652401E+02  0.34365804395E+02  0.00000000000E+00 0.  1.
</event>
<event>
12    1  0.1050869E+000  0.1746337E+03  0.7818608E-02  0.1173385E+00
         21   -1    0    0  503  502  0.00000000000E+00  0.00000000000E+00  0.48280648978E+03  0.48280648978E+03  0.00000000000E+00 0. -1.
         21   -1    0    0  501  503 -0.00000000000E+00 -0.00000000000E+00 -0.64815258088E+02  0.64815258088E+02  0.00000000000E+00 0. -1.
          6    2    1    2  501    0 -0.39520001947E+01  0.15304336467E+02  0.25711583273E+03  0.31018162098E+03  0.17278381155E+03 0.  0.
         24    2    3    3    0    0  0.34576834971E+02 -0.13237776113E+02  0.73235131697E+02  0.12009394242E+03  0.87683375038E+02 0.  0.
         -6    2    1    2    0  502  0.39520001947E+01 -0.15304336467E+02  0.16087539897E+03  0.23744012689E+03  0.17391687337E+03 0.  0.
        -24    2    5    5    0    0 -0.92696074935E+01 -0.64868240606E+02  0.88332087303E+02  0.14846814495E+03  0.99731730932E+02 0.  0.
          5    1    3    3  501    0 -0.38528835166E+02  0.28542112580E+02  0.18388070103E+03  0.19008767856E+03  0.47000000000E+01 0. -1.
        -13    1    4    4    0    0 -0.26066577061E+02  0.12460415822E+02  0.27676228007E+02  0.40008774023E+02  0.00000000000E+00 0.  1.
         14    1    4    4    0    0  0.60643412031E+02 -0.25698191936E+02  0.45558903690E+02  0.80085168396E+02  0.00000000000E+00 0. -1.
         -5    1    5    5    0  502  0.13221607688E+02  0.49563904139E+02  0.72543311664E+02  0.88971981941E+02  0.47000000000E+01 0.  1.
         11    1    6    6    0    0  0.73106007575E+01 -0.41324829057E+02 -0.12352526327E+02  0.43746671721E+02  0.00000000000E+00 0. -1.
        -12    1    6    6    0    0 -0.16580208251E+02 -0.23543411549E+02  0.10068461363E+03  0.10472147323E+03  0.00000000000E+00 0.  1.
</event>
<event>
12    1  0.1050869E+000  0.2450739E+03  0.7818608E-02  0.1117158E+00
         21   -1    0    0  503  502  0.00000000000E+00  0.00000000000E+00  0.21088923374E+04  0.21088923374E+04  0.00000000000E+00 0. -1.
         21   -1    0    0  501  503 -0.00000000000E+00 -0.00000000000E+00 -0.32162578787E+02  0.32162578787E+02  0.00000000000E+00 0.  1.
          6    2    1    2  501    0 -0.15727082242E+03  0.78093230686E+02  0.14320997075E+04  0.14529180319E+04  0.17096365412E+03 0.  0.
         24    2    3    3    0    0 -0.10695824298E+03  0.83610602141E+02  0.63109415069E+03  0.65030119366E+03  0.78619443589E+02 0.  0.
         -6    2    1    2    0  502  0.15727082242E+03 -0.78093230686E+02  0.64463005117E+03  0.68813688431E+03  0.16477804591E+03 0.  0.
        -24    2    5    5    0    0  0.11500337395E+03 -0.10697903062E+03  0.57722169575E+03  0.60336128040E+03  0.78674389899E+02 0.  0.
          5    1    3    3  501    0 -0.50312579440E+02 -0.55173714545E+01  0.80100555677E+03  0.80261683823E+03  0.47000000000E+01 0. -1.
        -11    1    4    4    0    0 -0.18806016711E+02 -0.62260785372E+01  0.20641677637E+03  0.20736517520E+03  0.00000000000E+00 0.  1.
         12    1    4    4    0    0 -0.88152226270E+02  0.89836680678E+02  0.42467737432E+03  0.44293601846E+03  0.00000000000E+00 0. -1.
         -5    1    5    5    0  502  0.42267448471E+02  0.28885799937E+02  0.67408355423E+02  0.84775603914E+02  0.47000000000E+01 0.  1.
         13    1    6    6    0    0  0.42186626660E+01 -0.49790324251E+02  0.19606632666E+03  0.20233358088E+03  0.00000000000E+00 0. -1.
        -14    1    6    6    0    0  0.11078471128E+03 -0.57188706373E+02  0.38115536909E+03  0.40102769952E+03  0.00000000000E+00 0.  1.
</event>
<event>
12    1  0.1050869E+000  0.1976649E+03  0.7818608E-02  0.1152006E+00
         21   -1    0    0  503  502  0.00000000000E+00  0.00000000000E+00  0.22880438665E+04  0.22880438665E+04  0.00000000000E+00 0. -1.
         21   -1    0    0  501  503 -0.00000000000E+00 -0.00000000000E+00 -0.17146045539E+02  0.17146045539E+02  0.00000000000E+00 0. -1.
          6    2    1    2  501    0 -0.83086901365E+02 -0.44219057725E+02  0.10126708930E+04  0.10315312349E+04  0.17232409241E+03 0.  0.
         24    2    3    3    0    0  0.19386497637E+02 -0.31553320843E+02  0.58091573859E+03  0.58757648299E+03  0.80072340258E+02 0.  0.
         -6    2    1    2    0  502  0.83086901365E+02  0.44219057725E+02  0.12582269280E+04  0.12736586771E+04  0.17381790854E+03 0.  0.
        -24    2    5    5    0    0  0.81605510261E+02  0.87699220342E+02  0.75309616226E+03  0.76663609428E+03  0.78907913957E+02 0.  0.
          5    1    3    3  501    0 -0.10247339900E+03 -0.12665736882E+02  0.43175515437E+03  0.44395475188E+03  0.47000000000E+01 0. -1.
        -13    1    4    4    0    0 -0.74918672630E+01 -0.48336570510E+02  0.45941395286E+03  0.46201053258E+03  0.00000000000E+00 0.  1.
         14    1    4    4    0    0  0.26878364900E+02  0.16783249666E+02  0.12150178572E+03  0.12556595041E+03  0.00000000000E+00 0. -1.
         -5    1    5    5    0  502  0.14813911046E+01 -0.43480162616E+02  0.50513076570E+03  0.50702258285E+03  0.47000000000E+01 0.  1.
         11    1    6    6    0    0  0.22061955489E+02  0.79206053707E+01  0.37247905930E+03  0.37321591001E+03  0.00000000000E+00 0. -1.
        -12    1    6    6    0    0  0.59543554771E+02  0.79778614971E+02  0.38061710296E+03  0.39342018427E+03  0.00000000000E+00 0.  1.
</event>
<event>
12    1  0.1050869E+000  0.3372511E+03  0.7818608E-02  0.1068254E+00
         21   -1    0    0  503  502  0.00000000000E+00  0.00000000000E+00  0.85985984383E+03  0.85985984383E+03  0.00000000000E+00 0.  1.
         21   -1    0    0  501  503 -0.00000000000E+00 -0.00000000000E+00 -0.19839185628E+03  0.19839185628E+03  0.00000000000E+00 0.  1.
          6    2    1    2  501    0 -0.14518009438E+03 -0.24602717878E+03  0.63768698112E+03  0.72016315446E+03  0.17430906647E+03 0.  0.
         24    2    3    3    0    0 -0.13837395972E+03 -0.10360639060E+03  0.33204790555E+03  0.38286901148E+03  0.80319558456E+02 0.  0.
         -6    2    1    2    0  502  0.14518009438E+03  0.24602717878E+03  0.23781006431E+02  0.33808854566E+03  0.17925316157E+03 0.  0.
        -24    2    5    5    0    0  0.79569646015E+02  0.23843096340E+03 -0.10413557394E+02  0.26356478020E+03  0.78595790657E+02 0.  0.
          5    1    3    3  501    0 -0.68061346631E+01 -0.14242078818E+03  0.30563907557E+03  0.33729414298E+03  0.47000000000E+01 0. -1.
        -11    1    4    4    0    0 -0.64398184412E+02 -0.34807683204E+02  0.67055435317E+02  0.99273019352E+02  0.00000000000E+00 0.  1.
         12    1    4    4    0    0 -0.73975775306E+02 -0.68798707398E+02  0.26499247023E+03  0.28359599213E+03  0.00000000000E+00 0. -1.
         -5    1    5    5    0  502  0.65610448366E+02  0.75962153819E+01  0.34194563825E+02  0.74523765459E+02  0.47000000000E+01 0.  1.
         13    1    6    6    0    0 -0.73702114294E+01  0.92393379772E+02 -0.12958408907E+02  0.93588337968E+02  0.00000000000E+00 0. -1.
        -14    1    6    6    0    0  0.86939857445E+02  0.14603758363E+03  0.25448515125E+01  0.16997644223E+03  0.00000000000E+00 0.  1.
</event>
<event>
12    1  0.1050869E+000  0.1916639E+03  0.7818608E-02  0.1157156E+00
         21   -1    0    0  501  502  0.00000000000E+00  0.00000000000E+00  0.99493398086E+03  0.99493398086E+03  0.00000000000E+00 0. -1.
         21   -1    0    0  502  503 -0.00000000000E+00 -0.00000000000E+00 -0.55368703928E+02  0.55368703928E+02  0.00000000000E+00 0. -1.
         -6    2    1    2    0  503  0.93959660976E+00 -0.85834976302E+02  0.16466638958E+03  0.25205250377E+03  0.17043156632E+03 0.  0.
        -24    2    3    3    0    0 -0.23646984390E+02  0.13060875983E+02  0.43976443421E+02  0.94023890318E+02  0.78592607937E+02 0.  0.
          6    2    1    2  501    0 -0.93959660976E+00  0.85834976302E+02  0.77489888735E+03  0.79825018102E+03  0.17136668255E+03 0.  0.
         24    2    5    5    0    0 -0.28332751221E+02  0.75944601475E+02  0.27539118684E+03  0.29787208668E+03  0.79480481542E+02 0.  0.
          5    1    5    5  501    0  0.27393154611E+02  0.98903748272E+01  0.49950770051E+03  0.50037809434E+03  0.47000000000E+01 0. -1.
        -11    1    6    6    0    0  0.19803615771E+02  0.15285351068E+02  0.23414548922E+02  0.34264650240E+02  0.00000000000E+00 0.  1.
         12    1    6    6    0    0 -0.48136366992E+02  0.60659250406E+02  0.25197663792E+03  0.26360743644E+03  0.00000000000E+00 0. -1.
         -5    1    3    3    0  503  0.24586581000E+02 -0.98895852285E+02  0.12068994616E+03  0.15802861345E+03  0.47000000000E+01 0.  1.
         11    1    4    4    0    0 -0.48418617967E+02 -0.25688325175E+01  0.10626311090E+02  0.49637485368E+02  0.00000000000E+00 0. -1.
        -12    1    4    4    0    0  0.24771633576E+02  0.15629708500E+02  0.33350132332E+02  0.44386404950E+02  0.00000000000E+00 0.  1.
</event>
<event>
12    1  0.1050869E+000  0.2824215E+03  0.7818608E-02  0.1094460E+00
         21   -1    0    0  501  502  0.00000000000E+00  0.00000000000E+00  0.20301972852E+03  0.20301972852E+03  0.00000000000E+00 0.  1.
         21   -1    0    0  502  503 -0.00000000000E+00 -0.00000000000E+00 -0.39202722521E+03  0.39202722521E+03  0.00000000000E+00 0.  1.
         -6    2    1    2    0  503  0.22438365118E+03  0.29244886233E+01 -0.97703304227E+02  0.29884418517E+03  0.17147984080E+03 0.  0.
        -24    2    3    3    0    0  0.16439750171E+03 -0.62910759339E+02 -0.74145140166E+02  0.20659617654E+03  0.78741197216E+02 0.  0.
          6    2    1    2  501    0 -0.22438365118E+03 -0.29244886233E+01 -0.91304192463E+02  0.29620276855E+03  0.17042021296E+03 0.  0.
         24    2    5    5    0    0 -0.21161668540E+03  0.38007053283E+02 -0.10257333915E+03  0.25162171647E+03  0.81031109166E+02 0.  0.
          5    1    5    5  501    0 -0.12766965781E+02 -0.40931541907E+02  0.11269146689E+02  0.44581052087E+02  0.47000000000E+01 0. -1.
        -13    1    6    6    0    0  0.42648929911E+01  0.12451453621E+01  0.57818434966E+01  0.72917359673E+01  0.00000000000E+00 0.  1.
         14    1    6    6    0    0 -0.21588157839E+03  0.36761907921E+02 -0.10835518265E+03  0.24432998050E+03  0.00000000000E+00 0. -1.
         -5    1    3    3    0  503  0.59986149471E+02  0.65835247962E+02 -0.23558164061E+02  0.92248008632E+02  0.47000000000E+01 0.  1.
         13    1    4    4    0    0  0.13806754374E+03 -0.16371652932E+02 -0.48106529720E+02  0.14712211205E+03  0.00000000000E+00 0. -1.
        -14    1    4    4    0    0  0.26329957977E+02 -0.46539106407E+02 -0.26038610446E+02  0.59474064483E+02  0.00000000000E+00 0.  1.
</event>
<event>
12    1  0.1050869E+000  0.1976374E+03  0.7818608E-02  0.1151921E+00
         21   -1    0    0  503  502  0.00000000000E+00  0.00000000000E+00  0.40961537554E+03  0.40961537554E+03  0.00000000000E+00 0. -1.
         21   -1    0    0  501  503 -0.00000000000E+00 -0.00000000000E+00 -0.10494475548E+03  0.10494475548E+03  0.00000000000E+00 0. -1.
          6    2    1    2  501    0  0.21286803811E+02  0.94904475145E+02  0.23193784153E+03  0.30472234285E+03  0.17204812257E+03 0.  0.
         24    2    3    3    0    0 -0.33464727113E+02  0.10397300551E+03  0.15392937810E+03  0.20887152779E+03  0.89458302253E+02 0.  0.
         -6    2    1    2    0  502 -0.21286803811E+02 -0.94904475145E+02  0.72732778525E+02  0.20983778817E+03  0.17111941109E+03 0.  0.
        -24    2    5    5    0    0 -0.50112140652E+02 -0.67964544179E+00  0.58548079427E+02  0.11017578806E+03  0.78734605552E+02 0.  0.
          5    1    3    3  501    0  0.54751530923E+02 -0.90685303652E+01  0.78008463435E+02  0.95850815067E+02  0.47000000000E+01 0. -1.
        -11    1    4    4    0    0  0.22164745240E+02  0.65499920737E+02  0.51898889075E+02  0.86458141522E+02  0.00000000000E+00 0.  1.
         12    1    4    4    0    0 -0.55629472353E+02  0.38473084773E+02  0.10203048902E+03  0.12241338626E+03  0.00000000000E+00 0. -1.
         -5    1    5    5    0  502  0.28825336841E+02 -0.94224829704E+02  0.14184699098E+02  0.99662000106E+02  0.47000000000E+01 0.  1.
         13    1    6    6    0    0  0.48180249636E+01  0.18616608859E+01  0.54817672579E+02  0.55060479228E+02  0.00000000000E+00 0. -1.
        -14    1    6    6    0    0 -0.54930165615E+02 -0.25413063277E+01  0.37304068478E+01  0.55115308832E+02  0.00000000000E+00 0.  1.
</event>
<event>
12    1  0.1050869E+000  0.1900918E+03  0.7818608E-02  0.1158448E+00
         21   -1    0    0  501  502  0.00000000000E+00  0.00000000000E+00  0.18899241066E+03  0.18899241066E+03  0.00000000000E+00 0.  1.
         21   -1    0    0  502  503 -0.00000000000E+00 -0.00000000000E+00 -0.20502726507E+03  0.20502726507E+03  0.00000000000E+00 0.  1.
         -6    2    1    2    0  503 -0.35584478521E+02  0.71634415971E+02 -0.59745957101E+02  0.19896698270E+03  0.17210617697E+03 0.  0.
        -24    2    3    3    0    0  0.48863473855E+02  0.32806373036E+02 -0.39621409274E+02  0.10375059228E+03  0.75699617815E+02 0.  0.
          6    2    1    2  501    0  0.35584478521E+02 -0.71634415971E+02  0.43711102687E+02  0.19505269303E+03  0.17244462269E+03 0.  0.
         24    2    5    5    0    0  0.79934437504E+02 -0.15545210676E+02  0.46743851059E+02  0.12332957698E+03  0.79962672995E+02 0.  0.
          5    1    5    5  501    0 -0.44349958983E+02 -0.56089205296E+02 -0.30327483714E+01  0.71723116045E+02  0.47000000000E+01 0. -1.
        -13    1    6    6    0    0  0.34015911802E+02  0.32290798610E+02  0.27120968315E+02  0.54178638345E+02  0.00000000000E+00 0.  1.
         14    1    6    6    0    0  0.45918525702E+02 -0.47836009286E+02  0.19622882744E+02  0.69150938636E+02  0.00000000000E+00 0. -1.
         -5    1    3    3    0  503 -0.84447952375E+02  0.38828042935E+02 -0.20124547827E+02  0.95216390416E+02  0.47000000000E+01 0.  1.
         13    1    4    4    0    0 -0.11127024533E+02 -0.57130438163E+00  0.13095771026E+02  0.17194076957E+02  0.00000000000E+00 0. -1.
        -14    1    4    4    0    0  0.59990498388E+02  0.33377677418E+02 -0.52717180300E+02  0.86556515326E+02  0.00000000000E+00 0.  1.
</event>
<event>
12    1  0.1050869E+000  0.2776257E+03  0.7818608E-02  0.1097144E+00
         21   -1    0    0  503  502  0.00000000000E+00  0.00000000000E+00  0.14924021379E+04  0.14924021379E+04  0.00000000000E+00 0.  1.
         21   -1    0    0  501  503 -0.00000000000E+00 -0.00000000000E+00 -0.51465526703E+02  0.51465526703E+02  0.00000000000E+00 0.  1.
          6    2    1    2  501    0 -0.43853606117E+02  0.21341372461E+03  0.70261563965E+03  0.75507497639E+03  0.17029658327E+03 0.  0.
         24    2    3    3    0    0  0.32001650366E+01  0.32321896352E+02  0.17846758595E+03  0.19851268892E+03  0.80632886512E+02 0.  0.
         -6    2    1    2    0  502  0.43853606117E+02 -0.21341372461E+03  0.73832097151E+03  0.78879268818E+03  0.17206827519E+03 0.  0.
        -24    2    5    5    0    0 -0.12627353936E+02 -0.18636608623E+03  0.44847512906E+03  0.49222165793E+03  0.79123011782E+02 0.  0.
          5    1    3    3  501    0 -0.47053771153E+02  0.18109182825E+03  0.52414805370E+03  0.55656228748E+03  0.47000000000E+01 0. -1.
        -13    1    4    4    0    0  0.12231287795E+02  0.29015797348E+02  0.15205397142E+02  0.34967484883E+02  0.00000000000E+00 0.  1.
         14    1    4    4    0    0 -0.90311227582E+01  0.33060990049E+01  0.16326218881E+03  0.16354520403E+03  0.00000000000E+00 0. -1.
         -5    1    5    5    0  502  0.56480960053E+02 -0.27047638380E+02  0.28984584246E+03  0.29657103024E+03  0.47000000000E+01 0.  1.
         13    1    6    6    0    0 -0.36104010139E+02 -0.70536007005E+02  0.12680229146E+03  0.14952474361E+03  0.00000000000E+00 0. -1.
        -14    1    6    6    0    0  0.23476656203E+02 -0.11583007922E+03  0.32167283759E+03  0.34269691432E+03  0.00000000000E+00 0.  1.
</event>
<event>
12    1  0.1050869E+000  0.2862740E+03  0.7818608E-02  0.1093029E+00
         21   -1    0    0  501  502  0.00000000000E+00  0.00000000000E+00  0.53776840565E+02  0.53776840565E+02  0.00000000000E+00 0.  1.
         21   -1    0    0  502  503 -0.00000000000E+00 -0.00000000000E+00 -0.14992408803E+04  0.14992408803E+04  0.00000000000E+00 0.  1.
         -6    2    1    2    0  503  0.21908890246E+03 -0.46985021240E+02 -0.76801813579E+03  0.81963689191E+03  0.17817193456E+03 0.  0.
        -24    2    3    3    0    0  0.17458638326E+03 -0.50394798898E+02 -0.74113397801E+03  0.76732103639E+03  0.80510611366E+02 0.  0.
          6    2    1    2  501    0 -0.21908890246E+03  0.46985021240E+02 -0.67744590392E+03  0.73338082893E+03  0.16943124893E+03 0.  0.
         24    2    5    5    0    0 -0.16394398139E+03  0.70897128686E+02 -0.34152895323E+03  0.39209643292E+03  0.72066323106E+02 0.  0.
          5    1    5    5  501    0 -0.55144921067E+02 -0.23912107446E+02 -0.33591695069E+03  0.34128439601E+03  0.47000000000E+01 0. -1.
        -11    1    6    6    0    0 -0.13009171505E+02  0.27609404115E+02 -0.95249102312E+02  0.10001954424E+03  0.00000000000E+00 0.  1.
         12    1    6    6    0    0 -0.15093480989E+03  0.43287724571E+02 -0.24627985092E+03  0.29207688868E+03  0.00000000000E+00 0. -1.
         -5    1    3    3    0  503  0.44502519204E+02  0.34097776581E+01 -0.26884157781E+02  0.52315855519E+02  0.47000000000E+01 0.  1.
         11    1    4    4    0    0  0.11897355703E+03 -0.18168741013E+01 -0.54275883450E+03  0.55564841468E+03  0.00000000000E+00 0. -1.
        -12    1    4    4    0    0  0.55612826222E+02 -0.48577924797E+02 -0.19837514351E+03  0.21167262171E+03  0.00000000000E+00 0.  1.
</event>
<event>
12    1  0.1050869E+000  0.1811516E+03  0.7818608E-02  0.1166731E+00
         21   -1    0    0  501  502  0.00000000000E+00  0.00000000000E+00  0.22958663246E+03  0.22958663246E+03  0.00000000000E+00 0. -1.
         21   -1    0    0  502  503 -0.00000000000E+00 -0.00000000000E+00 -0.14967404201E+03  0.14967404201E+03  0.00000000000E+00 0. -1.
         -6    2    1    2    0  503 -0.51020609626E+02  0.30375139043E+02  0.80547838744E+02  0.19810795166E+03  0.17097676599E+03 0.  0.
        -24    2    3    3    0    0 -0.24679290675E+02 -0.46418172403E+02  0.59375555604E+02  0.11407561658E+03  0.82000460832E+02 0.  0.
          6    2    1    2  501    0  0.51020609626E+02 -0.30375139043E+02 -0.63524828801E+00  0.18115272281E+03  0.17114366410E+03 0.  0.
         24    2    5    5    0    0  0.50802197715E+02 -0.67276113155E+02  0.42098471363E+02  0.12449594572E+03  0.81363508509E+02 0.  0.
          5    1    5    5  501    0  0.21841191122E+00  0.36900974113E+02 -0.42733719651E+02  0.56656777083E+02  0.47000000000E+01 0. -1.
        -13    1    6    6    0    0  0.50223696391E+02 -0.19046392329E+02 -0.87367875610E+01  0.54419814377E+02  0.00000000000E+00 0.  1.
         14    1    6    6    0    0  0.57850132355E+00 -0.48229720826E+02  0.50835258924E+02  0.70076131347E+02  0.00000000000E+00 0. -1.
         -5    1    3    3    0  503 -0.26341318951E+02  0.76793311445E+02  0.21172283140E+02  0.84032335087E+02  0.47000000000E+01 0.  1.
         13    1    4    4    0    0  0.93069853549E+00 -0.48185635459E+02 -0.12797954659E+01  0.48211612095E+02  0.00000000000E+00 0. -1.
        -14    1    4    4    0    0 -0.25609989211E+02  0.17674630560E+01  0.60655351070E+02  0.65864004482E+02  0.00000000000E+00 0.  1.
</event>
<event>
12    1  0.1050869E+000  0.1843727E+03  0.7818608E-02  0.1163662E+00
         21   -1    0    0  503  502  0.00000000000E+00  0.00000000000E+00  0.11441626765E+04  0.11441626765E+04  0.00000000000E+00 0.  1.
         21   -1    0    0  501  503 -0.00000000000E+00 -0.00000000000E+00 -0.43967409246E+02  0.43967409246E+02  0.00000000000E+00 0.  1.
          6    2    1    2  501    0 -0.63323600499E+02  0.11826796528E+02  0.21150023149E+03  0.28051113634E+03  0.17263950357E+03 0.  0.
         24    2    3    3    0    0 -0.82118426742E+01 -0.16862078770E+02  0.25609469113E+02  0.84455473441E+02  0.78263133245E+02 0.  0.
         -6    2    1    2    0  502  0.63323600499E+02 -0.11826796528E+02  0.88869503576E+03  0.90761894940E+03  0.17275282701E+03 0.  0.
        -24    2    5    5    0    0  0.52814842375E+02 -0.51787558048E+02  0.32932965417E+03  0.34670985109E+03  0.79235982858E+02 0.  0.
          5    1    3    3  501    0 -0.55111757825E+02  0.28688875298E+02  0.18589076238E+03  0.19605566289E+03  0.47000000000E+01 0. -1.
        -11    1    4    4    0    0  0.10951772487E+02 -0.40211489611E+00 -0.25328253710E+02  0.27597526212E+02  0.00000000000E+00 0.  1.
         12    1    4    4    0    0 -0.19163615161E+02 -0.16459963874E+02  0.50937722823E+02  0.56857947230E+02  0.00000000000E+00 0. -1.
         -5    1    5    5    0  502  0.10508758124E+02  0.39960761520E+02  0.55936538158E+03  0.56090909832E+03  0.47000000000E+01 0.  1.
         13    1    6    6    0    0  0.15047907432E+02  0.21327494723E+02  0.78610600500E+02  0.82830719302E+02  0.00000000000E+00 0. -1.
        -14    1    6    6    0    0  0.37766934943E+02 -0.73115052771E+02  0.25071905368E+03  0.26387913179E+03  0.00000000000E+00 0.  1.
</event>
<event>
12    1  0.1050869E+000  0.1763633E+03  0.7818608E-02  0.1171457E+00
         21   -1    0    0  503  502  0.00000000000E+00  0.00000000000E+00  0.83538781701E+02  0.83538781701E+02  0.00000000000E+00 0.  1.
         21   -1    0    0  501  503 -0.00000000000E+00 -0.00000000000E+00 -0.37463133880E+03  0.37463133880E+03  0.00000000000E+00 0.  1.
          6    2    1    2  501    0  0.35527632867E+02 -0.85363953404E+01 -0.12475582697E+03  0.21574093723E+03  0.17217738787E+03 0.  0.
         24    2    3    3    0    0 -0.32033621112E+01 -0.34296339153E+02 -0.14127428716E+03  0.16615652229E+03  0.80393191750E+02 0.  0.
         -6    2    1    2    0  502 -0.35527632867E+02  0.85363953404E+01 -0.16633673014E+03  0.24242918327E+03  0.17253671600E+03 0.  0.
        -24    2    5    5    0    0 -0.73690252234E+02 -0.10514318702E+01 -0.16990968976E+03  0.20264013971E+03  0.82233598737E+02 0.  0.
          5    1    3    3  501    0  0.38730994978E+02  0.25759943813E+02  0.16518460195E+02  0.49584414935E+02  0.47000000000E+01 0. -1.
        -13    1    4    4    0    0  0.11407848920E+02 -0.75037897697E+01  0.66000504157E+01  0.15165966615E+02  0.00000000000E+00 0.  1.
         14    1    4    4    0    0 -0.14611211031E+02 -0.26792549384E+02 -0.14787433758E+03  0.15099055568E+03  0.00000000000E+00 0. -1.
         -5    1    5    5    0  502  0.38162619367E+02  0.95878272106E+01  0.35729596281E+01  0.39789043568E+02  0.47000000000E+01 0.  1.
         13    1    6    6    0    0 -0.27560691884E+00  0.19155996644E+02 -0.32800566561E+01  0.19436741966E+02  0.00000000000E+00 0. -1.
        -14    1    6    6    0    0 -0.73414645315E+02 -0.20207428514E+02 -0.16662963311E+03  0.18320339774E+03  0.00000000000E+00 0.  1.
</event>
<event>
12    1  0.1050869E+000  0.9747025E+03  0.7818608E-02  0.9336838E-01
         21   -1    0    0  501  502  0.00000000000E+00  0.00000000000E+00  0.71200864355E+03  0.71200864355E+03  0.00000000000E+00 0. -1.
         21   -1    0    0  502  503 -0.00000000000E+00 -0.00000000000E+00 -0.13388913746E+04  0.13388913746E+04  0.00000000000E+00 0.  1.
         -6    2    1    2    0  503 -0.84520996696E+03 -0.45396427965E+03 -0.25022736463E+03  0.10059530571E+04  0.16989515462E+03 0.  0.
        -24    2    3    3    0    0 -0.78490587974E+03 -0.45916928591E+03 -0.24353396629E+03  0.94487469259E+03  0.81029123129E+02 0.  0.
          6    2    1    2  501    0  0.84520996696E+03  0.45396427965E+03 -0.37665536641E+03  0.10449469611E+04  0.17199253174E+03 0.  0.
         24    2    5    5    0    0  0.58011765078E+03  0.26862109024E+03 -0.30846853528E+03  0.71434513426E+03  0.80264280396E+02 0.  0.
          5    1    5    5  501    0  0.26509231618E+03  0.18534318941E+03 -0.68186831123E+02  0.33060182682E+03  0.47000000000E+01 0. -1.
        -13    1    6    6    0    0  0.38402418151E+03  0.20185527386E+03 -0.24211284880E+03  0.49682869797E+03  0.00000000000E+00 0.  1.
         14    1    6    6    0    0  0.19609346927E+03  0.66765816379E+02 -0.66355686482E+02  0.21751643629E+03  0.00000000000E+00 0. -1.
         -5    1    3    3    0  503 -0.60304087221E+02  0.52050062528E+01 -0.66933983355E+01  0.61078364475E+02  0.47000000000E+01 0.  1.
         13    1    4    4    0    0 -0.40504967655E+03 -0.19275311517E+03 -0.10562234962E+03  0.46084171320E+03  0.00000000000E+00 0. -1.
        -14    1    4    4    0    0 -0.37985620318E+03 -0.26641617074E+03 -0.13791161667E+03  0.48403297939E+03  0.00000000000E+00 0.  1.
</event>
<event>
12    1  0.1050869E+000  0.4055097E+03  0.7818608E-02  0.1041950E+00
         21   -1    0    0  501  502  0.00000000000E+00  0.00000000000E+00  0.79361254283E+03  0.79361254283E+03  0.00000000000E+00 0.  1.
         21   -1    0    0  502  503 -0.00000000000E+00 -0.00000000000E+00 -0.23009954133E+03  0.23009954133E+03  0.00000000000E+00 0.  1.
         -6    2    1    2    0  503 -0.24201324790E+03 -0.27606805519E+03  0.11921447647E+03  0.42267036944E+03  0.17220385172E+03 0.  0.
        -24    2    3    3    0    0 -0.17056299905E+03 -0.13478595208E+03  0.12755045262E+03  0.26405968500E+03  0.78736330619E+02 0.  0.
          6    2    1    2  501    0  0.24201324790E+03  0.27606805519E+03  0.44429852503E+03  0.60104171472E+03  0.17048747824E+03 0.  0.
         24    2    5    5    0    0  0.16769960468E+03  0.18740506461E+03  0.19973658378E+03  0.33045665125E+03  0.77865780687E+02 0.  0.
          5    1    5    5  501    0  0.74313643217E+02  0.88662990581E+02  0.24456194125E+03  0.27058506348E+03  0.47000000000E+01 0. -1.
        -13    1    6    6    0    0 -0.57874141121E+01  0.12572555253E+02  0.24635202105E+02  0.28256972422E+02  0.00000000000E+00 0.  1.
         14    1    6    6    0    0  0.17348701879E+03  0.17483250935E+03  0.17510138168E+03  0.30219967882E+03  0.00000000000E+00 0. -1.
         -5    1    3    3    0  503 -0.71450248853E+02 -0.14128210310E+03 -0.83359761467E+01  0.15861068444E+03  0.47000000000E+01 0.  1.
         13    1    4    4    0    0  0.59695512155E+00 -0.31024396575E+02  0.15801852043E+02  0.34821948054E+02  0.00000000000E+00 0. -1.
        -14    1    4    4    0    0 -0.17115995417E+03 -0.10376155551E+03  0.11174860057E+03  0.22923773695E+03  0.00000000000E+00 0.  1.
</event>
<event>
12    1  0.1050869E+000  0.3836224E+03  0.7818608E-02  0.1049608E+00
         21   -1    0    0  503  502  0.00000000000E+00  0.00000000000E+00  0.33767075052E+03  0.33767075052E+03  0.00000000000E+00 0. -1.
         21   -1    0    0  501  503 -0.00000000000E+00 -0.00000000000E+00 -0.71020305916E+03  0.71020305916E+03  0.00000000000E+00 0. -1.
          6    2    1    2  501    0  0.33560737553E+03  0.69618525864E+02 -0.51195091475E+03  0.63970262811E+03  0.17218206539E+03 0.  0.
         24    2    3    3    0    0  0.18919299484E+03  0.88583904794E+02 -0.22326282692E+03  0.31541917413E+03  0.77471724119E+02 0.  0.
         -6    2    1    2    0  502 -0.33560737553E+03 -0.69618525864E+02  0.13941860611E+03  0.40817118157E+03  0.17229949529E+03 0.  0.
        -24    2    5    5    0    0 -0.19416610280E+03 -0.38712601353E+02  0.15366225127E+03  0.26261781943E+03  0.78465856500E+02 0.  0.
          5    1    3    3  501    0  0.14641438069E+03 -0.18965378930E+02 -0.28868808783E+03  0.32428345398E+03  0.47000000000E+01 0. -1.
        -13    1    4    4    0    0  0.76602306172E+02 -0.24850014765E+01 -0.61160398293E+02  0.98054489253E+02  0.00000000000E+00 0.  1.
         14    1    4    4    0    0  0.11259068867E+03  0.91068906270E+02 -0.16210242863E+03  0.21736468488E+03  0.00000000000E+00 0. -1.
         -5    1    5    5    0  502 -0.14144127273E+03 -0.30905924511E+02 -0.14243645165E+02  0.14555336213E+03  0.47000000000E+01 0.  1.
         11    1    6    6    0    0 -0.15814131312E+02  0.16245598393E+02  0.34193115630E+02  0.41026520360E+02  0.00000000000E+00 0. -1.
        -12    1    6    6    0    0 -0.17835197149E+03 -0.54958199746E+02  0.11946913564E+03  0.22159129907E+03  0.00000000000E+00 0.  1.
</event>
<event>
12    1  0.1050869E+000  0.2803995E+03  0.7818608E-02  0.1096275E+00
         21   -1    0    0  503  502  0.00000000000E+00  0.00000000000E+00  0.65293658880E+03  0.65293658880E+03  0.00000000000E+00 0. -1.
         21   -1    0    0  501  503 -0.00000000000E+00 -0.00000000000E+00 -0.13997242283E+03  0.13997242283E+03  0.00000000000E+00 0. -1.
          6    2    1    2  501    0  0.66793361964E+02 -0.20322750646E+03  0.41155459946E+03  0.49473493838E+03  0.17211245840E+03 0.  0.
         24    2    3    3    0    0 -0.24722057807E+02 -0.83378386066E+02  0.13073395802E+03  0.17595412595E+03  0.79406241912E+02 0.  0.
         -6    2    1    2    0  502 -0.66793361964E+02  0.20322750646E+03  0.10140956650E+03  0.29817407325E+03  0.18127632277E+03 0.  0.
        -24    2    5    5    0    0 -0.57987374720E+02  0.25626929683E+02  0.46330293320E+02  0.11196095176E+03  0.79809043895E+02 0.  0.
          5    1    3    3  501    0  0.91515419771E+02 -0.11984912039E+03  0.28082064144E+03  0.31878081243E+03  0.47000000000E+01 0. -1.
        -13    1    4    4    0    0 -0.27115954548E+02 -0.30158752583E+01  0.70198915562E+02  0.75314395972E+02  0.00000000000E+00 0.  1.
         14    1    4    4    0    0  0.23938967403E+01 -0.80362510808E+02  0.60535042459E+02  0.10063972998E+03  0.00000000000E+00 0. -1.
         -5    1    5    5    0  502 -0.88059872441E+01  0.17760057677E+03  0.55079273179E+02  0.18621312149E+03  0.47000000000E+01 0.  1.
         11    1    6    6    0    0  0.61549825297E+01  0.23101364988E+02 -0.10608345514E+02  0.26155188182E+02  0.00000000000E+00 0. -1.
        -12    1    6    6    0    0 -0.64142357249E+02  0.25255646946E+01  0.56938638834E+02  0.85805763576E+02  0.00000000000E+00 0.  1.
</event>
<event>
12    1  0.1467637E+000  0.4226523E+03  0.7818608E-02  0.1036488E+00
         21   -1    0    0  501  502  0.00000000000E+00  0.00000000000E+00  0.12246572277E+04  0.12246572277E+04  0.00000000000E+00 0. -1.
         21   -1    0    0  502  503 -0.00000000000E+00 -0.00000000000E+00 -0.53433912432E+03  0.53433912432E+03  0.00000000000E+00 0. -1.
         -6    2    1    2    0  503  0.52100678803E+02 -0.37874289025E+03  0.10966037384E+04  0.11752338909E+04  0.18020621962E+03 0.  0.
        -24    2    3    3    0    0  0.32872449729E+02 -0.25707992244E+03  0.52871219445E+03  0.59411901566E+03  0.79184188669E+02 0.  0.
          6    2    1    2  501    0 -0.52100678803E+02  0.37874289025E+03 -0.40628563504E+03  0.58376246110E+03  0.17190094854E+03 0.  0.
         24    2    5    5    0    0 -0.76107444390E+02  0.36922122595E+03 -0.40290152655E+03  0.55729495130E+03  0.78303038660E+02 0.  0.
          5    1    5    5  501    0  0.24006765587E+02  0.95216643025E+01 -0.33841084843E+01  0.26467509805E+02  0.47000000000E+01 0. -1.
        -11    1    6    6    0    0  0.92456319870E+01  0.66236711807E+02 -0.10104745083E+03  0.12117496037E+03  0.00000000000E+00 0.  1.
         12    1    6    6    0    0 -0.85353076377E+02  0.30298451414E+03 -0.30185407572E+03  0.43611999093E+03  0.00000000000E+00 0. -1.
         -5    1    3    3    0  503  0.19228229075E+02 -0.12166296782E+03  0.56789154399E+03  0.58111487528E+03  0.47000000000E+01 0.  1.
         11    1    4    4    0    0  0.58011031119E+02 -0.20204274844E+03  0.42162763768E+03  0.47112250719E+03  0.00000000000E+00 0. -1.
        -12    1    4    4    0    0 -0.25138581390E+02 -0.55037173999E+02  0.10708455677E+03  0.12299650847E+03  0.00000000000E+00 0.  1.
</event>
<event>
12    1  0.1050869E+000  0.3732262E+03  0.7818608E-02  0.1053548E+00
         21   -1    0    0  503  502  0.00000000000E+00  0.00000000000E+00  0.34495609353E+03  0.34495609353E+03  0.00000000000E+00 0.  1.
         21   -1    0    0  501  503 -0.00000000000E+00 -0.00000000000E+00 -0.49162174705E+03  0.49162174705E+03  0.00000000000E+00 0.  1.
          6    2    1    2  501    0  0.28044098558E+03 -0.17638928126E+03 -0.25112294027E+03  0.44984498950E+03  0.17186465172E+03 0.  0.
         24    2    3    3    0    0  0.24482497267E+03 -0.14215847665E+03 -0.26757445894E+03  0.39756697474E+03  0.79467657578E+02 0.  0.
         -6    2    1    2    0  502 -0.28044098558E+03  0.17638928126E+03  0.10445728675E+03  0.38673285107E+03  0.16997249308E+03 0.  0.
        -24    2    5    5    0    0 -0.15693843196E+03  0.17130423858E+03  0.70825817757E+02  0.25854586220E+03  0.88627607541E+02 0.  0.
          5    1    3    3  501    0  0.35616012912E+02 -0.34230804619E+02  0.16451518672E+02  0.52278014760E+02  0.47000000000E+01 0. -1.
        -11    1    4    4    0    0  0.59748159351E+02 -0.10694067726E+02 -0.25905637411E+02  0.65994754943E+02  0.00000000000E+00 0.  1.
         12    1    4    4    0    0  0.18507681332E+03 -0.13146440892E+03 -0.24166882153E+03  0.33157221980E+03  0.00000000000E+00 0. -1.
         -5    1    5    5    0  502 -0.12350255362E+03  0.50850426888E+01  0.33631468991E+02  0.12818698888E+03  0.47000000000E+01 0.  1.
         11    1    6    6    0    0 -0.10446603178E+03  0.52465854954E+02  0.17866629378E+02  0.11825833661E+03  0.00000000000E+00 0. -1.
        -12    1    6    6    0    0 -0.52472400180E+02  0.11883838362E+03  0.52959188379E+02  0.14028752559E+03  0.00000000000E+00 0.  1.
</event>
<event>
12    1  0.1050869E+000  0.2310778E+03  0.7818608E-02  0.1126345E+00
         21   -1    0    0  501  502  0.00000000000E+00  0.00000000000E+00  0.34307686501E+03  0.34307686501E+03  0.00000000000E+00 0.  1.
         21   -1    0    0  502  503 -0.00000000000E+00 -0.00000000000E+00 -0.21745239355E+03  0.21745239355E+03  0.00000000000E+00 0.  1.
         -6    2    1    2    0  503 -0.65179992329E+02 -0.14098340475E+03 -0.88471666937E+02  0.24743519105E+03  0.17109116314E+03 0.  0.
        -24    2    3    3    0    0 -0.15990648792E+02 -0.13852549770E+03 -0.16575718712E+02  0.16016119609E+03  0.77018438846E+02 0.  0.
          6    2    1    2  501    0  0.65179992329E+02  0.14098340475E+03  0.21409613840E+03  0.31309406750E+03  0.16752906259E+03 0.  0.
         24    2    5    5    0    0  0.39859085860E+02  0.58912484746E+01  0.92970220500E+02  0.12983300514E+03  0.81176928925E+02 0.  0.
          5    1    5    5  501    0  0.25320906469E+02  0.13509215627E+03  0.12112591790E+03  0.18326106236E+03  0.47000000000E+01 0. -1.
        -11    1    6    6    0    0 -0.14073194953E+02 -0.15124756912E+02  0.59467764789E+02  0.62954174896E+02  0.00000000000E+00 0.  1.
         12    1    6    6    0    0  0.53932280813E+02  0.21016005386E+02  0.33502455710E+02  0.66878830244E+02  0.00000000000E+00 0. -1.
         -5    1    3    3    0  503 -0.49189343538E+02 -0.24579070517E+01 -0.71895948225E+02  0.87273994958E+02  0.47000000000E+01 0.  1.
         13    1    4    4    0    0 -0.44390100341E+02 -0.63653826203E+02  0.32328922937E+01  0.77670729307E+02  0.00000000000E+00 0. -1.
        -14    1    4    4    0    0  0.28399451549E+02 -0.74871671495E+02 -0.19808611006E+02  0.82490466787E+02  0.00000000000E+00 0.  1.
</event>
<event>
12    1  0.1050869E+000  0.3169207E+03  0.7818608E-02  0.1077169E+00
         21   -1    0    0  503  502  0.00000000000E+00  0.00000000000E+00  0.39719448114E+03  0.39719448114E+03  0.00000000000E+00 0. -1.
         21   -1    0    0  501  503 -0.00000000000E+00 -0.00000000000E+00 -0.31538745820E+03  0.31538745820E+03  0.00000000000E+00 0.  1.
          6    2    1    2  501    0 -0.24557911265E+03  0.10119654840E+03  0.20038215200E+03  0.37495567451E+03  0.17288409132E+03 0.  0.
         24    2    3    3    0    0 -0.57335603775E+02  0.78675816380E+02  0.59715306191E+02  0.13883694694E+03  0.78946339355E+02 0.  0.
         -6    2    1    2    0  502  0.24557911265E+03 -0.10119654840E+03 -0.11857512907E+03  0.33762626482E+03  0.17141059328E+03 0.  0.
        -24    2    5    5    0    0  0.13383019047E+03 -0.46278677817E+02  0.33556236298E+01  0.16329040342E+03  0.81241982610E+02 0.  0.
          5    1    3    3  501    0 -0.18824350887E+03  0.22520732024E+02  0.14066684581E+03  0.23611872758E+03  0.47000000000E+01 0. -1.
        -11    1    4    4    0    0 -0.53356856483E+02  0.75316561062E+01  0.29584625482E+02  0.61473002549E+02  0.00000000000E+00 0.  1.
         12    1    4    4    0    0 -0.39787472921E+01  0.71144160274E+02  0.30130680710E+02  0.77363944387E+02  0.00000000000E+00 0. -1.
         -5    1    5    5    0  502  0.11174892218E+03 -0.54917870587E+02 -0.12193075270E+03  0.17433586140E+03  0.47000000000E+01 0.  1.
         11    1    6    6    0    0  0.59458242921E+02 -0.49456782721E+02  0.31772931601E+02  0.83610855700E+02  0.00000000000E+00 0. -1.
        -12    1    6    6    0    0  0.74371947548E+02  0.31781049048E+01 -0.28417307971E+02  0.79679547722E+02  0.00000000000E+00 0.  1.
</event>
<event>
12    1  0.1050869E+000  0.2107828E+03  0.7818608E-02  0.1141911E+00
         21   -1    0    0  501  502  0.00000000000E+00  0.00000000000E+00  0.29779602579E+03  0.29779602579E+03  0.00000000000E+00 0.  1.
         21   -1    0    0  502  503 -0.00000000000E+00 -0.00000000000E+00 -0.15188795079E+03  0.15188795079E+03  0.00000000000E+00 0.  1.
         -6    2    1    2    0  503  0.78301642465E+01 -0.11365957279E+03  0.11879401623E+03  0.24195332686E+03  0.17734030598E+03 0.  0.
        -24    2    3    3    0    0  0.52551616314E+02 -0.10767057721E+03  0.13064635639E+03  0.19506575590E+03  0.81409785123E+02 0.  0.
          6    2    1    2  501    0 -0.78301642465E+01  0.11365957279E+03  0.27114058773E+02  0.20773064972E+03  0.17157226084E+03 0.  0.
         24    2    5    5    0    0 -0.44345499939E+02  0.81382843184E+02 -0.37355456745E+02  0.12677655504E+03  0.78020344967E+02 0.  0.
          5    1    5    5  501    0  0.36515335692E+02  0.32276729607E+02  0.64469515518E+02  0.80954094684E+02  0.47000000000E+01 0. -1.
        -11    1    6    6    0    0  0.22350547111E+02  0.15488398668E+02 -0.54040254419E+01  0.27724374482E+02  0.00000000000E+00 0.  1.
         12    1    6    6    0    0 -0.66696047050E+02  0.65894444517E+02 -0.31951431303E+02  0.99052180555E+02  0.00000000000E+00 0. -1.
         -5    1    3    3    0  503 -0.44721452068E+02 -0.59889955795E+01 -0.11852340154E+02  0.46887570957E+02  0.47000000000E+01 0.  1.
         11    1    4    4    0    0  0.29776472281E+02 -0.66459558018E+02  0.12877748002E+03  0.14794306511E+03  0.00000000000E+00 0. -1.
        -12    1    4    4    0    0  0.22775144033E+02 -0.41211019194E+02  0.18688763684E+01  0.47122690794E+02  0.00000000000E+00 0.  1.
</event>
<event>
12    1  0.1050869E+000  0.1854129E+03  0.7818608E-02  0.1163302E+00
         21   -1    0    0  501  502  0.00000000000E+00  0.00000000000E+00  0.18246396873E+03  0.18246396873E+03  0.00000000000E+00 0. -1.
         21   -1    0    0  502  503 -0.00000000000E+00 -0.00000000000E+00 -0.21200558907E+03  0.21200558907E+03  0.00000000000E+00 0. -1.
         -6    2    1    2    0  503 -0.28485732278E+02  0.55806103201E+02 -0.84392668577E+02  0.20371563643E+03  0.17450552976E+03 0.  0.
        -24    2    3    3    0    0 -0.32465842668E+02  0.52877307532E+01 -0.11707464017E+03  0.14323300668E+03  0.75678476433E+02 0.  0.
          6    2    1    2  501    0  0.28485732278E+02 -0.55806103201E+02  0.54851048239E+02  0.19075392137E+03  0.17161778150E+03 0.  0.
         24    2    5    5    0    0 -0.17117694433E+02 -0.15547921737E+02 -0.26694131993E+02  0.88910413373E+02  0.81594923802E+02 0.  0.
          5    1    5    5  501    0  0.45603426711E+02 -0.40258181464E+02  0.81545180232E+02  0.10184350800E+03  0.47000000000E+01 0. -1.
        -13    1    6    6    0    0  0.27573285686E+02  0.14151718437E+02 -0.12383994406E+02  0.33375448097E+02  0.00000000000E+00 0.  1.
         14    1    6    6    0    0 -0.44690980119E+02 -0.29699640174E+02 -0.14310137587E+02  0.55534965276E+02  0.00000000000E+00 0. -1.
         -5    1    3    3    0  503  0.39801103899E+01  0.50518372448E+02  0.32681971595E+02  0.60482629744E+02  0.47000000000E+01 0.  1.
         13    1    4    4    0    0 -0.85384989886E+01 -0.19233086620E+02 -0.10471924095E+03  0.10681262571E+03  0.00000000000E+00 0. -1.
        -14    1    4    4    0    0 -0.23927343679E+02  0.24520817373E+02 -0.12355399221E+02  0.36420380971E+02  0.00000000000E+00 0.  1.
</event>
<event>
12    1  0.1050869E+000  0.3463198E+03  0.7818608E-02  0.1064140E+00
         21   -1    0    0  503  502  0.00000000000E+00  0.00000000000E+00  0.21322401692E+04  0.21322401692E+04  0.00000000000E+00 0. -1.
         21   -1    0    0  501  503 -0.00000000000E+00 -0.00000000000E+00 -0.58171347104E+02  0.58171347104E+02  0.00000000000E+00 0. -1.
          6    2    1    2  501    0 -0.29000847694E+03 -0.78668743653E+02  0.12365327943E+04  0.12841147757E+04  0.17217351082E+03 0.  0.
         24    2    3    3    0    0 -0.10969170299E+03 -0.43869758548E+02  0.33777819909E+03  0.36677785789E+03  0.80467756524E+02 0.  0.
         -6    2    1    2    0  502  0.29000847694E+03  0.78668743653E+02  0.83753602777E+03  0.90629674059E+03  0.17208572363E+03 0.  0.
        -24    2    5    5    0    0  0.22086629973E+03  0.11346180152E+03  0.55438300561E+03  0.61271724283E+03  0.80164830213E+02 0.  0.
          5    1    3    3  501    0 -0.18031677394E+03 -0.34798985105E+02  0.89875459521E+03  0.91733691779E+03  0.47000000000E+01 0. -1.
        -13    1    4    4    0    0 -0.88100328194E+02 -0.55292485890E+02  0.32023612714E+03  0.33670477268E+03  0.00000000000E+00 0.  1.
         14    1    4    4    0    0 -0.21591374800E+02  0.11422727342E+02  0.17542071952E+02  0.30073085210E+02  0.00000000000E+00 0. -1.
         -5    1    5    5    0  502  0.69142177209E+02 -0.34793057862E+02  0.28315302216E+03  0.29357949776E+03  0.47000000000E+01 0.  1.
         13    1    6    6    0    0  0.11732120938E+02  0.41682134342E+01  0.27752072894E+01  0.12756113846E+02  0.00000000000E+00 0. -1.
        -14    1    6    6    0    0  0.20913417879E+03  0.10929358808E+03  0.55160779832E+03  0.59996112899E+03  0.00000000000E+00 0.  1.
</event>
<event>
12    1  0.1050869E+000  0.1898632E+03  0.7818608E-02  0.1161953E+00
         21   -1    0    0  503  502  0.00000000000E+00  0.00000000000E+00  0.14013200654E+03  0.14013200654E+03  0.00000000000E+00 0. -1.
         21   -1    0    0  501  503 -0.00000000000E+00 -0.00000000000E+00 -0.50782948649E+03  0.50782948649E+03  0.00000000000E+00 0. -1.
          6    2    1    2  501    0 -0.60902044887E+02  0.41527579799E+02  0.48752738839E+02  0.19602263643E+03  0.17496984166E+03 0.  0.
         24    2    3    3    0    0 -0.66122035443E+02  0.68086055104E+02  0.83134644879E+02  0.15201347403E+03  0.84787337713E+02 0.  0.
         -6    2    1    2    0  502  0.60902044887E+02 -0.41527579799E+02 -0.41645021878E+03  0.45193885660E+03  0.15932465731E+03 0.  0.
        -24    2    5    5    0    0  0.48203617844E+02 -0.45071686910E+01 -0.39827694659E+03  0.40853242033E+03  0.77008499071E+02 0.  0.
          5    1    3    3  501    0  0.52199905565E+01 -0.26558475305E+02 -0.34381906039E+02  0.44009162396E+02  0.47000000000E+01 0. -1.
        -13    1    4    4    0    0 -0.11182623355E+02  0.68604734423E+02  0.30428928243E+02  0.75878721157E+02  0.00000000000E+00 0.  1.
         14    1    4    4    0    0 -0.54939412088E+02 -0.51867931901E+00  0.52705716636E+02  0.76134752872E+02  0.00000000000E+00 0. -1.
         -5    1    5    5    0  502  0.12698427043E+02 -0.37020411108E+02 -0.18173272195E+02  0.43406436277E+02  0.47000000000E+01 0.  1.
         11    1    6    6    0    0  0.55687566234E+02 -0.18050574170E+02 -0.17125960089E+03  0.18098833984E+03  0.00000000000E+00 0. -1.
        -12    1    6    6    0    0 -0.74839483902E+01  0.13543405480E+02 -0.22701734570E+03  0.22754408048E+03  0.00000000000E+00 0.  1.
</event>
<event>
12    1  0.1050869E+000  0.2077130E+03  0.7818608E-02  0.1143477E+00
         21   -1    0    0  503  502  0.00000000000E+00  0.00000000000E+00  0.15351020584E+03  0.15351020584E+03  0.00000000000E+00 0. -1.
         21   -1    0    0  501  503 -0.00000000000E+00 -0.00000000000E+00 -0.34507399699E+03  0.34507399699E+03  0.00000000000E+00 0. -1.
          6    2    1    2  501    0  0.19049776880E+02  0.11500812173E+03  0.12002319703E+02  0.20805950750E+03  0.17191550518E+03 0.  0.
         24    2    3    3    0    0  0.74350561302E+02  0.88761225416E+02  0.30544736284E+02  0.14392692970E+03  0.79846221414E+02 0.  0.
         -6    2    1    2    0  502 -0.19049776880E+02 -0.11500812173E+03 -0.20356611084E+03  0.29052469532E+03  0.17139333431E+03 0.  0.
        -24    2    5    5    0    0 -0.44333691763E+02 -0.14494793388E+03 -0.14021258305E+03  0.21588269517E+03  0.63011029705E+02 0.  0.
          5    1    3    3  501    0 -0.55300784421E+02  0.26246896311E+02 -0.18542416581E+02  0.64132577808E+02  0.47000000000E+01 0. -1.
        -11    1    4    4    0    0  0.40274091820E+02  0.34377097023E+02 -0.25455194442E+02  0.58751631431E+02  0.00000000000E+00 0.  1.
         12    1    4    4    0    0  0.34076469481E+02  0.54384128392E+02  0.55999930726E+02  0.85175298266E+02  0.00000000000E+00 0. -1.
         -5    1    5    5    0  502  0.25283914882E+02  0.29939812155E+02 -0.63353527793E+02  0.74642000158E+02  0.47000000000E+01 0.  1.
         13    1    6    6    0    0 -0.43148991731E+02 -0.71229895642E+02 -0.42563856636E+02  0.93526549237E+02  0.00000000000E+00 0. -1.
        -14    1    6    6    0    0 -0.11847000323E+01 -0.73718038240E+02 -0.97648726415E+02  0.12235614593E+03  0.00000000000E+00 0.  1.
</event>
<event>
12    1  0.1050869E+000  0.3118933E+03  0.7818608E-02  0.1079618E+00
         21   -1    0    0  503  502  0.00000000000E+00  0.00000000000E+00  0.75618272499E+03  0.75618272499E+03  0.00000000000E+00 0. -1.
         21   -1    0    0  501  503 -0.00000000000E+00 -0.00000000000E+00 -0.13270325940E+03  0.13270325940E+03  0.00000000000E+00 0. -1.
          6    2    1    2  501    0 -0.18869639855E+03 -0.17650625277E+03  0.39580428747E+03  0.50392310063E+03  0.17469020944E+03 0.  0.
         24    2    3    3    0    0 -0.13249952551E+03 -0.19022310475E+03  0.26734957126E+03  0.36296585646E+03  0.80792733972E+02 0.  0.
         -6    2    1    2    0  502  0.18869639855E+03  0.17650625277E+03  0.22767517812E+03  0.38496288376E+03  0.17204547959E+03 0.  0.
        -24    2    5    5    0    0  0.72610607922E+02  0.10560230307E+02  0.73714561533E+02  0.13052241014E+03  0.78857112040E+02 0.  0.
          5    1    3    3  501    0 -0.56196873034E+02  0.13716851975E+02  0.12845471621E+03  0.14095724417E+03  0.47000000000E+01 0. -1.
        -13    1    4    4    0    0 -0.12897085593E+03 -0.12313218449E+03  0.19371158851E+03  0.26328538899E+03  0.00000000000E+00 0.  1.
         14    1    4    4    0    0 -0.35286695821E+01 -0.67090920261E+02  0.73637982752E+02  0.99680467466E+02  0.00000000000E+00 0. -1.
         -5    1    5    5    0  502  0.11608579062E+03  0.16594602246E+03  0.15396061659E+03  0.25444047362E+03  0.47000000000E+01 0.  1.
         13    1    6    6    0    0 -0.10018907413E+02 -0.10633572425E+02  0.32814460785E+02  0.35919913765E+02  0.00000000000E+00 0. -1.
        -14    1    6    6    0    0  0.82629515335E+02  0.21193802732E+02  0.40900100747E+02  0.94602496373E+02  0.00000000000E+00 0.  1.
</event>
<event>
12    1  0.1050869E+000  0.1865752E+03  0.7818608E-02  0.1163613E+00
         21   -1    0    0  503  502  0.00000000000E+00  0.00000000000E+00  0.73995184781E+02  0.73995184781E+02  0.00000000000E+00 0.  1.
         21   -1    0    0  501  503 -0.00000000000E+00 -0.00000000000E+00 -0.50293116891E+03  0.50293116891E+03  0.00000000000E+00 0.  1.
          6    2    1    2  501    0 -0.38527858067E+02  0.60105950863E+02 -0.30431119388E+03  0.35255692421E+03  0.16307654923E+03 0.  0.
         24    2    3    3    0    0  0.36076899801E+02  0.51537416839E+02 -0.19887663017E+03  0.22302767308E+03  0.78941629703E+02 0.  0.
         -6    2    1    2    0  502  0.38527858067E+02 -0.60105950863E+02 -0.12462479025E+03  0.22436942948E+03  0.17237511817E+03 0.  0.
        -24    2    5    5    0    0 -0.28678696701E+02 -0.86221495286E+01 -0.10379972643E+03  0.13705920049E+03  0.84344721975E+02 0.  0.
          5    1    3    3  501    0 -0.74604757868E+02  0.85685340245E+01 -0.10543456371E+03  0.12952925112E+03  0.47000000000E+01 0. -1.
        -11    1    4    4    0    0  0.50965187574E+02  0.17083319386E+02 -0.16086668382E+03  0.16960949298E+03  0.00000000000E+00 0.  1.
         12    1    4    4    0    0 -0.14888287774E+02  0.34454097453E+02 -0.38009946348E+02  0.53418180103E+02  0.00000000000E+00 0. -1.
         -5    1    5    5    0  502  0.67206554768E+02 -0.51483801335E+02 -0.20825063819E+02  0.87310228992E+02  0.47000000000E+01 0.  1.
         11    1    6    6    0    0 -0.36931861821E+02 -0.40620361193E+02 -0.52005494375E+02  0.75621079113E+02  0.00000000000E+00 0. -1.
        -12    1    6    6    0    0  0.82531651197E+01  0.31998211665E+02 -0.51794232052E+02  0.61438121375E+02  0.00000000000E+00 0.  1.
</event>
<event>
12    1  0.1050869E+000  0.2592404E+03  0.7818608E-02  0.1108281E+00
         21   -1    0    0  503  502  0.00000000000E+00  0.00000000000E+00  0.64170627118E+03  0.64170627118E+03  0.00000000000E+00 0. -1.
         21   -1    0    0  501  503 -0.00000000000E+00 -0.00000000000E+00 -0.10386598611E+03  0.10386598611E+03  0.00000000000E+00 0. -1.
          6    2    1    2  501    0 -0.46742442855E+02 -0.18170822953E+03  0.23120833313E+03  0.34403928575E+03  0.17234558360E+03 0.  0.
         24    2    3    3    0    0 -0.42767244227E+02 -0.20696868042E+03  0.18997614020E+03  0.29529427250E+03  0.80266441728E+02 0.  0.
         -6    2    1    2    0  502  0.46742442855E+02  0.18170822953E+03  0.30663195194E+03  0.40153297154E+03  0.17889336666E+03 0.  0.
        -24    2    5    5    0    0  0.60136442984E+02  0.20580979411E+03  0.28585897784E+03  0.36669203143E+03  0.82302050852E+02 0.  0.
          5    1    3    3  501    0 -0.39751986283E+01  0.25260450891E+02  0.41232192927E+02  0.48745013252E+02  0.47000000000E+01 0. -1.
        -11    1    4    4    0    0 -0.32758306004E+02 -0.14872711963E+03  0.17929123953E+03  0.23524075178E+03  0.00000000000E+00 0.  1.
         12    1    4    4    0    0 -0.10008938223E+02 -0.58241560798E+02  0.10684900674E+02  0.60053520720E+02  0.00000000000E+00 0. -1.
         -5    1    5    5    0  502 -0.13394000129E+02 -0.24101564576E+02  0.20772974099E+02  0.34840940105E+02  0.47000000000E+01 0.  1.
         13    1    6    6    0    0  0.15324543694E+02  0.22626391118E+02  0.40819420156E+01  0.27630734067E+02  0.00000000000E+00 0. -1.
        -14    1    6    6    0    0  0.44811899290E+02  0.18318340299E+03  0.28177703583E+03  0.33906129736E+03  0.00000000000E+00 0.  1.
</event>
<event>
12    1  0.1050869E+000  0.1891589E+03  0.7818608E-02  0.1162762E+00
         21   -1    0    0  501  502  0.00000000000E+00  0.00000000000E+00  0.88237546668E+02  0.88237546668E+02  0.00000000000E+00 0. -1.
         21   -1    0    0  502  503 -0.00000000000E+00 -0.00000000000E+00 -0.38989424650E+03  0.38989424650E+03  0.00000000000E+00 0. -1.
         -6    2    1    2    0  503 -0.24032442359E+01  0.25144886638E+02 -0.19292510374E+03  0.25994919054E+03  0.17238168436E+03 0.  0.
        -24    2    3    3    0    0  0.45732280402E+02  0.63232448599E+02 -0.13682112362E+03  0.17665790832E+03  0.79988828453E+02 0.  0.
          6    2    1    2  501    0  0.24032442359E+01 -0.25144886638E+02 -0.10873159609E+03  0.21818260263E+03  0.18746478921E+03 0.  0.
         24    2    5    5    0    0  0.18893875299E+02 -0.21489281544E+02 -0.15049848669E+03  0.17288505841E+03  0.80129153131E+02 0.  0.
          5    1    5    5  501    0 -0.16490631063E+02 -0.36556050945E+01  0.41766890600E+02  0.45297544214E+02  0.47000000000E+01 0. -1.
        -13    1    6    6    0    0  0.30862610117E+02  0.46817566653E+01 -0.15497760807E+02  0.34851113881E+02  0.00000000000E+00 0.  1.
         14    1    6    6    0    0 -0.11968734819E+02 -0.26171038209E+02 -0.13500072588E+03  0.13803394453E+03  0.00000000000E+00 0. -1.
         -5    1    3    3    0  503 -0.48135524638E+02 -0.38087561960E+02 -0.56103980127E+02  0.83291282223E+02  0.47000000000E+01 0.  1.
         11    1    4    4    0    0  0.35162176885E+01  0.37599958863E+02 -0.78740672792E+01  0.38576179552E+02  0.00000000000E+00 0. -1.
        -12    1    4    4    0    0  0.42216062714E+02  0.25632489736E+02 -0.12894705634E+03  0.13808172877E+03  0.00000000000E+00 0.  1.
</event>
<event>
12    1  0.1050869E+000  0.2249069E+03  0.7818608E-02  0.1131964E+00
         21   -1    0    0  501  502  0.00000000000E+00  0.00000000000E+00  0.12611187966E+04  0.12611187966E+04  0.00000000000E+00 0. -1.
         21   -1    0    0  502  503 -0.00000000000E+00 -0.00000000000E+00 -0.55074378154E+02  0.55074378154E+02  0.00000000000E+00 0.  1.
         -6    2    1    2    0  503 -0.12742096069E+03  0.12241923759E+02  0.23336035168E+03  0.31784584232E+03  0.17373243745E+03 0.  0.
        -24    2    3    3    0    0 -0.87604454029E+02 -0.19919566297E+02  0.23734927542E+03  0.26629279044E+03  0.80658801189E+02 0.  0.
          6    2    1    2  501    0  0.12742096069E+03 -0.12241923759E+02  0.97268406679E+03  0.99834733246E+03  0.18492467796E+03 0.  0.
         24    2    5    5    0    0 -0.10656560518E+02  0.16334425767E+02  0.31739204399E+03  0.32804013814E+03  0.80574480406E+02 0.  0.
          5    1    5    5  501    0  0.13807752121E+03 -0.28576349526E+02  0.65529202280E+03  0.67030719432E+03  0.47000000000E+01 0. -1.
        -13    1    6    6    0    0 -0.34386815629E+01  0.27844668098E+02  0.31225865026E+03  0.31351653024E+03  0.00000000000E+00 0.  1.
         14    1    6    6    0    0 -0.72178789555E+01 -0.11510242331E+02  0.51333937337E+01  0.14523607898E+02  0.00000000000E+00 0. -1.
         -5    1    3    3    0  503 -0.39816506661E+02  0.32161490056E+02 -0.39889237440E+01  0.51553051878E+02  0.47000000000E+01 0.  1.
         11    1    4    4    0    0 -0.79251591265E+02  0.14355975111E+02  0.19621700537E+03  0.21210379990E+03  0.00000000000E+00 0. -1.
        -12    1    4    4    0    0 -0.83528627635E+01 -0.34275541407E+02  0.41132270058E+02  0.54188990535E+02  0.00000000000E+00 0.  1.
</event>
<event>
12    1  0.1050869E+000  0.2162036E+03  0.7818608E-02  0.1137047E+00
         21   -1    0    0  503  502  0.00000000000E+00  0.00000000000E+00  0.28008211404E+03  0.28008211404E+03  0.00000000000E+00 0.  1.
         21   -1    0    0  501  503 -0.00000000000E+00 -0.00000000000E+00 -0.20754348617E+03  0.20754348617E+03  0.00000000000E+00 0.  1.
          6    2    1    2  501    0  0.44608906441E+01  0.12950346792E+03  0.14587522652E+03  0.26081328902E+03  0.17306918346E+03 0.  0.
         24    2    3    3    0    0  0.24039893701E+02  0.14820040234E+03  0.15464052932E+03  0.23197176946E+03  0.85766734662E+02 0.  0.
         -6    2    1    2    0  502 -0.44608906441E+01 -0.12950346792E+03 -0.73336598653E+02  0.22681231119E+03  0.17109798379E+03 0.  0.
        -24    2    5    5    0    0 -0.39225826413E+02 -0.63052944996E+02  0.18033910354E+02  0.10851213084E+03  0.77041036375E+02 0.  0.
          5    1    3    3  501    0 -0.19579003057E+02 -0.18696934421E+02 -0.87653027922E+01  0.28841519559E+02  0.47000000000E+01 0. -1.
        -13    1    4    4    0    0 -0.14529887533E+02  0.15089437422E+02 -0.39963714672E+01  0.21325565370E+02  0.00000000000E+00 0.  1.
         14    1    4    4    0    0  0.38569781234E+02  0.13311096492E+03  0.15863690078E+03  0.21064620409E+03  0.00000000000E+00 0. -1.
         -5    1    5    5    0  502  0.34764935769E+02 -0.66450522927E+02 -0.91370509006E+02  0.11830018036E+03  0.47000000000E+01 0.  1.
         13    1    6    6    0    0 -0.55472089950E+02 -0.17950809118E+02  0.34599921810E+01  0.58406813449E+02  0.00000000000E+00 0. -1.
        -14    1    6    6    0    0  0.16246263537E+02 -0.45102135878E+02  0.14573918173E+02  0.50105317388E+02  0.00000000000E+00 0.  1.
</event>
<event>
12    1  0.1050869E+000  0.2361737E+03  0.7818608E-02  0.1122581E+00
         21   -1    0    0  501  502  0.00000000000E+00  0.00000000000E+00  0.34385902306E+03  0.34385902306E+03  0.00000000000E+00 0. -1.
         21   -1    0    0  502  503 -0.00000000000E+00 -0.00000000000E+00 -0.21234757084E+03  0.21234757084E+03  0.00000000000E+00 0. -1.
         -6    2    1    2    0  503  0.29152226827E+02 -0.15806225341E+03 -0.70658304633E+02  0.24531974287E+03  0.17133491164E+03 0.  0.
        -24    2    3    3    0    0  0.31476336017E+01 -0.18174788375E+03 -0.52801836021E+02  0.20559328538E+03  0.80239418382E+02 0.  0.
          6    2    1    2  501    0 -0.29152226827E+02  0.15806225341E+03  0.20216975685E+03  0.31088685102E+03  0.17304477822E+03 0.  0.
         24    2    5    5    0    0 -0.70786050617E+02  0.58090624047E+02  0.69317020400E+02  0.13942361431E+03  0.79050043298E+02 0.  0.
          5    1    5    5  501    0  0.41633823790E+02  0.99971629367E+02  0.13285273645E+03  0.17146323671E+03  0.47000000000E+01 0. -1.
        -11    1    6    6    0    0 -0.31087624275E+02  0.70467312624E+02  0.31487716794E+02  0.83207925346E+02  0.00000000000E+00 0.  1.
         12    1    6    6    0    0 -0.39698426342E+02 -0.12376688576E+02  0.37829303605E+02  0.56215688961E+02  0.00000000000E+00 0. -1.
         -5    1    3    3    0  503  0.26004593226E+02  0.23685630337E+02 -0.17856468612E+02  0.39726457488E+02  0.47000000000E+01 0.  1.
         13    1    4    4    0    0  0.25696699775E+02 -0.11693958658E+03 -0.64478637673E+02  0.13598780094E+03  0.00000000000E+00 0. -1.
        -14    1    4    4    0    0 -0.22549066173E+02 -0.64808297170E+02  0.11676801652E+02  0.69605484441E+02  0.00000000000E+00 0.  1.
</event>
<event>
12    1  0.1050869E+000  0.1807687E+03  0.7818608E-02  0.1167548E+00
         21   -1    0    0  501  502  0.00000000000E+00  0.00000000000E+00  0.27667655826E+03  0.27667655826E+03  0.00000000000E+00 0.  1.
         21   -1    0    0  502  503 -0.00000000000E+00 -0.00000000000E+00 -0.17662970773E+03  0.17662970773E+03  0.00000000000E+00 0.  1.
         -6    2    1    2    0  503 -0.51279569663E+02 -0.89999840466E+01 -0.82078897331E+02  0.19669934478E+03  0.17100611940E+03 0.  0.
        -24    2    3    3    0    0 -0.68089145983E+02  0.35784345344E+02 -0.12365413461E+02  0.11202196971E+03  0.80494515807E+02 0.  0.
          6    2    1    2  501    0  0.51279569663E+02  0.89999840466E+01  0.18212574786E+03  0.25660692121E+03  0.17310901190E+03 0.  0.
         24    2    5    5    0    0  0.45906207595E+02  0.40346922009E+02  0.19823557031E+03  0.22064694458E+03  0.75182968837E+02 0.  0.
          5    1    5    5  501    0  0.53733620679E+01 -0.31346937963E+02 -0.16109822456E+02  0.35959976629E+02  0.47000000000E+01 0. -1.
        -13    1    6    6    0    0 -0.11735618510E+02  0.24233382151E+02  0.22797426864E+02  0.35280365983E+02  0.00000000000E+00 0.  1.
         14    1    6    6    0    0  0.57641826104E+02  0.16113539859E+02  0.17543814345E+03  0.18536657860E+03  0.00000000000E+00 0. -1.
         -5    1    3    3    0  503  0.16809576320E+02 -0.44784329391E+02 -0.69713483869E+02  0.84677375067E+02  0.47000000000E+01 0.  1.
         13    1    4    4    0    0 -0.40567758948E+02  0.58025535228E+02 -0.24024748854E+02  0.74765596112E+02  0.00000000000E+00 0. -1.
        -14    1    4    4    0    0 -0.27521387035E+02 -0.22241189883E+02  0.11659335393E+02  0.37256373597E+02  0.00000000000E+00 0.  1.
</event>
<event>
12    1  0.1050869E+000  0.2032065E+03  0.7818608E-02  0.1147958E+00
         21   -1    0    0  503  502  0.00000000000E+00  0.00000000000E+00  0.31374297200E+02  0.31374297200E+02  0.00000000000E+00 0.  1.
         21   -1    0    0  501  503 -0.00000000000E+00 -0.00000000000E+00 -0.14070039263E+04  0.14070039263E+04  0.00000000000E+00 0.  1.
          6    2    1    2  501    0  0.57745920642E+02 -0.82726176617E+02 -0.90323348954E+03  0.92580970485E+03  0.17639348439E+03 0.  0.
         24    2    3    3    0    0  0.33057212144E+02  0.94584401505E+01 -0.63736214857E+03  0.64329033235E+03  0.80060613876E+02 0.  0.
         -6    2    1    2    0  502 -0.57745920642E+02  0.82726176617E+02 -0.47239613959E+03  0.51256851868E+03  0.17143559136E+03 0.  0.
        -24    2    5    5    0    0  0.97736168649E+01  0.71936405382E+02 -0.16987229181E+03  0.20237813264E+03  0.82643469443E+02 0.  0.
          5    1    3    3  501    0  0.24688708498E+02 -0.92184616768E+02 -0.26587134096E+03  0.28251937251E+03  0.47000000000E+01 0. -1.
        -11    1    4    4    0    0 -0.24856329486E+02  0.86239618133E+01 -0.13020463426E+03  0.13283620221E+03  0.00000000000E+00 0.  1.
         12    1    4    4    0    0  0.57913541630E+02  0.83447833725E+00 -0.50715751431E+03  0.51045413014E+03  0.00000000000E+00 0. -1.
         -5    1    5    5    0  502 -0.67519537507E+02  0.10789771235E+02 -0.30252384778E+03  0.31019038603E+03  0.47000000000E+01 0.  1.
         13    1    6    6    0    0  0.36278844848E+02  0.25897377230E+02 -0.12543460156E+03  0.13311899940E+03  0.00000000000E+00 0. -1.
        -14    1    6    6    0    0 -0.26505227983E+02  0.46039028153E+02 -0.44437690247E+02  0.69259133247E+02  0.00000000000E+00 0.  1.
</event>
<event>
12    1  0.1050869E+000  0.4060879E+03  0.7818608E-02  0.1041697E+00
         21   -1    0    0  501  502  0.00000000000E+00  0.00000000000E+00  0.15176290951E+04  0.15176290951E+04  0.00000000000E+00 0. -1.
         21   -1    0    0  502  503 -0.00000000000E+00 -0.00000000000E+00 -0.10910401604E+03  0.10910401604E+03  0.00000000000E+00 0. -1.
         -6    2    1    2    0  503 -0.14701228593E+03 -0.33739198218E+03  0.65150023291E+03  0.76769783124E+03  0.17164336503E+03 0.  0.
        -24    2    3    3    0    0 -0.15327172415E+03 -0.32340136299E+03  0.65565870908E+03  0.75113579887E+03  0.78968237541E+02 0.  0.
          6    2    1    2  501    0  0.14701228593E+03  0.33739198218E+03  0.75702484610E+03  0.85903527986E+03  0.17149061949E+03 0.  0.
         24    2    5    5    0    0  0.65452340688E+02  0.29700469749E+03  0.56922689964E+03  0.65029305575E+03  0.79787190963E+02 0.  0.
          5    1    5    5  501    0  0.81559945246E+02  0.40387284682E+02  0.18779794646E+03  0.20874222411E+03  0.47000000000E+01 0. -1.
        -11    1    6    6    0    0  0.82551319755E+02  0.24912114248E+03  0.45503742143E+03  0.52529526832E+03  0.00000000000E+00 0.  1.
         12    1    6    6    0    0 -0.17098979067E+02  0.47883555016E+02  0.11418947821E+03  0.12499778742E+03  0.00000000000E+00 0. -1.
         -5    1    3    3    0  503  0.62594382153E+01 -0.13990619190E+02 -0.41584761768E+01  0.16562032370E+02  0.47000000000E+01 0.  1.
         11    1    4    4    0    0 -0.55034723615E+02 -0.13122836038E+03  0.18540251286E+03  0.23371734028E+03  0.00000000000E+00 0. -1.
        -12    1    4    4    0    0 -0.98237000534E+02 -0.19217300260E+03  0.47025619622E+03  0.51741845859E+03  0.00000000000E+00 0.  1.
</event>
<event>
12    1  0.1050869E+000  0.3245891E+03  0.7818608E-02  0.1073579E+00
         21   -1    0    0  503  502  0.00000000000E+00  0.00000000000E+00  0.58955518857E+03  0.58955518857E+03  0.00000000000E+00 0. -1.
         21   -1    0    0  501  503 -0.00000000000E+00 -0.00000000000E+00 -0.22942902025E+03  0.22942902025E+03  0.00000000000E+00 0. -1.
          6    2    1    2  501    0 -0.22634767432E+02 -0.27420018417E+03 -0.12726610116E+02  0.32463892472E+03  0.17184408964E+03 0.  0.
         24    2    3    3    0    0 -0.72016037332E+02 -0.12381482405E+03 -0.29920298361E+02  0.16535308332E+03  0.77006477794E+02 0.  0.
         -6    2    1    2    0  502  0.22634767432E+02  0.27420018417E+03  0.37285277843E+03  0.49434528409E+03  0.17222076478E+03 0.  0.
        -24    2    5    5    0    0  0.18226581619E+02  0.21844487809E+03  0.18389054710E+03  0.29722374511E+03  0.80472655646E+02 0.  0.
          5    1    3    3  501    0  0.49381269900E+02 -0.15038536012E+03  0.17193688245E+02  0.15928584140E+03  0.47000000000E+01 0. -1.
        -13    1    4    4    0    0  0.92914697319E+01 -0.36918502494E+02 -0.26343480422E+02  0.46295639070E+02  0.00000000000E+00 0.  1.
         14    1    4    4    0    0 -0.81307507064E+02 -0.86896321552E+02 -0.35768179392E+01  0.11905744425E+03  0.00000000000E+00 0. -1.
         -5    1    5    5    0  502  0.44081858135E+01  0.55755306083E+02  0.18896223133E+03  0.19712153898E+03  0.47000000000E+01 0.  1.
         13    1    6    6    0    0 -0.80348577693E+01  0.34244017646E+02  0.71936917633E+02  0.80075787867E+02  0.00000000000E+00 0. -1.
        -14    1    6    6    0    0  0.26261439388E+02  0.18420086044E+03  0.11195362947E+03  0.21714795725E+03  0.00000000000E+00 0.  1.
</event>
<event>
12    1  0.1050869E+000  0.3924672E+03  0.7818608E-02  0.1046439E+00
         21   -1    0    0  503  502  0.00000000000E+00  0.00000000000E+00  0.84767822454E+02  0.84767822454E+02  0.00000000000E+00 0. -1.
         21   -1    0    0  501  503 -0.00000000000E+00 -0.00000000000E+00 -0.19552780169E+04  0.19552780169E+04  0.00000000000E+00 0. -1.
          6    2    1    2  501    0 -0.13952207771E+02  0.35269542763E+03 -0.66332481058E+03  0.77073363877E+03  0.17158615568E+03 0.  0.
         24    2    3    3    0    0 -0.70087642410E+02  0.28498981791E+03 -0.53076480658E+03  0.61158125496E+03  0.78669419643E+02 0.  0.
         -6    2    1    2    0  502  0.13952207771E+02 -0.35269542763E+03 -0.12071853838E+04  0.12693122006E+04  0.17107946334E+03 0.  0.
        -24    2    5    5    0    0  0.70701733522E+02 -0.24038448496E+03 -0.74769164677E+03  0.79287664257E+03  0.82626484557E+02 0.  0.
          5    1    3    3  501    0  0.56135434639E+02  0.67705609711E+02 -0.13256000401E+03  0.15915238380E+03  0.47000000000E+01 0. -1.
        -11    1    4    4    0    0 -0.12820359245E+02  0.35365326000E+01 -0.92335606634E+01  0.16190346399E+02  0.00000000000E+00 0.  1.
         12    1    4    4    0    0 -0.57267283165E+02  0.28145328531E+03 -0.52153124591E+03  0.59539090856E+03  0.00000000000E+00 0. -1.
         -5    1    5    5    0  502 -0.56749525751E+02 -0.11231094266E+03 -0.45949373707E+03  0.47643555799E+03  0.47000000000E+01 0.  1.
         13    1    6    6    0    0 -0.88764835191E+00 -0.15899592993E+02 -0.10826557564E+02  0.19256150333E+02  0.00000000000E+00 0. -1.
        -14    1    6    6    0    0  0.71589381874E+02 -0.22448489197E+03 -0.73686508921E+03  0.77362049224E+03  0.00000000000E+00 0.  1.
</event>
<event>
12    1  0.1050869E+000  0.2602063E+03  0.7818608E-02  0.1107838E+00
         21   -1    0    0  501  502  0.00000000000E+00  0.00000000000E+00  0.62806900565E+03  0.62806900565E+03  0.00000000000E+00 0.  1.
         21   -1    0    0  502  503 -0.00000000000E+00 -0.00000000000E+00 -0.12072661519E+03  0.12072661519E+03  0.00000000000E+00 0.  1.
         -6    2    1    2    0  503  0.75110732594E+02  0.17106287019E+03  0.11872822724E+03  0.28111166497E+03  0.17327218048E+03 0.  0.
        -24    2    3    3    0    0  0.84646607101E+02  0.14531652996E+03  0.31115817281E+02  0.18917782291E+03  0.80858596451E+02 0.  0.
          6    2    1    2  501    0 -0.75110732594E+02 -0.17106287019E+03  0.38861416323E+03  0.46768395587E+03  0.18111650121E+03 0.  0.
         24    2    5    5    0    0 -0.11855203327E+03 -0.15631709719E+03  0.34492453415E+03  0.40415870015E+03  0.76692249804E+02 0.  0.
          5    1    5    5  501    0  0.43441300678E+02 -0.14745772997E+02  0.43689629084E+02  0.63525255728E+02  0.47000000000E+01 0. -1.
        -13    1    6    6    0    0 -0.11826236173E+03 -0.15473892136E+03  0.29069407288E+03  0.34990450696E+03  0.00000000000E+00 0.  1.
         14    1    6    6    0    0 -0.28967153783E+00 -0.15781758321E+01  0.54230461268E+02  0.54254193183E+02  0.00000000000E+00 0. -1.
         -5    1    3    3    0  503 -0.95358745063E+01  0.25746340224E+02  0.87612409957E+02  0.91933842060E+02  0.47000000000E+01 0.  1.
         13    1    4    4    0    0  0.26569470077E+02  0.14780509515E+02  0.34860067644E+02  0.46256075470E+02  0.00000000000E+00 0. -1.
        -14    1    4    4    0    0  0.58077137023E+02  0.13053602045E+03 -0.37442503629E+01  0.14292174744E+03  0.00000000000E+00 0.  1.
</event>
<event>
12    1  0.1050869E+000  0.2122919E+03  0.7818608E-02  0.1139785E+00
         21   -1    0    0  503  502  0.00000000000E+00  0.00000000000E+00  0.19288230844E+02  0.19288230844E+02  0.00000000000E+00 0. -1.
         21   -1    0    0  501  503 -0.00000000000E+00 -0.00000000000E+00 -0.23611292621E+04  0.23611292621E+04  0.00000000000E+00 0. -1.
          6    2    1    2  501    0  0.81875882406E+02  0.91959563832E+02 -0.10469081026E+04  0.10682155370E+04  0.17293824530E+03 0.  0.
         24    2    3    3    0    0  0.37353928480E+02  0.83916434296E+02 -0.97858442914E+03  0.98613563282E+03  0.79991983717E+02 0.  0.
         -6    2    1    2    0  502 -0.81875882406E+02 -0.91959563832E+02 -0.12949329286E+04  0.13122019559E+04  0.17280758657E+03 0.  0.
        -24    2    5    5    0    0 -0.50974278043E+02  0.91624244238E+01 -0.80161482391E+03  0.80765720260E+03  0.83913669651E+02 0.  0.
          5    1    3    3  501    0  0.44521953926E+02  0.80431295361E+01 -0.68323673502E+02  0.82079904209E+02  0.47000000000E+01 0. -1.
        -11    1    4    4    0    0  0.22384703471E+02  0.23823018350E+02 -0.96631713665E+02  0.10201127015E+03  0.00000000000E+00 0.  1.
         12    1    4    4    0    0  0.14969225009E+02  0.60093415946E+02 -0.88195271547E+03  0.88412436267E+03  0.00000000000E+00 0. -1.
         -5    1    5    5    0  502 -0.30901604363E+02 -0.10112198826E+03 -0.49331810466E+03  0.50454475327E+03  0.47000000000E+01 0.  1.
         13    1    6    6    0    0  0.18938544424E+02  0.18088781751E+02 -0.15310813246E+03  0.15533181488E+03  0.00000000000E+00 0. -1.
        -14    1    6    6    0    0 -0.69912822467E+02 -0.89263573275E+01 -0.64850669145E+03  0.65232538771E+03  0.00000000000E+00 0.  1.
</event>
<event>
12    1  0.1050869E+000  0.2270039E+03  0.7818608E-02  0.1128767E+00
         21   -1    0    0  501  502  0.00000000000E+00  0.00000000000E+00  0.73638099325E+03  0.73638099325E+03  0.00000000000E+00 0. -1.
         21   -1    0    0  502  503 -0.00000000000E+00 -0.00000000000E+00 -0.70877289537E+02  0.70877289537E+02  0.00000000000E+00 0. -1.
         -6    2    1    2    0  503  0.41034104986E+01 -0.14848318508E+03  0.37823637464E+03  0.44112542732E+03  0.17165311910E+03 0.  0.
        -24    2    3    3    0    0 -0.31400149147E+02 -0.12934088201E+02  0.18028984775E+03  0.19855795646E+03  0.75944538090E+02 0.  0.
          6    2    1    2  501    0 -0.41034104986E+01  0.14848318508E+03  0.28726732906E+03  0.36613285546E+03  0.17165854267E+03 0.  0.
         24    2    5    5    0    0 -0.59830251442E+02  0.86651667082E+02  0.11708421469E+03  0.17662560009E+03  0.79998242994E+02 0.  0.
          5    1    5    5  501    0  0.55726840943E+02  0.61831518002E+02  0.17018311438E+03  0.18950725537E+03  0.47000000000E+01 0. -1.
        -13    1    6    6    0    0  0.44999988382E+01  0.15739382372E+02  0.66211777949E+02  0.68205408042E+02  0.00000000000E+00 0.  1.
         14    1    6    6    0    0 -0.64330250280E+02  0.70912284710E+02  0.50872436739E+02  0.10842019205E+03  0.00000000000E+00 0. -1.
         -5    1    3    3    0  503  0.35503559645E+02 -0.13554909688E+03  0.19794652689E+03  0.24256747086E+03  0.47000000000E+01 0.  1.
         13    1    4    4    0    0  0.21901816811E+02  0.72606547217E+01  0.30176024988E+02  0.37986828910E+02  0.00000000000E+00 0. -1.
        -14    1    4    4    0    0 -0.53301965957E+02 -0.20194742923E+02  0.15011382277E+03  0.16057112755E+03  0.00000000000E+00 0.  1.
</event>
<event>
12    1  0.1050869E+000  0.2358362E+03  0.7818608E-02  0.1122627E+00
         21   -1    0    0  501  502  0.00000000000E+00  0.00000000000E+00  0.18464393088E+03  0.18464393088E+03  0.00000000000E+00 0.  1.
         21   -1    0    0  502  503 -0.00000000000E+00 -0.00000000000E+00 -0.31033029683E+03  0.31033029683E+03  0.00000000000E+00 0.  1.
         -6    2    1    2    0  503 -0.13828510498E+03 -0.82434525835E+02 -0.10576259548E+03  0.25846557910E+03  0.17233835229E+03 0.  0.
        -24    2    3    3    0    0 -0.28822999892E+02 -0.43586084397E+02 -0.10606454506E+03  0.14221870807E+03  0.79031393321E+02 0.  0.
          6    2    1    2  501    0  0.13828510498E+03  0.82434525835E+02 -0.19923770471E+02  0.23650864860E+03  0.17210799786E+03 0.  0.
         24    2    5    5    0    0  0.89362885373E+01  0.38490488385E+02 -0.41018089504E+02  0.98200098481E+02  0.79996254450E+02 0.  0.
          5    1    5    5  501    0  0.12934881644E+03  0.43944037450E+02  0.21094319033E+02  0.13830855012E+03  0.47000000000E+01 0. -1.
        -13    1    6    6    0    0 -0.31677293043E+02 -0.18862104018E+01 -0.11346469236E+02  0.33700905749E+02  0.00000000000E+00 0.  1.
         14    1    6    6    0    0  0.40613581580E+02  0.40376698787E+02 -0.29671620268E+02  0.64499192731E+02  0.00000000000E+00 0. -1.
         -5    1    3    3    0  503 -0.10946210508E+03 -0.38848441438E+02  0.30194958065E+00  0.11624687103E+03  0.47000000000E+01 0.  1.
         13    1    4    4    0    0  0.91672350824E+00 -0.57127002124E+02 -0.44131547860E+02  0.72193685806E+02  0.00000000000E+00 0. -1.
        -14    1    4    4    0    0 -0.29739723401E+02  0.13540917727E+02 -0.61932997201E+02  0.70025022265E+02  0.00000000000E+00 0.  1.
</event>
<event>
12    1  0.1050869E+000  0.2146081E+03  0.7818608E-02  0.1138231E+00
         21   -1    0    0  503  502  0.00000000000E+00  0.00000000000E+00  0.67263794739E+03  0.67263794739E+03  0.00000000000E+00 0. -1.
         21   -1    0    0  501  503 -0.00000000000E+00 -0.00000000000E+00 -0.17041104821E+03  0.17041104821E+03  0.00000000000E+00 0. -1.
          6    2    1    2  501    0 -0.71908559346E+02 -0.10552043350E+03  0.57750763965E+03  0.61562031130E+03  0.17078609733E+03 0.  0.
         24    2    3    3    0    0 -0.62297311670E+02 -0.45900258604E+02  0.52226911112E+03  0.53364271454E+03  0.77599829738E+02 0.  0.
         -6    2    1    2    0  502  0.71908559346E+02  0.10552043350E+03 -0.75280740470E+02  0.22742868430E+03  0.17248540160E+03 0.  0.
        -24    2    5    5    0    0 -0.91132597702E+01  0.10119246166E+03 -0.33293108838E+02  0.13595017468E+03  0.83970549001E+02 0.  0.
          5    1    3    3  501    0 -0.96112476765E+01 -0.59620174892E+02  0.55238528537E+02  0.81977596763E+02  0.47000000000E+01 0. -1.
        -11    1    4    4    0    0 -0.20072864227E+02 -0.15482310816E+02  0.32994665470E+02  0.41608530087E+02  0.00000000000E+00 0.  1.
         12    1    4    4    0    0 -0.42224447443E+02 -0.30417947788E+02  0.48927444564E+03  0.49203418445E+03  0.00000000000E+00 0. -1.
         -5    1    5    5    0  502  0.81021819117E+02  0.43279718402E+01 -0.41987631631E+02  0.91478509625E+02  0.47000000000E+01 0.  1.
         13    1    6    6    0    0  0.20792372227E+02  0.46062847292E+02 -0.49950306729E+02  0.71057313387E+02  0.00000000000E+00 0. -1.
        -14    1    6    6    0    0 -0.29905631997E+02  0.55129614364E+02  0.16657197891E+02  0.64892861292E+02  0.00000000000E+00 0.  1.
</event>
<event>
12    1  0.1050869E+000  0.3152108E+03  0.7818608E-02  0.1077895E+00
         21   -1    0    0  503  502  0.00000000000E+00  0.00000000000E+00  0.17913882248E+03  0.17913882248E+03  0.00000000000E+00 0. -1.
         21   -1    0    0  501  503 -0.00000000000E+00 -0.00000000000E+00 -0.79136203891E+03  0.79136203891E+03  0.00000000000E+00 0. -1.
          6    2    1    2  501    0 -0.10847041561E+03 -0.24093039708E+03 -0.40489158203E+02  0.31763204500E+03  0.17157347342E+03 0.  0.
         24    2    3    3    0    0 -0.14548376379E+03 -0.20262526335E+03 -0.38374693380E+02  0.26411726036E+03  0.77863902124E+02 0.  0.
         -6    2    1    2    0  502  0.10847041561E+03  0.24093039708E+03 -0.57173405823E+03  0.65286881639E+03  0.17188534196E+03 0.  0.
        -24    2    5    5    0    0  0.41653756418E+02  0.14839303297E+03 -0.46593390771E+03  0.49716592126E+03  0.79523702470E+02 0.  0.
          5    1    3    3  501    0  0.37013348182E+02 -0.38305133731E+02 -0.21144648233E+01  0.53514784642E+02  0.47000000000E+01 0. -1.
        -11    1    4    4    0    0 -0.18665395259E+02 -0.82171763496E+02  0.32472465454E+01  0.84327577377E+02  0.00000000000E+00 0.  1.
         12    1    4    4    0    0 -0.12681836853E+03 -0.12045349985E+03 -0.41621939926E+02  0.17978968298E+03  0.00000000000E+00 0. -1.
         -5    1    5    5    0  502  0.66816659188E+02  0.92537364114E+02 -0.10580015052E+03  0.15570289513E+03  0.47000000000E+01 0.  1.
         13    1    6    6    0    0  0.30139441617E+02  0.18903860648E+02 -0.17392858209E+03  0.17752997932E+03  0.00000000000E+00 0. -1.
        -14    1    6    6    0    0  0.11514314801E+02  0.12948917232E+03 -0.29200532561E+03  0.31963594194E+03  0.00000000000E+00 0.  1.
</event>
<event>
12    1  0.1050869E+000  0.2161184E+03  0.7818608E-02  0.1136854E+00
         21   -1    0    0  503  502  0.00000000000E+00  0.00000000000E+00  0.99226035859E+03  0.99226035859E+03  0.00000000000E+00 0. -1.
         21   -1    0    0  501  503 -0.00000000000E+00 -0.00000000000E+00 -0.10030922019E+03  0.10030922019E+03  0.00000000000E+00 0. -1.
          6    2    1    2  501    0  0.77652252240E+02  0.10291912292E+03  0.84402744379E+03  0.87120150255E+03  0.17316903311E+03 0.  0.
         24    2    3    3    0    0 -0.16907983360E+02  0.60384565210E+02  0.28458185699E+03  0.30220916398E+03  0.80071030023E+02 0.  0.
         -6    2    1    2    0  502 -0.77652252240E+02 -0.10291912292E+03  0.47923694607E+02  0.22136807623E+03  0.17345006926E+03 0.  0.
        -24    2    5    5    0    0 -0.65423496493E+02 -0.46854614149E+02 -0.37487767956E+02  0.11836332125E+03  0.78287638297E+02 0.  0.
          5    1    3    3  501    0  0.94560235599E+02  0.42534557712E+02  0.55944558680E+03  0.56899233857E+03  0.47000000000E+01 0. -1.
        -13    1    4    4    0    0  0.13860972692E+02  0.47903660706E+02  0.24732936274E+03  0.25230675962E+03  0.00000000000E+00 0.  1.
         14    1    4    4    0    0 -0.30768956052E+02  0.12480904503E+02  0.37252494248E+02  0.49902404366E+02  0.00000000000E+00 0. -1.
         -5    1    5    5    0  502 -0.12228755747E+02 -0.56064508773E+02  0.85411462563E+02  0.10300475498E+03  0.47000000000E+01 0.  1.
         13    1    6    6    0    0  0.32188335072E+01  0.94857500673E+01 -0.27176116840E+02  0.28963454041E+02  0.00000000000E+00 0. -1.
        -14    1    6    6    0    0 -0.68642330000E+02 -0.56340364216E+02 -0.10311651116E+02  0.89399867207E+02  0.00000000000E+00 0.  1.
</event>
<event>
12    1  0.1050869E+000  0.3751098E+03  0.7818608E-02  0.1052785E+00
         21   -1    0    0  501  502  0.00000000000E+00  0.00000000000E+00  0.26638414471E+03  0.26638414471E+03  0.00000000000E+00 0. -1.
         21   -1    0    0  502  503 -0.00000000000E+00 -0.00000000000E+00 -0.57984060112E+03  0.57984060112E+03  0.00000000000E+00 0. -1.
         -6    2    1    2    0  503  0.33324970777E+03  0.12781123626E+02 -0.30006594797E+02  0.37630809899E+03  0.17172263911E+03 0.  0.
        -24    2    3    3    0    0  0.64027830057E+02  0.11394177863E+02 -0.25874590505E+02  0.10700992499E+03  0.80945903552E+02 0.  0.
          6    2    1    2  501    0 -0.33324970777E+03 -0.12781123626E+02 -0.28344986162E+03  0.46991664684E+03  0.17105293355E+03 0.  0.
         24    2    5    5    0    0 -0.76161574541E+02  0.20711569263E+02 -0.10758119685E+03  0.15659900295E+03  0.81975479695E+02 0.  0.
          5    1    5    5  501    0 -0.25708813323E+03 -0.33492692889E+02 -0.17586866476E+03  0.31331764389E+03  0.47000000000E+01 0. -1.
        -11    1    6    6    0    0 -0.77428279364E+02 -0.13644333491E+02 -0.83072257860E+02  0.11437791005E+03  0.00000000000E+00 0.  1.
         12    1    6    6    0    0  0.12667048229E+01  0.34355902754E+02 -0.24508938992E+02  0.42221092900E+02  0.00000000000E+00 0. -1.
         -5    1    3    3    0  503  0.26922187772E+03  0.13869457626E+01 -0.41320042919E+01  0.26929817400E+03  0.47000000000E+01 0.  1.
         11    1    4    4    0    0  0.25875748342E+02 -0.20637739564E+02  0.20514234388E+02  0.38939754225E+02  0.00000000000E+00 0. -1.
        -12    1    4    4    0    0  0.38152081715E+02  0.32031917427E+02 -0.46388824893E+02  0.68070170767E+02  0.00000000000E+00 0.  1.
</event>
<event>
12    1  0.1050869E+000  0.1958926E+03  0.7818608E-02  0.1156115E+00
         21   -1    0    0  503  502  0.00000000000E+00  0.00000000000E+00  0.21005258379E+03  0.21005258379E+03  0.00000000000E+00 0. -1.
         21   -1    0    0  501  503 -0.00000000000E+00 -0.00000000000E+00 -0.19185088397E+03  0.19185088397E+03  0.00000000000E+00 0. -1.
          6    2    1    2  501    0  0.26818426238E+02  0.55887533910E+02 -0.57397782088E+02  0.19192923887E+03  0.17233595943E+03 0.  0.
         24    2    3    3    0    0  0.64614392492E+02 -0.13009041209E+02 -0.27649381976E+02  0.10777265602E+03  0.80661032672E+02 0.  0.
         -6    2    1    2    0  502 -0.26818426238E+02 -0.55887533910E+02  0.75599481908E+02  0.20997422889E+03  0.18582586123E+03 0.  0.
        -24    2    5    5    0    0  0.25182986820E+02 -0.15211097895E+02 -0.25374791623E+02  0.89240582705E+02  0.80339537136E+02 0.  0.
          5    1    3    3  501    0 -0.37795966254E+02  0.68896575119E+02 -0.29748400111E+02  0.84156582852E+02  0.47000000000E+01 0. -1.
        -13    1    4    4    0    0 -0.85971586654E+01 -0.28054842972E+02 -0.58874775168E+01  0.29927374472E+02  0.00000000000E+00 0.  1.
         14    1    4    4    0    0  0.73211551157E+02  0.15045801763E+02 -0.21761904460E+02  0.77845281548E+02  0.00000000000E+00 0. -1.
         -5    1    5    5    0  502 -0.52001413057E+02 -0.40676436015E+02  0.10097427353E+03  0.12073364619E+03  0.47000000000E+01 0.  1.
         11    1    6    6    0    0 -0.78034533836E+01  0.20146974835E+02 -0.33840278766E+02  0.40149208544E+02  0.00000000000E+00 0. -1.
        -12    1    6    6    0    0  0.32986440203E+02 -0.35358072730E+02  0.84654871428E+01  0.49091374161E+02  0.00000000000E+00 0.  1.
</event>
<event>
12    1  0.1050869E+000  0.2363058E+03  0.7818608E-02  0.1122470E+00
         21   -1    0    0  501  502  0.00000000000E+00  0.00000000000E+00  0.33608485990E+03  0.33608485990E+03  0.00000000000E+00 0. -1.
         21   -1    0    0  502  503 -0.00000000000E+00 -0.00000000000E+00 -0.16555435684E+03  0.16555435684E+03  0.00000000000E+00 0. -1.
         -6    2    1    2    0  503  0.13592436089E+03 -0.85030305426E+02  0.93666635668E+02  0.25314680736E+03  0.17205895128E+03 0.  0.
        -24    2    3    3    0    0  0.50520585777E+02 -0.29771390879E+02  0.11439641542E+03  0.14922777056E+03  0.75787349500E+02 0.  0.
          6    2    1    2  501    0 -0.13592436089E+03  0.85030305426E+02  0.76863867391E+02  0.24849240937E+03  0.17359389010E+03 0.  0.
         24    2    5    5    0    0 -0.16374900425E+03  0.54271870134E+02  0.37513989672E+02  0.19112695813E+03  0.73232796097E+02 0.  0.
          5    1    5    5  501    0  0.27824643357E+02  0.30758435292E+02  0.39349877720E+02  0.57365451241E+02  0.47000000000E+01 0. -1.
        -11    1    6    6    0    0 -0.73278881126E+02  0.15215855220E+01  0.45214213002E+02  0.86118724439E+02  0.00000000000E+00 0.  1.
         12    1    6    6    0    0 -0.90470123121E+02  0.52750284612E+02 -0.77002233300E+01  0.10500823369E+03  0.00000000000E+00 0. -1.
         -5    1    3    3    0  503  0.85403775114E+02 -0.55258914547E+02 -0.20729779754E+02  0.10391903680E+03  0.47000000000E+01 0.  1.
         11    1    4    4    0    0  0.21262735053E+02 -0.49480724280E+02  0.94387267954E+02  0.10867107402E+03  0.00000000000E+00 0. -1.
        -12    1    4    4    0    0  0.29257850724E+02  0.19709333401E+02  0.20009147467E+02  0.40556696543E+02  0.00000000000E+00 0.  1.
</event>
<event>
12    1  0.1050869E+000  0.1728405E+03  0.7818608E-02  0.1175145E+00
         21   -1    0    0  503  502  0.00000000000E+00  0.00000000000E+00  0.10799466545E+03  0.10799466545E+03  0.00000000000E+00 0. -1.
         21   -1    0    0  501  503 -0.00000000000E+00 -0.00000000000E+00 -0.27622850758E+03  0.27622850758E+03  0.00000000000E+00 0. -1.
          6    2    1    2  501    0  0.10085434413E+02 -0.12639794058E+01 -0.72619897006E+02  0.18747662656E+03  0.17254136442E+03 0.  0.
         24    2    3    3    0    0 -0.55074328240E+02 -0.95598534732E+01 -0.70284778096E+02  0.12158156623E+03  0.81960690494E+02 0.  0.
         -6    2    1    2    0  502 -0.10085434413E+02  0.12639794058E+01 -0.95613945121E+02  0.19674654647E+03  0.17165041047E+03 0.  0.
        -24    2    5    5    0    0  0.89332714630E+01 -0.56760968246E+02 -0.22969532498E+02  0.10173125082E+03  0.80746746770E+02 0.  0.
          5    1    3    3  501    0  0.65159762653E+02  0.82958740674E+01 -0.23351189102E+01  0.65895060329E+02  0.47000000000E+01 0. -1.
        -13    1    4    4    0    0 -0.81435545394E+01 -0.13078435092E+02  0.16675385960E+02  0.22703115247E+02  0.00000000000E+00 0.  1.
         14    1    4    4    0    0 -0.46930773701E+02  0.35185816190E+01 -0.86960164057E+02  0.98878450987E+02  0.00000000000E+00 0. -1.
         -5    1    5    5    0  502 -0.19018705876E+02  0.58024947652E+02 -0.72644412623E+02  0.95015295656E+02  0.47000000000E+01 0.  1.
         13    1    6    6    0    0  0.12695189460E+02 -0.38247876662E+02  0.26866836300E+02  0.48434438134E+02  0.00000000000E+00 0. -1.
        -14    1    6    6    0    0 -0.37619179969E+01 -0.18513091584E+02 -0.49836368798E+02  0.53296812681E+02  0.00000000000E+00 0.  1.
</event>
<event>
12    1  0.1050869E+000  0.1829439E+03  0.7818608E-02  0.1166774E+00
         21   -1    0    0  503  502  0.00000000000E+00  0.00000000000E+00  0.24916319778E+02  0.24916319778E+02  0.00000000000E+00 0. -1.
         21   -1    0    0  501  503 -0.00000000000E+00 -0.00000000000E+00 -0.13044156730E+04  0.13044156730E+04  0.00000000000E+00 0. -1.
          6    2    1    2  501    0 -0.33553650517E+02  0.17128915476E+02 -0.72381848330E+03  0.74657998716E+03  0.17902299644E+03 0.  0.
         24    2    3    3    0    0 -0.76162967220E+02  0.52193662320E+02 -0.41803472446E+03  0.43582141929E+03  0.81622929913E+02 0.  0.
         -6    2    1    2    0  502  0.33553650517E+02 -0.17128915476E+02 -0.55568086996E+03  0.58275200565E+03  0.17146260130E+03 0.  0.
        -24    2    5    5    0    0 -0.45090139128E+02 -0.18787703712E+02 -0.25094309561E+03  0.26799051127E+03  0.80376479403E+02 0.  0.
          5    1    3    3  501    0  0.42609316703E+02 -0.35064746844E+02 -0.30578375883E+03  0.31075856787E+03  0.47000000000E+01 0. -1.
        -13    1    4    4    0    0 -0.59628783503E+02 -0.84707187209E+01 -0.19444711815E+03  0.20356086719E+03  0.00000000000E+00 0.  1.
         14    1    4    4    0    0 -0.16534183717E+02  0.60664381041E+02 -0.22358760632E+03  0.23226055209E+03  0.00000000000E+00 0. -1.
         -5    1    5    5    0  502  0.78643789645E+02  0.16587882355E+01 -0.30473777435E+03  0.31476149438E+03  0.47000000000E+01 0.  1.
         11    1    6    6    0    0 -0.10615277802E+02  0.11105863142E+02 -0.27123907350E+01  0.15600685319E+02  0.00000000000E+00 0. -1.
        -12    1    6    6    0    0 -0.34474861326E+02 -0.29893566854E+02 -0.24823070487E+03  0.25238982595E+03  0.00000000000E+00 0.  1.
</event>
<event>
12    1  0.1050869E+000  0.3086571E+03  0.7818608E-02  0.1081024E+00
         21   -1    0    0  503  502  0.00000000000E+00  0.00000000000E+00  0.11249273975E+04  0.11249273975E+04  0.00000000000E+00 0.  1.
         21   -1    0    0  501  503 -0.00000000000E+00 -0.00000000000E+00 -0.33556122894E+03  0.33556122894E+03  0.00000000000E+00 0. -1.
          6    2    1    2  501    0  0.41948217197E+02 -0.25261853229E+03  0.10262247437E+04  0.10716372597E+04  0.17231777604E+03 0.  0.
         24    2    3    3    0    0  0.59816443670E+02 -0.25627073547E+03  0.10094651604E+04  0.10464264339E+04  0.82071156004E+02 0.  0.
         -6    2    1    2    0  502 -0.41948217197E+02  0.25261853229E+03 -0.23685857516E+03  0.38885136675E+03  0.17183604106E+03 0.  0.
        -24    2    5    5    0    0 -0.62649239878E+01  0.25784987775E+03 -0.22087048884E+03  0.34912262031E+03  0.81098843642E+02 0.  0.
          5    1    3    3  501    0 -0.17868226473E+02  0.36522031767E+01  0.16759583323E+02  0.25210825819E+02  0.47000000000E+01 0. -1.
        -13    1    4    4    0    0  0.27635299139E+01 -0.18155861227E+03  0.65344582426E+03  0.67820543497E+03  0.00000000000E+00 0.  1.
         14    1    4    4    0    0  0.57052913756E+02 -0.74712123197E+02  0.35601933613E+03  0.36822099888E+03  0.00000000000E+00 0. -1.
         -5    1    5    5    0  502 -0.35683293209E+02 -0.52313454559E+01 -0.15988086320E+02  0.39728746440E+02  0.47000000000E+01 0.  1.
         13    1    6    6    0    0 -0.34304041275E+02  0.87421041916E+02 -0.10638640850E+03  0.14190586222E+03  0.00000000000E+00 0. -1.
        -14    1    6    6    0    0  0.28039117288E+02  0.17042883583E+03 -0.11448408034E+03  0.20721675809E+03  0.00000000000E+00 0.  1.
</event>
<event>
12    1  0.1050869E+000  0.1982454E+03  0.7818608E-02  0.1156391E+00
         21   -1    0    0  503  502  0.00000000000E+00  0.00000000000E+00  0.17664731778E+03  0.17664731778E+03  0.00000000000E+00 0.  1.
         21   -1    0    0  501  503 -0.00000000000E+00 -0.00000000000E+00 -0.21062563294E+03  0.21062563294E+03  0.00000000000E+00 0.  1.
          6    2    1    2  501    0 -0.60638057271E+01  0.42832642555E+02  0.29821711811E+02  0.20047586866E+03  0.19346791572E+03 0.  0.
         24    2    3    3    0    0 -0.77141304721E+02  0.37294060806E+02  0.51175183278E+02  0.12590544896E+03  0.76757115821E+02 0.  0.
         -6    2    1    2    0  502  0.60638057271E+01 -0.42832642555E+02 -0.63800026969E+02  0.18679708205E+03  0.17015081961E+03 0.  0.
        -24    2    5    5    0    0 -0.23792392656E+02 -0.75189429457E+02 -0.83157476409E+02  0.13847363961E+03  0.77719075740E+02 0.  0.
          5    1    3    3  501    0  0.71077498993E+02  0.55385817486E+01 -0.21353471467E+02  0.74570419703E+02  0.47000000000E+01 0. -1.
        -13    1    4    4    0    0 -0.20173375164E+01 -0.18058475990E+02  0.21141402028E+02  0.27877178578E+02  0.00000000000E+00 0.  1.
         14    1    4    4    0    0 -0.75123967204E+02  0.55352536796E+02  0.30033781250E+02  0.98028270384E+02  0.00000000000E+00 0. -1.
         -5    1    5    5    0  502  0.29856198383E+02  0.32356786902E+02  0.19357449440E+02  0.48323442441E+02  0.47000000000E+01 0.  1.
         13    1    6    6    0    0 -0.31137356946E+02  0.27009909695E+01 -0.14800095915E+02  0.34581399464E+02  0.00000000000E+00 0. -1.
        -14    1    6    6    0    0  0.73449642901E+01 -0.77890420426E+02 -0.68357380493E+02  0.10389224015E+03  0.00000000000E+00 0.  1.
</event>
<event>
12    1  0.1050869E+000  0.2151246E+03  0.7818608E-02  0.1137812E+00
         21   -1    0    0  501  502  0.00000000000E+00  0.00000000000E+00  0.26067986129E+02  0.26067986129E+02  0.00000000000E+00 0.  1.
         21   -1    0    0  502  503 -0.00000000000E+00 -0.00000000000E+00 -0.17891100404E+04  0.17891100404E+04  0.00000000000E+00 0.  1.
         -6    2    1    2    0  503 -0.48428028497E+02  0.11797575236E+03 -0.98437096015E+03  0.10073369012E+04  0.17169127333E+03 0.  0.
        -24    2    3    3    0    0 -0.82133705517E+02  0.13162622562E+03 -0.76287873318E+03  0.78283009803E+03  0.82265375370E+02 0.  0.
          6    2    1    2  501    0  0.48428028497E+02 -0.11797575236E+03 -0.77867109408E+03  0.80784112524E+03  0.17324854628E+03 0.  0.
         24    2    5    5    0    0  0.97813368688E+02 -0.93052313644E+02 -0.51362195687E+03  0.53704004555E+03  0.79864308579E+02 0.  0.
          5    1    5    5  501    0 -0.49385340191E+02 -0.24923438715E+02 -0.26504913721E+03  0.27080107969E+03  0.47000000000E+01 0. -1.
        -11    1    6    6    0    0  0.30084503275E+02 -0.80415709076E+01 -0.37867724561E+02  0.49027632651E+02  0.00000000000E+00 0.  1.
         12    1    6    6    0    0  0.67728865413E+02 -0.85010742736E+02 -0.47575423231E+03  0.48801241290E+03  0.00000000000E+00 0. -1.
         -5    1    3    3    0  503  0.33705677020E+02 -0.13650473262E+02 -0.22149222696E+03  0.22450680321E+03  0.47000000000E+01 0.  1.
         11    1    4    4    0    0 -0.10285241327E+02  0.75921456170E+02 -0.46879948120E+03  0.47501874412E+03  0.00000000000E+00 0. -1.
        -12    1    4    4    0    0 -0.71848464190E+02  0.55704769450E+02 -0.29407925199E+03  0.30781135391E+03  0.00000000000E+00 0.  1.
</event>
<event>
12    1  0.1050869E+000  0.2093709E+03  0.7818608E-02  0.1142467E+00
         21   -1    0    0  503  502  0.00000000000E+00  0.00000000000E+00  0.65342952131E+03  0.65342952131E+03  0.00000000000E+00 0. -1.
         21   -1    0    0  501  503 -0.00000000000E+00 -0.00000000000E+00 -0.10952450939E+03  0.10952450939E+03  0.00000000000E+00 0. -1.
          6    2    1    2  501    0  0.11072753489E+03 -0.38201353743E+02  0.51199880942E+03  0.55315363950E+03  0.17354030550E+03 0.  0.
         24    2    3    3    0    0  0.87312271883E+02 -0.73795513867E+02  0.47967662764E+03  0.49946907736E+03  0.79438538839E+02 0.  0.
         -6    2    1    2    0  502 -0.11072753489E+03  0.38201353743E+02  0.31906202503E+02  0.20980039120E+03  0.17110893600E+03 0.  0.
        -24    2    5    5    0    0 -0.11750790285E+03  0.57052635141E+02 -0.20076482124E+02  0.15389302406E+03  0.78847240347E+02 0.  0.
          5    1    3    3  501    0  0.23415263003E+02  0.35594160124E+02  0.32322181789E+02  0.53684562139E+02  0.47000000000E+01 0. -1.
        -11    1    4    4    0    0  0.31908315088E+02  0.46846645328E+01  0.22456987625E+03  0.22687378864E+03  0.00000000000E+00 0.  1.
         12    1    4    4    0    0  0.55403956796E+02 -0.78480178400E+02  0.25510675138E+03  0.27259528872E+03  0.00000000000E+00 0. -1.
         -5    1    5    5    0  502  0.67803679611E+01 -0.18851281398E+02  0.51982684627E+02  0.55907367145E+02  0.47000000000E+01 0.  1.
         13    1    6    6    0    0  0.67784254529E+01 -0.84646027785E+00 -0.15235354302E+02  0.16696693306E+02  0.00000000000E+00 0. -1.
        -14    1    6    6    0    0 -0.12428632830E+03  0.57899095419E+02 -0.48411278214E+01  0.13719633075E+03  0.00000000000E+00 0.  1.
</event>
<event>
12    1  0.1050869E+000  0.2593839E+03  0.7818608E-02  0.1107662E+00
         21   -1    0    0  501  502  0.00000000000E+00  0.00000000000E+00  0.36742031488E+03  0.36742031488E+03  0.00000000000E+00 0. -1.
         21   -1    0    0  502  503 -0.00000000000E+00 -0.00000000000E+00 -0.28427987328E+03  0.28427987328E+03  0.00000000000E+00 0. -1.
         -6    2    1    2    0  503 -0.18786813883E+03  0.41931701906E+02 -0.15342607829E+03  0.30136281907E+03  0.17385994939E+03 0.  0.
        -24    2    3    3    0    0 -0.62551914155E+02  0.43262752891E+02 -0.87482120357E+01  0.10989558206E+03  0.78842247491E+02 0.  0.
          6    2    1    2  501    0  0.18786813883E+03 -0.41931701906E+02  0.23656651989E+03  0.35033736909E+03  0.17239445652E+03 0.  0.
         24    2    5    5    0    0  0.78969650212E+02  0.40591494405E+02  0.82503602755E+02  0.14436059567E+03  0.78417230524E+02 0.  0.
          5    1    5    5  501    0  0.10889848862E+03 -0.82523196312E+02  0.15406291713E+03  0.20597677342E+03  0.47000000000E+01 0. -1.
        -13    1    6    6    0    0  0.16633839864E+02 -0.11692384645E+02 -0.87231703237E+01  0.22124425140E+02  0.00000000000E+00 0.  1.
         14    1    6    6    0    0  0.62335810349E+02  0.52283879050E+02  0.91226773079E+02  0.12223617053E+03  0.00000000000E+00 0. -1.
         -5    1    3    3    0  503 -0.12531622468E+03 -0.13310509841E+01 -0.14467786626E+03  0.19146723701E+03  0.47000000000E+01 0.  1.
         13    1    4    4    0    0  0.17491143489E+02 -0.18775610192E+01 -0.61361634344E-01  0.17591733887E+02  0.00000000000E+00 0. -1.
        -14    1    4    4    0    0 -0.80043057644E+02  0.45140313910E+02 -0.86868504014E+01  0.92303848169E+02  0.00000000000E+00 0.  1.
</event>
<event>
12    1  0.1050869E+000  0.2190299E+03  0.7818608E-02  0.1135056E+00
         21   -1    0    0  503  502  0.00000000000E+00  0.00000000000E+00  0.91282452102E+02  0.91282452102E+02  0.00000000000E+00 0.  1.
         21   -1    0    0  501  503 -0.00000000000E+00 -0.00000000000E+00 -0.51988420068E+03  0.51988420068E+03  0.00000000000E+00 0. -1.
          6    2    1    2  501    0  0.12256312246E+03  0.52377715035E+02 -0.21212127605E+03  0.30320905680E+03  0.17080735451E+03 0.  0.
         24    2    3    3    0    0  0.79503750726E+02  0.10203837443E+03 -0.14226869850E+03  0.20717904496E+03  0.77136877430E+02 0.  0.
         -6    2    1    2    0  502 -0.12256312246E+03 -0.52377715035E+02 -0.21648047253E+03  0.30795759597E+03  0.17380719753E+03 0.  0.
        -24    2    5    5    0    0 -0.78258623041E+01 -0.19754927333E+02 -0.14946967684E+03  0.17105828303E+03  0.80425435183E+02 0.  0.
          5    1    3    3  501    0  0.43059371735E+02 -0.49660659395E+02 -0.69852577542E+02  0.96030011845E+02  0.47000000000E+01 0. -1.
        -11    1    4    4    0    0 -0.13192654332E+02  0.27991636033E+02 -0.39794311295E+02  0.50409969526E+02  0.00000000000E+00 0.  1.
         12    1    4    4    0    0  0.92696405058E+02  0.74046738397E+02 -0.10247438721E+03  0.15676907543E+03  0.00000000000E+00 0. -1.
         -5    1    5    5    0  502 -0.11473726016E+03 -0.32622787702E+02 -0.67010795692E+02  0.13689931295E+03  0.47000000000E+01 0.  1.
         11    1    6    6    0    0 -0.27190843935E+02 -0.36035704389E+02 -0.13400974449E+03  0.14140907185E+03  0.00000000000E+00 0. -1.
        -12    1    6    6    0    0  0.19364981631E+02  0.16280777056E+02 -0.15459932350E+02  0.29649211176E+02  0.00000000000E+00 0.  1.
</event>
<event>
12    1  0.1050869E+000  0.2157740E+03  0.7818608E-02  0.1137084E+00
         21   -1    0    0  503  502  0.00000000000E+00  0.00000000000E+00  0.13388262933E+03  0.13388262933E+03  0.00000000000E+00 0.  1.
         21   -1    0    0  501  503 -0.00000000000E+00 -0.00000000000E+00 -0.38833360373E+03  0.38833360373E+03  0.00000000000E+00 0.  1.
          6    2    1    2  501    0 -0.19392463259E+02  0.12911492465E+03 -0.42741281626E+02  0.21996646325E+03  0.17178968654E+03 0.  0.
         24    2    3    3    0    0 -0.66102435592E+02  0.13194759295E+03 -0.38937095392E+02  0.17278164198E+03  0.80979621704E+02 0.  0.
         -6    2    1    2    0  502  0.19392463259E+02 -0.12911492465E+03 -0.21170969277E+03  0.30224976981E+03  0.17171836809E+03 0.  0.
        -24    2    5    5    0    0 -0.17440777686E+02 -0.77332705829E+01 -0.43366933952E+02  0.91414364744E+02  0.78178711431E+02 0.  0.
          5    1    3    3  501    0  0.46709972333E+02 -0.28326683034E+01 -0.38041862342E+01  0.47184821267E+02  0.47000000000E+01 0. -1.
        -11    1    4    4    0    0 -0.59044845908E+02  0.36115535378E+02 -0.30481756364E+00  0.69215017429E+02  0.00000000000E+00 0.  1.
         12    1    4    4    0    0 -0.70575896839E+01  0.95832057574E+02 -0.38632277828E+02  0.10356662455E+03  0.00000000000E+00 0. -1.
         -5    1    5    5    0  502  0.36833240945E+02 -0.12138165407E+03 -0.16834275882E+03  0.21083540507E+03  0.47000000000E+01 0.  1.
         13    1    6    6    0    0 -0.31815336509E+02  0.45125608990E+01 -0.58812511677E+02  0.67018582295E+02  0.00000000000E+00 0. -1.
        -14    1    6    6    0    0  0.14374558823E+02 -0.12245831482E+02  0.15445577726E+02  0.24395782449E+02  0.00000000000E+00 0.  1.
</event>
<event>
12    1  0.1050869E+000  0.2584688E+03  0.7818608E-02  0.1108304E+00
         21   -1    0    0  501  502  0.00000000000E+00  0.00000000000E+00  0.38625178147E+03  0.38625178147E+03  0.00000000000E+00 0.  1.
         21   -1    0    0  502  503 -0.00000000000E+00 -0.00000000000E+00 -0.18176942886E+03  0.18176942886E+03  0.00000000000E+00 0.  1.
         -6    2    1    2    0  503 -0.18631571185E+03  0.51098756042E+02  0.35821107513E+02  0.25939077696E+03  0.16933929278E+03 0.  0.
        -24    2    3    3    0    0 -0.97367309180E+02  0.75298292340E+02  0.67514728928E+02  0.16179973469E+03  0.80440597934E+02 0.  0.
          6    2    1    2  501    0  0.18631571185E+03 -0.51098756042E+02  0.16866124510E+03  0.30863043337E+03  0.17170178059E+03 0.  0.
         24    2    5    5    0    0  0.15802288231E+03  0.52223010333E+01  0.69000227283E+02  0.19061791647E+03  0.81090412231E+02 0.  0.
          5    1    5    5  501    0  0.28292829543E+02 -0.56321057075E+02  0.99661017813E+02  0.11801251690E+03  0.47000000000E+01 0. -1.
        -13    1    6    6    0    0  0.61128617916E+02  0.28755813860E+02  0.60258002143E+02  0.90524204395E+02  0.00000000000E+00 0.  1.
         14    1    6    6    0    0  0.96894264389E+02 -0.23533512827E+02  0.87422251404E+01  0.10009371208E+03  0.00000000000E+00 0. -1.
         -5    1    3    3    0  503 -0.88948402668E+02 -0.24199536298E+02 -0.31693621415E+02  0.97591042276E+02  0.47000000000E+01 0.  1.
         13    1    4    4    0    0 -0.44549217835E+02  0.44232798689E+02 -0.93800619401E+01  0.63475655582E+02  0.00000000000E+00 0. -1.
        -14    1    4    4    0    0 -0.52818091346E+02  0.31065493651E+02  0.76894790868E+02  0.98324079105E+02  0.00000000000E+00 0.  1.
</event>
<event>
12    1  0.1050869E+000  0.2484744E+03  0.7818608E-02  0.1114439E+00
         21   -1    0    0  501  502  0.00000000000E+00  0.00000000000E+00  0.70533595422E+02  0.70533595422E+02  0.00000000000E+00 0.  1.
         21   -1    0    0  502  503 -0.00000000000E+00 -0.00000000000E+00 -0.87260772611E+03  0.87260772611E+03  0.00000000000E+00 0.  1.
         -6    2    1    2    0  503  0.38986447322E+02 -0.17494085552E+03 -0.41738284139E+03  0.48574476567E+03  0.17209095001E+03 0.  0.
        -24    2    3    3    0    0  0.21496630762E+02 -0.29851331772E+02 -0.24213701274E+03  0.25751230950E+03  0.79555323296E+02 0.  0.
          6    2    1    2  501    0 -0.38986447322E+02  0.17494085552E+03 -0.38469128930E+03  0.45739655587E+03  0.17058714856E+03 0.  0.
         24    2    5    5    0    0 -0.49315839087E+02  0.17031015465E+03 -0.22706223575E+03  0.29929169116E+03  0.81121247072E+02 0.  0.
          5    1    5    5  501    0  0.10329391765E+02  0.46307008675E+01 -0.15762905355E+03  0.15810486471E+03  0.47000000000E+01 0. -1.
        -13    1    6    6    0    0 -0.47817211616E+02  0.14618583356E+03 -0.22808508292E+03  0.27509923429E+03  0.00000000000E+00 0.  1.
         14    1    6    6    0    0 -0.14986274713E+01  0.24124321099E+02  0.10228471637E+01  0.24192456864E+02  0.00000000000E+00 0. -1.
         -5    1    3    3    0  503  0.17489816560E+02 -0.14508952375E+03 -0.17524582865E+03  0.22823245616E+03  0.47000000000E+01 0.  1.
         11    1    4    4    0    0 -0.25943631287E+02 -0.23462526483E+02 -0.14580976120E+03  0.14994681928E+03  0.00000000000E+00 0. -1.
        -12    1    4    4    0    0  0.47440262049E+02 -0.63888052899E+01 -0.96327251545E+02  0.10756549022E+03  0.00000000000E+00 0.  1.
</event>
<event>
12    1  0.1050869E+000  0.2436764E+03  0.7818608E-02  0.1117464E+00
         21   -1    0    0  503  502  0.00000000000E+00  0.00000000000E+00  0.57798781556E+02  0.57798781556E+02  0.00000000000E+00 0.  1.
         21   -1    0    0  501  503 -0.00000000000E+00 -0.00000000000E+00 -0.10320035709E+04  0.10320035709E+04  0.00000000000E+00 0.  1.
          6    2    1    2  501    0  0.17247425524E+03  0.63397279841E+01 -0.44117259128E+03  0.50371234874E+03  0.17118794965E+03 0.  0.
         24    2    3    3    0    0  0.12488903700E+03 -0.31295490017E+02 -0.17750114248E+03  0.23311026904E+03  0.79101597269E+02 0.  0.
         -6    2    1    2    0  502 -0.17247425524E+03 -0.63397279841E+01 -0.53303219811E+03  0.58609000376E+03  0.17201920653E+03 0.  0.
        -24    2    5    5    0    0 -0.14007588290E+02 -0.23410552380E+02 -0.16831189934E+03  0.18803713804E+03  0.79276751497E+02 0.  0.
          5    1    3    3  501    0  0.47585218239E+02  0.37635218001E+02 -0.26367144879E+03  0.27060207970E+03  0.47000000000E+01 0. -1.
        -13    1    4    4    0    0  0.19030310411E+02  0.18963281480E+02 -0.99549770016E+01  0.28650660131E+02  0.00000000000E+00 0.  1.
         14    1    4    4    0    0  0.10585872659E+03 -0.50258771497E+02 -0.16754616548E+03  0.20445960891E+03  0.00000000000E+00 0. -1.
         -5    1    5    5    0  502 -0.15846666695E+03  0.17070824396E+02 -0.36472029876E+03  0.39805286572E+03  0.47000000000E+01 0.  1.
         13    1    6    6    0    0 -0.77304207453E+01  0.20148265428E+02 -0.12297145286E+03  0.12485067170E+03  0.00000000000E+00 0. -1.
        -14    1    6    6    0    0 -0.62771675446E+01 -0.43558817808E+02 -0.45340446483E+02  0.63186466340E+02  0.00000000000E+00 0.  1.
</event>
<event>
12    1  0.1050869E+000  0.2031980E+03  0.7818608E-02  0.1147501E+00
         21   -1    0    0  503  502  0.00000000000E+00  0.00000000000E+00  0.44674529411E+02  0.44674529411E+02  0.00000000000E+00 0.  1.
         21   -1    0    0  501  503 -0.00000000000E+00 -0.00000000000E+00 -0.93034308929E+03  0.93034308929E+03  0.00000000000E+00 0.  1.
          6    2    1    2  501    0 -0.91361432699E+02 -0.56615096110E+02 -0.50809913893E+03  0.54722404962E+03  0.17244490427E+03 0.  0.
         24    2    3    3    0    0 -0.56203907313E+02 -0.25030808950E+02 -0.48435341913E+03  0.49412444514E+03  0.75995474023E+02 0.  0.
         -6    2    1    2    0  502  0.91361432699E+02  0.56615096110E+02 -0.37756942095E+03  0.42779356908E+03  0.16998967503E+03 0.  0.
        -24    2    5    5    0    0  0.64553469058E+01  0.78877188496E+02 -0.21342576906E+03  0.24159509267E+03  0.80958924980E+02 0.  0.
          5    1    3    3  501    0 -0.35157525386E+02 -0.31584287160E+02 -0.23745719798E+02  0.53099604475E+02  0.47000000000E+01 0. -1.
        -11    1    4    4    0    0 -0.16087033984E+02  0.27295346473E+02 -0.14420886674E+03  0.14764831813E+03  0.00000000000E+00 0.  1.
         12    1    4    4    0    0 -0.40116873329E+02 -0.52326155423E+02 -0.34014455239E+03  0.34647612701E+03  0.00000000000E+00 0. -1.
         -5    1    5    5    0  502  0.84906085794E+02 -0.22262092386E+02 -0.16414365189E+03  0.18619847641E+03  0.47000000000E+01 0.  1.
         13    1    6    6    0    0  0.80435270333E+01  0.39134009958E+02 -0.21065198886E+02  0.45165381285E+02  0.00000000000E+00 0. -1.
        -14    1    6    6    0    0 -0.15881801275E+01  0.39743178538E+02 -0.19236057018E+03  0.19642971139E+03  0.00000000000E+00 0.  1.
</event>
<event>
12    1  0.1050869E+000  0.1822232E+03  0.7818608E-02  0.1167964E+00
         21   -1    0    0  501  502  0.00000000000E+00  0.00000000000E+00  0.29527945557E+03  0.29527945557E+03  0.00000000000E+00 0. -1.
         21   -1    0    0  502  503 -0.00000000000E+00 -0.00000000000E+00 -0.54466982926E+03  0.54466982926E+03  0.00000000000E+00 0. -1.
         -6    2    1    2    0  503 -0.24080999004E+02  0.34620523349E+01  0.25121351519E+03  0.31034422290E+03  0.18059187731E+03 0.  0.
        -24    2    3    3    0    0 -0.89358468507E+01  0.13603408893E+02  0.27349443563E+03  0.28117656680E+03  0.63215135115E+02 0.  0.
          6    2    1    2  501    0  0.24080999004E+02 -0.34620523349E+01 -0.50060388888E+03  0.52960506193E+03  0.17112973949E+03 0.  0.
         24    2    5    5    0    0 -0.28317866538E+01 -0.48285322528E+02 -0.14137334880E+03  0.16655948006E+03  0.73594464885E+02 0.  0.
          5    1    5    5  501    0  0.26912785658E+02  0.44823270194E+02 -0.35923054008E+03  0.36304558186E+03  0.47000000000E+01 0. -1.
        -11    1    6    6    0    0  0.28658956655E+02 -0.38138589152E+02 -0.48769396816E+02  0.68222737008E+02  0.00000000000E+00 0.  1.
         12    1    6    6    0    0 -0.31490743309E+02 -0.10146733377E+02 -0.92603951982E+02  0.98336743057E+02  0.00000000000E+00 0. -1.
         -5    1    3    3    0  503 -0.15145152153E+02 -0.10141356558E+02 -0.22280920436E+02  0.29167656094E+02  0.47000000000E+01 0.  1.
         11    1    4    4    0    0 -0.17072808545E+02  0.36080223103E+02  0.19817334652E+03  0.20215325514E+03  0.00000000000E+00 0. -1.
        -12    1    4    4    0    0  0.81369616945E+01 -0.22476814210E+02  0.75321089107E+02  0.79023311668E+02  0.00000000000E+00 0.  1.
</event>
<event>
12    1  0.1050869E+000  0.3329430E+03  0.7818608E-02  0.1069866E+00
         21   -1    0    0  503  502  0.00000000000E+00  0.00000000000E+00  0.17950689953E+03  0.17950689953E+03  0.00000000000E+00 0. -1.
         21   -1    0    0  501  503 -0.00000000000E+00 -0.00000000000E+00 -0.14517474760E+04  0.14517474760E+04  0.00000000000E+00 0. -1.
          6    2    1    2  501    0  0.17684489359E+03 -0.22397705342E+03 -0.12544624036E+04  0.12978370929E+04  0.17107121531E+03 0.  0.
         24    2    3    3    0    0  0.18857439285E+03 -0.20866869919E+03 -0.12315729139E+04  0.12675394758E+04  0.10383425618E+03 0.  0.
         -6    2    1    2    0  502 -0.17684489359E+03  0.22397705342E+03 -0.17778172825E+02  0.33341728262E+03  0.17149689232E+03 0.  0.
        -24    2    5    5    0    0 -0.13134416906E+02  0.77166521400E+02 -0.11136841167E+02  0.11337035632E+03  0.81250375560E+02 0.  0.
          5    1    3    3  501    0 -0.11729499261E+02 -0.15308354226E+02 -0.22889489723E+02  0.30297617098E+02  0.47000000000E+01 0. -1.
        -11    1    4    4    0    0  0.40508579933E+02 -0.75347828286E+02 -0.21068537893E+03  0.22739078515E+03  0.00000000000E+00 0.  1.
         12    1    4    4    0    0  0.14806581292E+03 -0.13332087091E+03 -0.10208875350E+04  0.10401486906E+04  0.00000000000E+00 0. -1.
         -5    1    5    5    0  502 -0.16371047668E+03  0.14681053202E+03 -0.66413316586E+01  0.22004692630E+03  0.47000000000E+01 0.  1.
         13    1    6    6    0    0 -0.43306419553E+01  0.27144587422E+02 -0.44711724110E+02  0.52485439494E+02  0.00000000000E+00 0. -1.
        -14    1    6    6    0    0 -0.88037749508E+01  0.50021933978E+02  0.33574882943E+02  0.60884916826E+02  0.00000000000E+00 0.  1.
</event>
<event>
12    1  0.1050869E+000  0.1847794E+03  0.7818608E-02  0.1163600E+00
         21   -1    0    0  503  502  0.00000000000E+00  0.00000000000E+00  0.22113379529E+03  0.22113379529E+03  0.00000000000E+00 0.  1.
         21   -1    0    0  501  503 -0.00000000000E+00 -0.00000000000E+00 -0.21982857615E+03  0.21982857615E+03  0.00000000000E+00 0.  1.
          6    2    1    2  501    0 -0.63169835150E+02  0.87930816847E+01 -0.12074987365E+03  0.21951067426E+03  0.17186232214E+03 0.  0.
         24    2    3    3    0    0 -0.80329723848E+02  0.91351210551E+01 -0.17353049547E+02  0.11459369754E+03  0.79336449488E+02 0.  0.
         -6    2    1    2    0  502  0.63169835150E+02 -0.87930816847E+01  0.12205509279E+03  0.22145169717E+03  0.17342336102E+03 0.  0.
        -24    2    5    5    0    0  0.17189571788E+02 -0.70248645817E+02  0.77999062932E+02  0.13282893064E+03  0.79557007097E+02 0.  0.
          5    1    3    3  501    0  0.17159888698E+02 -0.34203937041E+00 -0.10339682410E+03  0.10491697672E+03  0.47000000000E+01 0. -1.
        -11    1    4    4    0    0 -0.12897338532E+02 -0.30968088075E+02 -0.13127934198E+02  0.36023693266E+02  0.00000000000E+00 0.  1.
         12    1    4    4    0    0 -0.67432385316E+02  0.40103209130E+02 -0.42251153491E+01  0.78570004275E+02  0.00000000000E+00 0. -1.
         -5    1    5    5    0  502  0.45980263362E+02  0.61455564133E+02  0.44056029861E+02  0.88622766538E+02  0.47000000000E+01 0.  1.
         13    1    6    6    0    0  0.24498750801E+02 -0.78889257198E+02  0.85785387533E+02  0.11909171426E+03  0.00000000000E+00 0. -1.
        -14    1    6    6    0    0 -0.73091790129E+01  0.86406113805E+01 -0.77863246012E+01  0.13737216373E+02  0.00000000000E+00 0.  1.
</event>
<event>
12    1  0.1050869E+000  0.1826705E+03  0.7818608E-02  0.1165462E+00
         21   -1    0    0  501  502  0.00000000000E+00  0.00000000000E+00  0.12541040426E+04  0.12541040426E+04  0.00000000000E+00 0.  1.
         21   -1    0    0  502  503 -0.00000000000E+00 -0.00000000000E+00 -0.82697343834E+02  0.82697343834E+02  0.00000000000E+00 0.  1.
         -6    2    1    2    0  503 -0.13497991304E+02  0.62567539431E+02  0.11363552895E+04  0.11507984245E+04  0.17010813358E+03 0.  0.
        -24    2    3    3    0    0  0.15675679556E+02  0.25894299051E+02  0.32066001326E+03  0.33374462988E+03  0.87443651669E+02 0.  0.
          6    2    1    2  501    0  0.13497991304E+02 -0.62567539431E+02  0.35051409262E+02  0.18600296192E+03  0.17108947306E+03 0.  0.
         24    2    5    5    0    0  0.23609088729E+02  0.14449398310E+01 -0.34102452740E+02  0.91112612455E+02  0.81111367537E+02 0.  0.
          5    1    5    5  501    0 -0.10111097425E+02 -0.64012479262E+02  0.69153862002E+02  0.94890349468E+02  0.47000000000E+01 0. -1.
        -13    1    6    6    0    0  0.46291821784E+02  0.24188974235E+02 -0.18578775339E+02  0.55436541484E+02  0.00000000000E+00 0.  1.
         14    1    6    6    0    0 -0.22682733055E+02 -0.22744034405E+02 -0.15523677401E+02  0.35676070971E+02  0.00000000000E+00 0. -1.
         -5    1    3    3    0  503 -0.29173670859E+02  0.36673240380E+02  0.81569527621E+03  0.81705379460E+03  0.47000000000E+01 0.  1.
         11    1    4    4    0    0 -0.22055787549E+02  0.32063887778E+02  0.25345616542E+03  0.25642655567E+03  0.00000000000E+00 0. -1.
        -12    1    4    4    0    0  0.37731467105E+02 -0.61695887267E+01  0.67203847838E+02  0.77318074207E+02  0.00000000000E+00 0.  1.
</event>
<event>
12    1  0.1050869E+000  0.1902328E+03  0.7818608E-02  0.1158282E+00
         21   -1    0    0  501  502  0.00000000000E+00  0.00000000000E+00  0.59133939620E+02  0.59133939620E+02  0.00000000000E+00 0.  1.
         21   -1    0    0  502  503 -0.00000000000E+00 -0.00000000000E+00 -0.61183682772E+03  0.61183682772E+03  0.00000000000E+00 0.  1.
         -6    2    1    2    0  503 -0.63567778776E+02  0.51438931797E+02 -0.26910716848E+03  0.32955601865E+03  0.17176051669E+03 0.  0.
        -24    2    3    3    0    0 -0.12423383772E+02 -0.22585178428E+02 -0.71555908277E+02  0.11242953835E+03  0.82799289468E+02 0.  0.
          6    2    1    2  501    0  0.63567778776E+02 -0.51438931797E+02 -0.28359571961E+03  0.34141474869E+03  0.17161198162E+03 0.  0.
         24    2    5    5    0    0  0.13479269849E+01 -0.77561123344E+02 -0.11767595899E+03  0.16223568793E+03  0.80344522857E+02 0.  0.
          5    1    5    5  501    0  0.62219851791E+02  0.26122191547E+02 -0.16591976063E+03  0.17917906076E+03  0.47000000000E+01 0. -1.
        -13    1    6    6    0    0 -0.28102754834E+02 -0.35171857333E+02 -0.96423566304E+02  0.10641582832E+03  0.00000000000E+00 0.  1.
         14    1    6    6    0    0  0.29450681819E+02 -0.42389266012E+02 -0.21252392683E+02  0.55819859614E+02  0.00000000000E+00 0. -1.
         -5    1    3    3    0  503 -0.51144395004E+02  0.74024110225E+02 -0.19755126021E+03  0.21712648029E+03  0.47000000000E+01 0.  1.
         13    1    4    4    0    0 -0.37542756407E+02 -0.28365397372E+02 -0.72733426454E+02  0.86626818310E+02  0.00000000000E+00 0. -1.
        -14    1    4    4    0    0  0.25119372636E+02  0.57802189449E+01  0.11775181770E+01  0.25802720045E+02  0.00000000000E+00 0.  1.
</event>
<event>
12    1  0.1050869E+000  0.2145000E+03  0.7818608E-02  0.1138079E+00
         21   -1    0    0  503  502  0.00000000000E+00  0.00000000000E+00  0.43874536104E+02  0.43874536104E+02  0.00000000000E+00 0.  1.
         21   -1    0    0  501  503 -0.00000000000E+00 -0.00000000000E+00 -0.10515955254E+04  0.10515955254E+04  0.00000000000E+00 0.  1.
          6    2    1    2  501    0 -0.10944803988E+03  0.63281612597E+02 -0.53578995247E+03  0.57707913268E+03  0.17310695041E+03 0.  0.
         24    2    3    3    0    0  0.74495443813E+01 -0.25869244721E+02 -0.15221332207E+03  0.16626768937E+03  0.61248147551E+02 0.  0.
         -6    2    1    2    0  502  0.10944803988E+03 -0.63281612597E+02 -0.47193103684E+03  0.51839092884E+03  0.17328247356E+03 0.  0.
        -24    2    5    5    0    0  0.12036198656E+03 -0.95567525378E+02 -0.43410934451E+03  0.46726300294E+03  0.79143105885E+02 0.  0.
          5    1    3    3  501    0 -0.11689758426E+03  0.89150857318E+02 -0.38357663040E+03  0.41081144331E+03  0.47000000000E+01 0. -1.
        -13    1    4    4    0    0 -0.16487003147E+02 -0.28099713561E+02 -0.12825234077E+03  0.13232565166E+03  0.00000000000E+00 0.  1.
         14    1    4    4    0    0  0.23936547528E+02  0.22304688408E+01 -0.23960981304E+02  0.33942037710E+02  0.00000000000E+00 0. -1.
         -5    1    5    5    0  502 -0.10913946680E+02  0.32285912781E+02 -0.37821692328E+02  0.51127925900E+02  0.47000000000E+01 0.  1.
         13    1    6    6    0    0  0.11058935039E+02 -0.50782737474E+02 -0.17384573232E+03  0.18144840897E+03  0.00000000000E+00 0. -1.
        -14    1    6    6    0    0  0.10930305152E+03 -0.44784787904E+02 -0.26026361219E+03  0.28581459397E+03  0.00000000000E+00 0.  1.
</event>
<event>
12    1  0.1050869E+000  0.1789030E+03  0.7818608E-02  0.1169276E+00
         21   -1    0    0  501  502  0.00000000000E+00  0.00000000000E+00  0.16669937065E+03  0.16669937065E+03  0.00000000000E+00 0.  1.
         21   -1    0    0  502  503 -0.00000000000E+00 -0.00000000000E+00 -0.30149226451E+03  0.30149226451E+03  0.00000000000E+00 0.  1.
         -6    2    1    2    0  503  0.94764399318E+01 -0.42929995155E+02 -0.20980888972E+03  0.27572821230E+03  0.17341709678E+03 0.  0.
        -24    2    3    3    0    0  0.70073998331E+02 -0.45267053228E+02 -0.16270109303E+03  0.19879473173E+03  0.78027100022E+02 0.  0.
          6    2    1    2  501    0 -0.94764399318E+01  0.42929995155E+02  0.75015995861E+02  0.19246342285E+03  0.17170318024E+03 0.  0.
         24    2    5    5    0    0 -0.88652541820E+01 -0.24925578965E+02  0.98933537979E+02  0.12036008515E+03  0.63236286594E+02 0.  0.
          5    1    5    5  501    0 -0.61118574979E+00  0.67855574119E+02 -0.23917542118E+02  0.72103337704E+02  0.47000000000E+01 0. -1.
        -13    1    6    6    0    0 -0.13839791531E+02 -0.36056583292E+02  0.26336568400E+02  0.46746463646E+02  0.00000000000E+00 0.  1.
         14    1    6    6    0    0  0.49745373485E+01  0.11131004327E+02  0.72596969579E+02  0.73613621506E+02  0.00000000000E+00 0. -1.
         -5    1    3    3    0  503 -0.60597558399E+02  0.23370580729E+01 -0.47107796690E+02  0.76933480575E+02  0.47000000000E+01 0.  1.
         13    1    4    4    0    0  0.25502287814E+02 -0.16665324306E+01 -0.12126998238E+03  0.12393366226E+03  0.00000000000E+00 0. -1.
        -14    1    4    4    0    0  0.44571710517E+02 -0.43600520797E+02 -0.41431110656E+02  0.74861069471E+02  0.00000000000E+00 0.  1.
</event>
<event>
12    1  0.1050869E+000  0.1723076E+03  0.7818608E-02  0.1176729E+00
         21   -1    0    0  503  502  0.00000000000E+00  0.00000000000E+00  0.25968272235E+03  0.25968272235E+03  0.00000000000E+00 0.  1.
         21   -1    0    0  501  503 -0.00000000000E+00 -0.00000000000E+00 -0.11112732334E+03  0.11112732334E+03  0.00000000000E+00 0.  1.
          6    2    1    2  501    0  0.17997304444E+02  0.43016023178E+01  0.74248810435E+02  0.18316307096E+03  0.16641339478E+03 0.  0.
         24    2    3    3    0    0  0.32349607279E+02  0.58553656303E+02  0.29240429664E+02  0.11107202923E+03  0.83707617290E+02 0.  0.
         -6    2    1    2    0  502 -0.17997304444E+02 -0.43016023178E+01  0.74306588575E+02  0.18764697472E+03  0.17131115336E+03 0.  0.
        -24    2    5    5    0    0 -0.50204774484E+02 -0.55499669396E+02  0.62439850385E+02  0.12582891365E+03  0.79582962444E+02 0.  0.
          5    1    3    3  501    0 -0.14352302834E+02 -0.54252053985E+02  0.45008380771E+02  0.72091041731E+02  0.47000000000E+01 0. -1.
        -13    1    4    4    0    0  0.32502825544E+02  0.17744539410E+02 -0.23896819863E+02  0.44072217402E+02  0.00000000000E+00 0.  1.
         14    1    4    4    0    0 -0.15321826512E+00  0.40809116893E+02  0.53137249526E+02  0.66999811825E+02  0.00000000000E+00 0. -1.
         -5    1    5    5    0  502  0.32207470040E+02  0.51198067079E+02  0.11866738190E+02  0.61818061068E+02  0.47000000000E+01 0.  1.
         11    1    6    6    0    0 -0.38706062681E+02 -0.15790101749E+02 -0.94887233304E+01  0.42866332616E+02  0.00000000000E+00 0. -1.
        -12    1    6    6    0    0 -0.11498711803E+02 -0.39709567647E+02  0.71928573715E+02  0.82962581039E+02  0.00000000000E+00 0.  1.
</event>
<event>
12    1  0.1050869E+000  0.2726195E+03  0.7818608E-02  0.1099863E+00
         21   -1    0    0  503  502  0.00000000000E+00  0.00000000000E+00  0.81196613500E+02  0.81196613500E+02  0.00000000000E+00 0. -1.
         21   -1    0    0  501  503 -0.00000000000E+00 -0.00000000000E+00 -0.14479815529E+04  0.14479815529E+04  0.00000000000E+00 0.  1.
          6    2    1    2  501    0  0.12242745205E+03  0.17175512806E+03 -0.11474719336E+04  0.11792930751E+04  0.17190699150E+03 0.  0.
         24    2    3    3    0    0  0.13688206661E+03  0.10864407253E+03 -0.99793635681E+03  0.10162749169E+04  0.79984371906E+02 0.  0.
         -6    2    1    2    0  502 -0.12242745205E+03 -0.17175512806E+03 -0.21931300587E+03  0.34988509130E+03  0.17272254496E+03 0.  0.
        -24    2    5    5    0    0 -0.15429952788E+03 -0.15448880212E+03 -0.16710493279E+03  0.28615340276E+03  0.79275324429E+02 0.  0.
          5    1    3    3  501    0 -0.14454614565E+02  0.63111055528E+02 -0.14953557675E+03  0.16301815827E+03  0.47000000000E+01 0. -1.
        -13    1    4    4    0    0  0.12694741072E+02 -0.12526422440E+02 -0.68600242972E+02  0.70880611212E+02  0.00000000000E+00 0.  1.
         14    1    4    4    0    0  0.12418732554E+03  0.12117049497E+03 -0.92933611384E+03  0.94539430565E+03  0.00000000000E+00 0. -1.
         -5    1    5    5    0  502  0.31872075830E+02 -0.17266325942E+02 -0.52208073078E+02  0.63731688537E+02  0.47000000000E+01 0.  1.
         13    1    6    6    0    0 -0.84097961201E+01  0.33927927521E+01  0.53783548426E+01  0.10543358775E+02  0.00000000000E+00 0. -1.
        -14    1    6    6    0    0 -0.14588973176E+03 -0.15788159487E+03 -0.17248328764E+03  0.27561004398E+03  0.00000000000E+00 0.  1.
</event>
<event>
12    1  0.1050869E+000  0.3376227E+03  0.7818608E-02  0.1068266E+00
         21   -1    0    0  503  502  0.00000000000E+00  0.00000000000E+00  0.47318811835E+03  0.47318811835E+03  0.00000000000E+00 0.  1.
         21   -1    0    0  501  503 -0.00000000000E+00 -0.00000000000E+00 -0.24693136726E+03  0.24693136726E+03  0.00000000000E+00 0.  1.
          6    2    1    2  501    0 -0.28466930400E+03 -0.55922189984E+02  0.18260445961E+03  0.38384042680E+03  0.17269968328E+03 0.  0.
         24    2    3    3    0    0 -0.10862692825E+03 -0.75701461418E+02  0.12023356482E+03  0.19597250469E+03  0.80116113770E+02 0.  0.
         -6    2    1    2    0  502  0.28466930400E+03  0.55922189984E+02  0.43652291478E+02  0.33627905882E+03  0.16435990654E+03 0.  0.
        -24    2    5    5    0    0  0.17263684939E+03  0.70952454356E+02  0.79038506747E+02  0.21774022989E+03  0.79536090031E+02 0.  0.
          5    1    3    3  501    0 -0.17604237575E+03  0.19779271435E+02  0.62370894791E+02  0.18786792210E+03  0.47000000000E+01 0. -1.
        -13    1    4    4    0    0 -0.82804004643E+02 -0.72750818257E+02  0.49904376320E+02  0.12099434498E+03  0.00000000000E+00 0.  1.
         14    1    4    4    0    0 -0.25822923603E+02 -0.29506431610E+01  0.70329188501E+02  0.74978159711E+02  0.00000000000E+00 0. -1.
         -5    1    5    5    0  502  0.11203245461E+03 -0.15030264373E+02 -0.35386215269E+02  0.11853882893E+03  0.47000000000E+01 0.  1.
         13    1    6    6    0    0  0.10279577365E+03  0.62723399190E+02  0.84643844919E+02  0.14719299021E+03  0.00000000000E+00 0. -1.
        -14    1    6    6    0    0  0.69841075743E+02  0.82290551668E+01 -0.56053381718E+01  0.70547239676E+02  0.00000000000E+00 0.  1.
</event>
<event>
12    1  0.1050869E+000  0.2574093E+03  0.7818608E-02  0.1110984E+00
         21   -1    0    0  501  502  0.00000000000E+00  0.00000000000E+00  0.10091839811E+04  0.10091839811E+04  0.00000000000E+00 0. -1.
         21   -1    0    0  502  503 -0.00000000000E+00 -0.00000000000E+00 -0.62073446936E+02  0.62073446936E+02  0.00000000000E+00 0. -1.
         -6    2    1    2    0  503  0.16984593597E+03 -0.12853714617E+02  0.47662913811E+03  0.53496246189E+03  0.17319538211E+03 0.  0.
        -24    2    3    3    0    0  0.39308886222E+02  0.15318834223E+02  0.11742722476E+03  0.15171095383E+03  0.86297191039E+02 0.  0.
          6    2    1    2  501    0 -0.16984593597E+03  0.12853714617E+02  0.47048139602E+03  0.53629496612E+03  0.19299400701E+03 0.  0.
         24    2    5    5    0    0 -0.12168305803E+03  0.21343171735E+02  0.14322856502E+03  0.20537467497E+03  0.80012734558E+02 0.  0.
          5    1    5    5  501    0 -0.48162877934E+02 -0.84894571181E+01  0.32725283100E+03  0.33092029115E+03  0.47000000000E+01 0. -1.
        -11    1    6    6    0    0 -0.89797202846E+02  0.19371597940E+02  0.14685781162E+03  0.17322243873E+03  0.00000000000E+00 0.  1.
         12    1    6    6    0    0 -0.31885855188E+02  0.19715737957E+01 -0.36292466070E+01  0.32152236240E+02  0.00000000000E+00 0. -1.
         -5    1    3    3    0  503  0.13053704975E+03 -0.28172548840E+02  0.35920191336E+03  0.38325150805E+03  0.47000000000E+01 0.  1.
         13    1    4    4    0    0 -0.34599192184E+01 -0.79908039045E+01 -0.11190371514E+02  0.14179153806E+02  0.00000000000E+00 0. -1.
        -14    1    4    4    0    0  0.42768805441E+02  0.23309638128E+02  0.12861759627E+03  0.13753180003E+03  0.00000000000E+00 0.  1.
</event>
<event>
12    1  0.1050869E+000  0.2852329E+03  0.7818608E-02  0.1092968E+00
         21   -1    0    0  503  502  0.00000000000E+00  0.00000000000E+00  0.60164942212E+03  0.60164942212E+03  0.00000000000E+00 0.  1.
         21   -1    0    0  501  503 -0.00000000000E+00 -0.00000000000E+00 -0.15117225671E+03  0.15117225671E+03  0.00000000000E+00 0. -1.
          6    2    1    2  501    0  0.81262777603E+02  0.21251507044E+03  0.34916396584E+03  0.45085835417E+03  0.17202176112E+03 0.  0.
         24    2    3    3    0    0  0.74617952553E+02  0.18996939251E+03  0.36233242723E+03  0.42350950284E+03  0.80120548180E+02 0.  0.
         -6    2    1    2    0  502 -0.81262777603E+02 -0.21251507044E+03  0.10131319957E+03  0.30196332466E+03  0.17073719820E+03 0.  0.
        -24    2    5    5    0    0 -0.34208114055E+02 -0.19880274049E+03  0.12306273033E+03  0.24813673790E+03  0.75727672650E+02 0.  0.
          5    1    3    3  501    0  0.66448250507E+01  0.22545677929E+02 -0.13168461398E+02  0.27348851325E+02  0.47000000000E+01 0. -1.
        -11    1    4    4    0    0  0.78349442243E+02  0.18471259205E+03  0.30041201500E+03  0.36125441937E+03  0.00000000000E+00 0.  1.
         12    1    4    4    0    0 -0.37314896908E+01  0.52568004575E+01  0.61920412238E+02  0.62255083471E+02  0.00000000000E+00 0. -1.
         -5    1    5    5    0  502 -0.47054663548E+02 -0.13712329949E+02 -0.21749530764E+02  0.53826586764E+02  0.47000000000E+01 0.  1.
         13    1    6    6    0    0  0.10404305445E+01 -0.51788989608E+02 -0.21390972232E+01  0.51843588584E+02  0.00000000000E+00 0. -1.
        -14    1    6    6    0    0 -0.35248544600E+02 -0.14701375088E+03  0.12520182756E+03  0.19629314931E+03  0.00000000000E+00 0.  1.
</event>
<event>
12    1  0.1050869E+000  0.2303715E+03  0.7818608E-02  0.1127980E+00
         21   -1    0    0  503  502  0.00000000000E+00  0.00000000000E+00  0.17423203249E+03  0.17423203249E+03  0.00000000000E+00 0. -1.
         21   -1    0    0  501  503 -0.00000000000E+00 -0.00000000000E+00 -0.50678684873E+03  0.50678684873E+03  0.00000000000E+00 0. -1.
          6    2    1    2  501    0  0.10007565220E+03 -0.12084217642E+03  0.56806465986E+02  0.22861061756E+03  0.15626219031E+03 0.  0.
         24    2    3    3    0    0  0.69208741771E+02 -0.20218026568E+02 -0.25184270763E+01  0.10769941614E+03  0.79963761960E+02 0.  0.
         -6    2    1    2    0  502 -0.10007565220E+03  0.12084217642E+03 -0.38936128223E+03  0.45240826366E+03  0.16868035204E+03 0.  0.
        -24    2    5    5    0    0 -0.13020629945E+03  0.86653896866E+02 -0.35289999618E+03  0.39385734784E+03  0.78247203716E+02 0.  0.
          5    1    3    3  501    0  0.30866910427E+02 -0.10062414985E+03  0.59324893063E+02  0.12091120142E+03  0.47000000000E+01 0. -1.
        -13    1    4    4    0    0  0.46788713058E+02 -0.50967520093E+02  0.29681401060E+01  0.69250860137E+02  0.00000000000E+00 0.  1.
         14    1    4    4    0    0  0.22420028713E+02  0.30749493525E+02 -0.54865671823E+01  0.38448556006E+02  0.00000000000E+00 0. -1.
         -5    1    5    5    0  502  0.30130647251E+02  0.34188279552E+02 -0.36461286051E+02  0.58550915817E+02  0.47000000000E+01 0.  1.
         13    1    6    6    0    0 -0.89314587421E+02  0.23048336624E+02 -0.13752760842E+03  0.16559639013E+03  0.00000000000E+00 0. -1.
        -14    1    6    6    0    0 -0.40891712029E+02  0.63605560242E+02 -0.21537238776E+03  0.22826095771E+03  0.00000000000E+00 0.  1.
</event>
<event>
12    1  0.1050869E+000  0.3620765E+03  0.7818608E-02  0.1057882E+00
         21   -1    0    0  503  502  0.00000000000E+00  0.00000000000E+00  0.11401439009E+03  0.11401439009E+03  0.00000000000E+00 0.  1.
         21   -1    0    0  501  503 -0.00000000000E+00 -0.00000000000E+00 -0.11567746995E+04  0.11567746995E+04  0.00000000000E+00 0.  1.
          6    2    1    2  501    0  0.29182523940E+03 -0.12819335416E+03 -0.46114020764E+03  0.58630168766E+03  0.17176691023E+03 0.  0.
         24    2    3    3    0    0  0.23075430262E+03 -0.16054762020E+03 -0.36389823464E+03  0.46690927097E+03  0.80989231477E+02 0.  0.
         -6    2    1    2    0  502 -0.29182523940E+03  0.12819335416E+03 -0.58162010180E+03  0.68448740195E+03  0.16924997549E+03 0.  0.
        -24    2    5    5    0    0 -0.27177031897E+03  0.13075346932E+03 -0.42763653818E+03  0.52911114286E+03  0.78294423183E+02 0.  0.
          5    1    3    3  501    0  0.61070936785E+02  0.32354266040E+02 -0.97241972999E+02  0.11939241669E+03  0.47000000000E+01 0. -1.
        -13    1    4    4    0    0  0.94632603088E+02 -0.79023150291E+02 -0.98956482643E+02  0.15808976345E+03  0.00000000000E+00 0.  1.
         14    1    4    4    0    0  0.13612169953E+03 -0.81524469913E+02 -0.26494175200E+03  0.30881950753E+03  0.00000000000E+00 0. -1.
         -5    1    5    5    0  502 -0.20054920435E+02 -0.25601151559E+01 -0.15398356362E+03  0.15537625909E+03  0.47000000000E+01 0.  1.
         13    1    6    6    0    0 -0.10620521059E+03  0.90110772188E+02 -0.22096608005E+03  0.26120012740E+03  0.00000000000E+00 0. -1.
        -14    1    6    6    0    0 -0.16556510837E+03  0.40642697131E+02 -0.20667045814E+03  0.26791101547E+03  0.00000000000E+00 0.  1.
</event>
<event>
12    1  0.1050869E+000  0.1832145E+03  0.7818608E-02  0.1165101E+00
         21   -1    0    0  501  502  0.00000000000E+00  0.00000000000E+00  0.10232741025E+04  0.10232741025E+04  0.00000000000E+00 0. -1.
         21   -1    0    0  502  503 -0.00000000000E+00 -0.00000000000E+00 -0.39434755695E+02  0.39434755695E+02  0.00000000000E+00 0.  1.
         -6    2    1    2    0  503  0.56895650624E+02  0.26711381018E+02  0.26772174551E+03  0.32352553495E+03  0.17042073175E+03 0.  0.
        -24    2    3    3    0    0  0.10239873837E+03  0.32204866850E+02  0.17660348737E+03  0.22142099858E+03  0.79472081833E+02 0.  0.
          6    2    1    2  501    0 -0.56895650624E+02 -0.26711381018E+02  0.71611760128E+03  0.73918332323E+03  0.17209576852E+03 0.  0.
         24    2    5    5    0    0  0.32827813282E+02 -0.23981969906E+02  0.25604990872E+03  0.27041672736E+03  0.76882055635E+02 0.  0.
          5    1    5    5  501    0 -0.89723463905E+02 -0.27294111121E+01  0.46006769256E+03  0.46876659587E+03  0.47000000000E+01 0. -1.
        -11    1    6    6    0    0 -0.31350374096E+01  0.17735801157E+02  0.15878991039E+02  0.24011027855E+02  0.00000000000E+00 0.  1.
         12    1    6    6    0    0  0.35962850691E+02 -0.41717771063E+02  0.24017091768E+03  0.24640569951E+03  0.00000000000E+00 0. -1.
         -5    1    3    3    0  503 -0.45503087750E+02 -0.54934858317E+01  0.91118258142E+02  0.10210453637E+03  0.47000000000E+01 0.  1.
         13    1    4    4    0    0  0.33775353737E+02  0.36252531444E+02  0.12793325546E+03  0.13719306983E+03  0.00000000000E+00 0. -1.
        -14    1    4    4    0    0  0.68623384636E+02 -0.40476645935E+01  0.48670231913E+02  0.84227928753E+02  0.00000000000E+00 0.  1.
</event>
<event>
12    1  0.1050869E+000  0.3900139E+03  0.7818608E-02  0.1047345E+00
         21   -1    0    0  501  502  0.00000000000E+00  0.00000000000E+00  0.47545412888E+03  0.47545412888E+03  0.00000000000E+00 0.  1.
         21   -1    0    0  502  503 -0.00000000000E+00 -0.00000000000E+00 -0.42668994239E+03  0.42668994239E+03  0.00000000000E+00 0.  1.
         -6    2    1    2    0  503 -0.15806919805E+03 -0.31229619887E+03  0.25053003296E+03  0.46354736825E+03  0.17203510687E+03 0.  0.
        -24    2    3    3    0    0 -0.16084031927E+03 -0.17863636778E+03  0.13723462468E+03  0.28824600175E+03  0.80447840974E+02 0.  0.
          6    2    1    2  501    0  0.15806919805E+03  0.31229619887E+03 -0.20176584647E+03  0.43859670302E+03  0.17071269401E+03 0.  0.
         24    2    5    5    0    0  0.14096671106E+03  0.27846700504E+03 -0.11215263108E+03  0.34118249569E+03  0.80073692217E+02 0.  0.
          5    1    5    5  501    0  0.17102486988E+02  0.33829193831E+02 -0.89613215391E+02  0.97414207327E+02  0.47000000000E+01 0. -1.
        -13    1    6    6    0    0  0.11542414948E+03  0.16874745247E+03 -0.10083831495E+03  0.22796228364E+03  0.00000000000E+00 0.  1.
         14    1    6    6    0    0  0.25542561578E+02  0.10971955257E+03 -0.11314316128E+02  0.11322021205E+03  0.00000000000E+00 0. -1.
         -5    1    3    3    0  503  0.27711212206E+01 -0.13365983109E+03  0.11329540827E+03  0.17530136650E+03  0.47000000000E+01 0.  1.
         13    1    4    4    0    0 -0.12055026253E+03 -0.15409201776E+03  0.14063540002E+03  0.24094611736E+03  0.00000000000E+00 0. -1.
        -14    1    4    4    0    0 -0.40290056745E+02 -0.24544350020E+02 -0.34007753389E+01  0.47299884390E+02  0.00000000000E+00 0.  1.
</event>
<event>
12    1  0.1050869E+000  0.2179151E+03  0.7818608E-02  0.1135633E+00
         21   -1    0    0  503  502  0.00000000000E+00  0.00000000000E+00  0.25707560601E+03  0.25707560601E+03  0.00000000000E+00 0.  1.
         21   -1    0    0  501  503 -0.00000000000E+00 -0.00000000000E+00 -0.20387418759E+03  0.20387418759E+03  0.00000000000E+00 0.  1.
          6    2    1    2  501    0  0.11452309037E+03 -0.68712164647E+02  0.98816102104E+02  0.23927312586E+03  0.17219206407E+03 0.  0.
         24    2    3    3    0    0  0.45403829853E+02 -0.45673941651E+02 -0.15788941797E+02  0.10338847632E+03  0.79323827708E+02 0.  0.
         -6    2    1    2    0  502 -0.11452309037E+03  0.68712164647E+02 -0.45614683681E+02  0.22167666774E+03  0.17094720195E+03 0.  0.
        -24    2    5    5    0    0  0.55124325187E+01  0.21182546529E+02 -0.39969422491E+02  0.92364834073E+02  0.80340653777E+02 0.  0.
          5    1    3    3  501    0  0.69119260512E+02 -0.23038222996E+02  0.11460504390E+03  0.13588464954E+03  0.47000000000E+01 0. -1.
        -13    1    4    4    0    0  0.46477797870E+02 -0.75447397852E+00  0.15086180948E+02  0.48870725199E+02  0.00000000000E+00 0.  1.
         14    1    4    4    0    0 -0.10739680170E+01 -0.44919467673E+02 -0.30875122745E+02  0.54517751126E+02  0.00000000000E+00 0. -1.
         -5    1    5    5    0  502 -0.12003552288E+03  0.47529618118E+02 -0.56452611902E+01  0.12931183367E+03  0.47000000000E+01 0.  1.
         11    1    6    6    0    0 -0.30803489199E+02  0.28066054181E+02 -0.58844080079E+01  0.42085444060E+02  0.00000000000E+00 0. -1.
        -12    1    6    6    0    0  0.36315921717E+02 -0.68835076522E+01 -0.34085014483E+02  0.50279390013E+02  0.00000000000E+00 0.  1.
</event>
<event>
12    1  0.1050869E+000  0.1853079E+03  0.7818608E-02  0.1162784E+00
         21   -1    0    0  501  502  0.00000000000E+00  0.00000000000E+00  0.13968454507E+03  0.13968454507E+03  0.00000000000E+00 0.  1.
         21   -1    0    0  502  503 -0.00000000000E+00 -0.00000000000E+00 -0.29579877329E+03  0.29579877329E+03  0.00000000000E+00 0.  1.
         -6    2    1    2    0  503 -0.61066059848E+02 -0.31677094825E+02  0.11561725692E+02  0.18557484821E+03  0.17196467307E+03 0.  0.
        -24    2    3    3    0    0 -0.69034851007E+02  0.35833987169E+02  0.29572292922E+02  0.11509280542E+03  0.79510678904E+02 0.  0.
          6    2    1    2  501    0  0.61066059848E+02  0.31677094825E+02 -0.16767595392E+03  0.24990847015E+03  0.17206544084E+03 0.  0.
         24    2    5    5    0    0 -0.22275686608E+02 -0.17283136382E+02 -0.96368593423E+02  0.12970122993E+03  0.82101097612E+02 0.  0.
          5    1    5    5  501    0  0.83341746456E+02  0.48960231207E+02 -0.71307360493E+02  0.12020724023E+03  0.47000000000E+01 0. -1.
        -11    1    6    6    0    0 -0.51732018960E+02 -0.41771152855E+01 -0.74297336620E+02  0.90629709845E+02  0.00000000000E+00 0.  1.
         12    1    6    6    0    0  0.29456332352E+02 -0.13106021096E+02 -0.22071256803E+02  0.39071520081E+02  0.00000000000E+00 0. -1.
         -5    1    3    3    0  503  0.79687911595E+01 -0.67511081994E+02 -0.18010567230E+02  0.70482042794E+02  0.47000000000E+01 0.  1.
         11    1    4    4    0    0 -0.38588206599E+02 -0.55160875206E+01 -0.19919159359E+02  0.43774990801E+02  0.00000000000E+00 0. -1.
        -12    1    4    4    0    0 -0.30446644409E+02  0.41350074690E+02  0.49491452281E+02  0.71317814615E+02  0.00000000000E+00 0.  1.
</event>
<event>
12    1  0.1050869E+000  0.8274649E+03  0.7818608E-02  0.9521166E-01
         21   -1    0    0  501  502  0.00000000000E+00  0.00000000000E+00  0.12712350022E+04  0.12712350022E+04  0.00000000000E+00 0.  1.
         21   -1    0    0  502  503 -0.00000000000E+00 -0.00000000000E+00 -0.54272851298E+03  0.54272851298E+03  0.00000000000E+00 0.  1.
         -6    2    1    2    0  503  0.16842351092E+03 -0.79165519075E+03  0.28395854252E+03  0.87483176280E+03  0.17208642964E+03 0.  0.
        -24    2    3    3    0    0  0.19408866171E+03 -0.64408504515E+03  0.24292700116E+03  0.71945697326E+03  0.78031112364E+02 0.  0.
          6    2    1    2  501    0 -0.16842351092E+03  0.79165519075E+03  0.44454794669E+03  0.93913175237E+03  0.17105891184E+03 0.  0.
         24    2    5    5    0    0 -0.12415149482E+02  0.32766063912E+03  0.19064485024E+03  0.38766241943E+03  0.80131530308E+02 0.  0.
          5    1    5    5  501    0 -0.15600836144E+03  0.46399455163E+03  0.25390309645E+03  0.55146933293E+03  0.47000000000E+01 0. -1.
        -11    1    6    6    0    0 -0.25158853488E+02  0.13054012291E+03  0.11620054398E+03  0.17656799829E+03  0.00000000000E+00 0.  1.
         12    1    6    6    0    0  0.12743704007E+02  0.19712051621E+03  0.74444306261E+02  0.21109442114E+03  0.00000000000E+00 0. -1.
         -5    1    3    3    0  503 -0.25665150792E+02 -0.14757014560E+03  0.41031541362E+02  0.15537478954E+03  0.47000000000E+01 0. -1.
         13    1    4    4    0    0  0.38326307826E+02 -0.23978823935E+03  0.10709991683E+03  0.26540101316E+03  0.00000000000E+00 0. -1.
        -14    1    4    4    0    0  0.15576235389E+03 -0.40429680580E+03  0.13582708432E+03  0.45405596010E+03  0.00000000000E+00 0.  1.
</event>
<event>
12    1  0.1050869E+000  0.3326885E+03  0.7818608E-02  0.1070223E+00
         21   -1    0    0  501  502  0.00000000000E+00  0.00000000000E+00  0.13531154241E+04  0.13531154241E+04  0.00000000000E+00 0. -1.
         21   -1    0    0  502  503 -0.00000000000E+00 -0.00000000000E+00 -0.82612998662E+02  0.82612998662E+02  0.00000000000E+00 0. -1.
         -6    2    1    2    0  503  0.62473099109E-01 -0.28155860039E+03  0.73156421614E+03  0.80365904457E+03  0.17721853244E+03 0.  0.
        -24    2    3    3    0    0  0.10926840503E+02 -0.17686789467E+03  0.28636336530E+03  0.34616143155E+03  0.80138078932E+02 0.  0.
          6    2    1    2  501    0 -0.62473099109E-01  0.28155860039E+03  0.53893820927E+03  0.63206937816E+03  0.17257478389E+03 0.  0.
         24    2    5    5    0    0 -0.10482213647E+02  0.28831288695E+03  0.43782373694E+03  0.53008693901E+03  0.77899555172E+02 0.  0.
          5    1    5    5  501    0  0.10419740548E+02 -0.67542865589E+01  0.10111447233E+03  0.10198243915E+03  0.47000000000E+01 0. -1.
        -11    1    6    6    0    0  0.11664579949E+02  0.20141064565E+03  0.35333840276E+03  0.40687877491E+03  0.00000000000E+00 0.  1.
         12    1    6    6    0    0 -0.22146793596E+02  0.86902241301E+02  0.84485334183E+02  0.12320816410E+03  0.00000000000E+00 0. -1.
         -5    1    3    3    0  503 -0.10864367404E+02 -0.10469070572E+03  0.44520085083E+03  0.45749761303E+03  0.47000000000E+01 0.  1.
         11    1    4    4    0    0 -0.62550857068E+01 -0.17876313403E+01 -0.32746004844E+01  0.72831814024E+01  0.00000000000E+00 0. -1.
        -12    1    4    4    0    0  0.17181926209E+02 -0.17508026333E+03  0.28963796579E+03  0.33887825015E+03  0.00000000000E+00 0.  1.
</event>
<event>
12    1  0.1050869E+000  0.2704681E+03  0.7818608E-02  0.1101181E+00
         21   -1    0    0  503  502  0.00000000000E+00  0.00000000000E+00  0.30341965783E+03  0.30341965783E+03  0.00000000000E+00 0.  1.
         21   -1    0    0  501  503 -0.00000000000E+00 -0.00000000000E+00 -0.44537819697E+03  0.44537819697E+03  0.00000000000E+00 0.  1.
          6    2    1    2  501    0  0.80660655442E+02  0.19077296379E+03  0.18331826348E+03  0.32576357870E+03  0.17209258680E+03 0.  0.
         24    2    3    3    0    0  0.62962796837E+02  0.37218200498E+02  0.11185693178E+03  0.15540779965E+03  0.79310168134E+02 0.  0.
         -6    2    1    2    0  502 -0.80660655442E+02 -0.19077296379E+03 -0.32527680262E+03  0.42303427610E+03  0.17393255987E+03 0.  0.
        -24    2    5    5    0    0  0.20335786133E+02 -0.74476885055E+02 -0.97798884173E+02  0.14827373941E+03  0.80374930474E+02 0.  0.
          5    1    3    3  501    0  0.17697858604E+02  0.15355476329E+03  0.71461331695E+02  0.17035577905E+03  0.47000000000E+01 0. -1.
        -11    1    4    4    0    0  0.26980082857E+02 -0.93315758287E+01 -0.52840832906E+00  0.28553150330E+02  0.00000000000E+00 0.  1.
         12    1    4    4    0    0  0.35982713980E+02  0.46549776327E+02  0.11238534011E+03  0.12685464932E+03  0.00000000000E+00 0. -1.
         -5    1    5    5    0  502 -0.10099644157E+03 -0.11629607874E+03 -0.22747791845E+03  0.27476053669E+03  0.47000000000E+01 0.  1.
         11    1    6    6    0    0 -0.49555820720E+00 -0.84938286607E+02 -0.60476013602E+02  0.10426939307E+03  0.00000000000E+00 0. -1.
        -12    1    6    6    0    0  0.20831344340E+02  0.10461401552E+02 -0.37322870572E+02  0.44004346344E+02  0.00000000000E+00 0.  1.
</event>
<event>
12    1  0.1050869E+000  0.3032501E+03  0.7818608E-02  0.1083746E+00
         21   -1    0    0  503  502  0.00000000000E+00  0.00000000000E+00  0.46069372068E+03  0.46069372068E+03  0.00000000000E+00 0. -1.
         21   -1    0    0  501  503 -0.00000000000E+00 -0.00000000000E+00 -0.21383881970E+03  0.21383881970E+03  0.00000000000E+00 0. -1.
          6    2    1    2  501    0 -0.15030623839E+03  0.19942837568E+03  0.21250769694E+03  0.37029737764E+03  0.17203774092E+03 0.  0.
         24    2    3    3    0    0 -0.64307272318E+02  0.14610110862E+03  0.20017526048E+03  0.26824935675E+03  0.80041384761E+02 0.  0.
         -6    2    1    2    0  502  0.15030623839E+03 -0.19942837568E+03  0.34347204047E+02  0.30423516275E+03  0.17033984121E+03 0.  0.
        -24    2    5    5    0    0  0.14030491957E+03 -0.97653932203E+02  0.29166488620E+02  0.20173153581E+03  0.10306875158E+03 0.  0.
          5    1    3    3  501    0 -0.85998966072E+02  0.53327267058E+02  0.12332436454E+02  0.10204802088E+03  0.47000000000E+01 0. -1.
        -13    1    4    4    0    0 -0.82629386737E+02  0.12664128021E+03  0.16155044779E+03  0.22127850458E+03  0.00000000000E+00 0.  1.
         14    1    4    4    0    0  0.18322114419E+02  0.19459828411E+02  0.38624812692E+02  0.46970852175E+02  0.00000000000E+00 0. -1.
         -5    1    5    5    0  502  0.10001318825E+02 -0.10177444348E+03  0.51807154275E+01  0.10250362694E+03  0.47000000000E+01 0.  1.
         11    1    6    6    0    0  0.15752420850E+02 -0.26454872159E+02 -0.33214142456E+02  0.45289935777E+02  0.00000000000E+00 0. -1.
        -12    1    6    6    0    0  0.12455249872E+03 -0.71199060043E+02  0.62380631076E+02  0.15644160003E+03  0.00000000000E+00 0.  1.
</event>
<event>
12    1  0.1050869E+000  0.2227379E+03  0.7818608E-02  0.1132917E+00
         21   -1    0    0  503  502  0.00000000000E+00  0.00000000000E+00  0.58911021708E+03  0.58911021708E+03  0.00000000000E+00 0.  1.
         21   -1    0    0  501  503 -0.00000000000E+00 -0.00000000000E+00 -0.82122161589E+02  0.82122161589E+02  0.00000000000E+00 0.  1.
          6    2    1    2  501    0 -0.70492099766E+02 -0.12265922071E+03  0.25814171107E+03  0.33726130545E+03  0.16460141132E+03 0.  0.
         24    2    3    3    0    0 -0.28474280208E+02 -0.57404963717E+01  0.61410065574E+02  0.10453632699E+03  0.79453820390E+02 0.  0.
         -6    2    1    2    0  502  0.70492099766E+02  0.12265922071E+03  0.24884634442E+03  0.33397107321E+03  0.17203997808E+03 0.  0.
        -24    2    5    5    0    0  0.86810675551E+02  0.14969663027E+03  0.20873192233E+03  0.28270144974E+03  0.80036990090E+02 0.  0.
          5    1    3    3  501    0 -0.42017819558E+02 -0.11691872434E+03  0.19673164549E+03  0.23272497846E+03  0.47000000000E+01 0. -1.
        -11    1    4    4    0    0 -0.22268537572E+02 -0.16047872040E+02 -0.12136661952E+02  0.30012006364E+02  0.00000000000E+00 0.  1.
         12    1    4    4    0    0 -0.62057426355E+01  0.10307375669E+02  0.73546727526E+02  0.74524320625E+02  0.00000000000E+00 0. -1.
         -5    1    5    5    0  502 -0.16318575785E+02 -0.27037409559E+02  0.40114422089E+02  0.51269623471E+02  0.47000000000E+01 0.  1.
         13    1    6    6    0    0  0.13682293739E+02  0.44423078272E+02  0.12188908384E+02  0.48053975202E+02  0.00000000000E+00 0. -1.
        -14    1    6    6    0    0  0.73128381812E+02  0.10527355200E+03  0.19654301395E+03  0.23464747454E+03  0.00000000000E+00 0.  1.
</event>
<event>
12    1  0.1050869E+000  0.1996665E+03  0.7818608E-02  0.1150226E+00
         21   -1    0    0  503  502  0.00000000000E+00  0.00000000000E+00  0.21364392066E+04  0.21364392066E+04  0.00000000000E+00 0.  1.
         21   -1    0    0  501  503 -0.00000000000E+00 -0.00000000000E+00 -0.20961002004E+02  0.20961002004E+02  0.00000000000E+00 0.  1.
          6    2    1    2  501    0 -0.87296015036E+02  0.48266457406E+02  0.14243581919E+04  0.14382847341E+04  0.17296378974E+03 0.  0.
         24    2    3    3    0    0 -0.12360829509E+03  0.19604938818E+02  0.12079917806E+04  0.12169782085E+04  0.78284442391E+02 0.  0.
         -6    2    1    2    0  502  0.87296015036E+02 -0.48266457406E+02  0.69112001274E+03  0.71911547448E+03  0.17184280163E+03 0.  0.
        -24    2    5    5    0    0  0.98969707470E+02 -0.78214205223E+02  0.41399982259E+03  0.44009785409E+03  0.79861149382E+02 0.  0.
          5    1    3    3  501    0  0.36312280050E+02  0.28661518588E+02  0.21636641132E+03  0.22130652561E+03  0.47000000000E+01 0. -1.
        -11    1    4    4    0    0 -0.57620867278E+02 -0.60896970006E+01  0.26155741797E+03  0.26789836067E+03  0.00000000000E+00 0.  1.
         12    1    4    4    0    0 -0.65987427808E+02  0.25694635819E+02  0.94643436258E+03  0.94907984786E+03  0.00000000000E+00 0. -1.
         -5    1    5    5    0  502 -0.11673692434E+02  0.29947747816E+02  0.27712019015E+03  0.27901762038E+03  0.47000000000E+01 0.  1.
         13    1    6    6    0    0  0.34414272804E+01 -0.39170886707E+02  0.18170583637E+03  0.18591184136E+03  0.00000000000E+00 0. -1.
        -14    1    6    6    0    0  0.95528280189E+02 -0.39043318516E+02  0.23229398622E+03  0.25418601273E+03  0.00000000000E+00 0.  1.
</event>
<event>
12    1  0.1050869E+000  0.3127172E+03  0.7818608E-02  0.1079109E+00
         21   -1    0    0  501  502  0.00000000000E+00  0.00000000000E+00  0.25847508436E+03  0.25847508436E+03  0.00000000000E+00 0. -1.
         21   -1    0    0  502  503 -0.00000000000E+00 -0.00000000000E+00 -0.18161085978E+04  0.18161085978E+04  0.00000000000E+00 0. -1.
         -6    2    1    2    0  503 -0.13182889855E+02  0.26077169342E+03 -0.17020747564E+04  0.17305636495E+04  0.17209417078E+03 0.  0.
        -24    2    3    3    0    0  0.55609663171E+02  0.19325096726E+03 -0.12443058037E+04  0.12627325176E+04  0.75882191332E+02 0.  0.
          6    2    1    2  501    0  0.13182889855E+02 -0.26077169342E+03  0.14444124296E+03  0.34402003276E+03  0.17120410508E+03 0.  0.
         24    2    5    5    0    0 -0.24786388747E+02 -0.22175773804E+03  0.16172652744E+03  0.28670837695E+03  0.79090860960E+02 0.  0.
          5    1    5    5  501    0  0.37969278602E+02 -0.39013955380E+02 -0.17285284476E+02  0.57311655807E+02  0.47000000000E+01 0. -1.
        -11    1    6    6    0    0 -0.24545991974E+02 -0.22008838914E+03  0.13380856225E+03  0.25873951397E+03  0.00000000000E+00 0.  1.
         12    1    6    6    0    0 -0.24039677363E+00 -0.16693489006E+01  0.27917965185E+02  0.27968862981E+02  0.00000000000E+00 0. -1.
         -5    1    3    3    0  503 -0.68792553026E+02  0.67520726157E+02 -0.45776895279E+03  0.46783113188E+03  0.47000000000E+01 0.  1.
         13    1    4    4    0    0  0.28242797174E+02  0.89991957744E+02 -0.81041078317E+03  0.81588102413E+03  0.00000000000E+00 0. -1.
        -14    1    4    4    0    0  0.27366865998E+02  0.10325900952E+03 -0.43389502048E+03  0.44685149345E+03  0.00000000000E+00 0.  1.
</event>
<event>
12    1  0.1050869E+000  0.3579317E+03  0.7818608E-02  0.1059432E+00
         21   -1    0    0  503  502  0.00000000000E+00  0.00000000000E+00  0.99216470810E+03  0.99216470810E+03  0.00000000000E+00 0. -1.
         21   -1    0    0  501  503 -0.00000000000E+00 -0.00000000000E+00 -0.16559205454E+03  0.16559205454E+03  0.00000000000E+00 0. -1.
          6    2    1    2  501    0 -0.31329625063E+03  0.16949222820E+02  0.68540408199E+03  0.77323598225E+03  0.17225943172E+03 0.  0.
         24    2    3    3    0    0 -0.88946001576E+02  0.74131955867E+01  0.36027305257E+03  0.37806988254E+03  0.71929250020E+02 0.  0.
         -6    2    1    2    0  502  0.31329625063E+03 -0.16949222820E+02  0.14116857157E+03  0.38452078039E+03  0.17171443776E+03 0.  0.
        -24    2    5    5    0    0  0.12948002205E+03  0.52392787229E+02  0.47106778835E+02  0.16665285916E+03  0.77743466539E+02 0.  0.
          5    1    3    3  501    0 -0.22435024906E+03  0.95360272337E+01  0.32513102942E+03  0.39516609971E+03  0.47000000000E+01 0. -1.
        -11    1    4    4    0    0 -0.95013098161E+02  0.57159423650E+01  0.35930105235E+03  0.37169531480E+03  0.00000000000E+00 0.  1.
         12    1    4    4    0    0  0.60670965848E+01  0.16972532216E+01  0.97200021711E+00  0.63745677414E+01  0.00000000000E+00 0. -1.
         -5    1    5    5    0  502  0.18381622859E+03 -0.69342010049E+02  0.94061792740E+02  0.21786792123E+03  0.47000000000E+01 0.  1.
         11    1    6    6    0    0  0.11366021223E+03  0.53183952336E+02  0.66172366412E+02  0.14186598855E+03  0.00000000000E+00 0. -1.
        -12    1    6    6    0    0  0.15819809820E+02 -0.79116510689E+00 -0.19065587577E+02  0.24786870610E+02  0.00000000000E+00 0.  1.
</event>
<event>
12    1  0.1050869E+000  0.1775721E+03  0.7818608E-02  0.1170675E+00
         21   -1    0    0  501  502  0.00000000000E+00  0.00000000000E+00  0.45301009142E+02  0.45301009142E+02  0.00000000000E+00 0. -1.
         21   -1    0    0  502  503 -0.00000000000E+00 -0.00000000000E+00 -0.72779960711E+03  0.72779960711E+03  0.00000000000E+00 0. -1.
         -6    2    1    2    0  503 -0.38831749872E+02 -0.16977088356E+02 -0.24917199146E+03  0.30480179178E+03  0.17035646339E+03 0.  0.
        -24    2    3    3    0    0  0.22422955365E+02  0.30844490586E+02 -0.88928588404E+02  0.12664713832E+03  0.81713109614E+02 0.  0.
          6    2    1    2  501    0  0.38831749872E+02  0.16977088356E+02 -0.43332660651E+03  0.46829882447E+03  0.17244046731E+03 0.  0.
         24    2    5    5    0    0  0.62119858970E+02 -0.30966906666E+02 -0.17734293144E+03  0.20678267854E+03  0.80565095566E+02 0.  0.
          5    1    5    5  501    0 -0.23288109099E+02  0.47943995022E+02 -0.25598367507E+03  0.26151614594E+03  0.47000000000E+01 0. -1.
        -11    1    6    6    0    0  0.24390817382E+02 -0.48610751531E+02 -0.14234135916E+03  0.15237775318E+03  0.00000000000E+00 0.  1.
         12    1    6    6    0    0  0.37729041589E+02  0.17643844865E+02 -0.35001572284E+02  0.54404925358E+02  0.00000000000E+00 0. -1.
         -5    1    3    3    0  503 -0.61254705237E+02 -0.47821578942E+02 -0.16024340306E+03  0.17815465346E+03  0.47000000000E+01 0.  1.
         11    1    4    4    0    0 -0.22527568312E+02  0.36511529698E+02 -0.30162285110E+02  0.52443746796E+02  0.00000000000E+00 0. -1.
        -12    1    4    4    0    0  0.44950523677E+02 -0.56670391126E+01 -0.58766303294E+02  0.74203391526E+02  0.00000000000E+00 0.  1.
</event>
<event>
12    1  0.1050869E+000  0.1737068E+03  0.7818608E-02  0.1174345E+00
         21   -1    0    0  501  502  0.00000000000E+00  0.00000000000E+00  0.28612523640E+03  0.28612523640E+03  0.00000000000E+00 0. -1.
         21   -1    0    0  502  503 -0.00000000000E+00 -0.00000000000E+00 -0.10639644022E+03  0.10639644022E+03  0.00000000000E+00 0. -1.
         -6    2    1    2    0  503 -0.12385615981E+02  0.54556429909E+01  0.64930664100E+02  0.18430869134E+03  0.17196085322E+03 0.  0.
        -24    2    3    3    0    0 -0.41890012960E+01 -0.62732604988E+02  0.25509164194E+02  0.10498047247E+03  0.80107769173E+02 0.  0.
          6    2    1    2  501    0  0.12385615981E+02 -0.54556429909E+01  0.11479813207E+03  0.20821298528E+03  0.17317871863E+03 0.  0.
         24    2    5    5    0    0  0.52569054561E+02  0.28931371294E+02  0.11832122139E+03  0.15499947529E+03  0.80152331008E+02 0.  0.
          5    1    5    5  501    0 -0.40183438579E+02 -0.34387014284E+02 -0.35230893144E+01  0.53213509993E+02  0.47000000000E+01 0. -1.
        -13    1    6    6    0    0  0.97042794928E+01 -0.27530278408E+02  0.36635446456E+02  0.46842771126E+02  0.00000000000E+00 0.  1.
         14    1    6    6    0    0  0.42864775068E+02  0.56461649702E+02  0.81685774933E+02  0.10815670416E+03  0.00000000000E+00 0. -1.
         -5    1    3    3    0  503 -0.81966146854E+01  0.68188247979E+02  0.39421499906E+02  0.79328218873E+02  0.47000000000E+01 0.  1.
         13    1    4    4    0    0 -0.39715414643E+02 -0.27009298773E+02 -0.10222026806E+01  0.48040204817E+02  0.00000000000E+00 0. -1.
        -14    1    4    4    0    0  0.35526413347E+02 -0.35723306215E+02  0.26531366875E+02  0.56940267654E+02  0.00000000000E+00 0.  1.
</event>
<event>
12    1  0.1050869E+000  0.2046032E+03  0.7818608E-02  0.1146455E+00
         21   -1    0    0  503  502  0.00000000000E+00  0.00000000000E+00  0.18148911350E+03  0.18148911350E+03  0.00000000000E+00 0.  1.
         21   -1    0    0  501  503 -0.00000000000E+00 -0.00000000000E+00 -0.24046492355E+03  0.24046492355E+03  0.00000000000E+00 0.  1.
          6    2    1    2  501    0  0.10786557961E+03  0.24985491490E+02 -0.77910288893E+02  0.21647654802E+03  0.16891662050E+03 0.  0.
         24    2    3    3    0    0  0.15961344840E+02  0.51696085922E+02 -0.56560146757E+01  0.96465655328E+02  0.79664184721E+02 0.  0.
         -6    2    1    2    0  502 -0.10786557961E+03 -0.24985491490E+02  0.18934478836E+02  0.20547748903E+03  0.17205588034E+03 0.  0.
        -24    2    5    5    0    0 -0.12085904472E+03  0.17620812040E+02 -0.15280175724E+02  0.14911384984E+03  0.84166826822E+02 0.  0.
          5    1    3    3  501    0  0.91904234767E+02 -0.26710594432E+02 -0.72254274217E+02  0.12001089270E+03  0.47000000000E+01 0. -1.
        -13    1    4    4    0    0  0.37966941977E+02  0.54564687225E+02 -0.20738215855E+02  0.69633809115E+02  0.00000000000E+00 0.  1.
         14    1    4    4    0    0 -0.22005597137E+02 -0.28686013038E+01  0.15082201179E+02  0.26831846213E+02  0.00000000000E+00 0. -1.
         -5    1    5    5    0  502  0.12993465109E+02 -0.42606303530E+02  0.34214654560E+02  0.56363639189E+02  0.47000000000E+01 0.  1.
         13    1    6    6    0    0 -0.11876229601E+02  0.24644670588E+02 -0.28024938116E+02  0.39163781410E+02  0.00000000000E+00 0. -1.
        -14    1    6    6    0    0 -0.10898281511E+03 -0.70238585475E+01  0.12744762393E+02  0.10995006843E+03  0.00000000000E+00 0.  1.
</event>
<event>
12    1  0.1050869E+000  0.3546380E+03  0.7818608E-02  0.1060806E+00
         21   -1    0    0  503  502  0.00000000000E+00  0.00000000000E+00  0.28128992223E+04  0.28128992223E+04  0.00000000000E+00 0. -1.
         21   -1    0    0  501  503 -0.00000000000E+00 -0.00000000000E+00 -0.16767874388E+03  0.16767874388E+03  0.00000000000E+00 0.  1.
          6    2    1    2  501    0  0.12057236600E+02  0.31006665785E+03  0.25989557515E+04  0.26229349771E+04  0.17008876188E+03 0.  0.
         24    2    3    3    0    0  0.53198749799E+02  0.20797866971E+03  0.20455991360E+04  0.20587185158E+04  0.88095787597E+02 0.  0.
         -6    2    1    2    0  502 -0.12057236600E+02 -0.31006665785E+03  0.46264726977E+02  0.35764298908E+03  0.17170140771E+03 0.  0.
        -24    2    5    5    0    0 -0.34437399039E+02 -0.22280250834E+03  0.91439748616E+02  0.25675306867E+03  0.82061065478E+02 0.  0.
          5    1    3    3  501    0 -0.41141513199E+02  0.10208798814E+03  0.55335661543E+03  0.56421646136E+03  0.47000000000E+01 0. -1.
        -11    1    4    4    0    0 -0.24805676667E+02  0.54605883152E+02  0.52486646458E+03  0.52828205507E+03  0.00000000000E+00 0.  1.
         12    1    4    4    0    0  0.78004426466E+02  0.15337278656E+03  0.15207326715E+04  0.15304364607E+04  0.00000000000E+00 0. -1.
         -5    1    5    5    0  502  0.22380162439E+02 -0.87264149509E+02 -0.45175021639E+02  0.10088992041E+03  0.47000000000E+01 0.  1.
         11    1    6    6    0    0  0.85420747121E+01 -0.16437099915E+03  0.81084593282E+02  0.18348161671E+03  0.00000000000E+00 0. -1.
        -12    1    6    6    0    0 -0.42979473751E+02 -0.58431509190E+02  0.10355155334E+02  0.73271451958E+02  0.00000000000E+00 0.  1.
</event>
<event>
12    1  0.1050869E+000  0.2114092E+03  0.7818608E-02  0.1140697E+00
         21   -1    0    0  501  502  0.00000000000E+00  0.00000000000E+00  0.36254228651E+03  0.36254228651E+03  0.00000000000E+00 0. -1.
         21   -1    0    0  502  503 -0.00000000000E+00 -0.00000000000E+00 -0.13952027135E+03  0.13952027135E+03  0.00000000000E+00 0. -1.
         -6    2    1    2    0  503  0.68098882424E+02  0.99867134708E+02  0.23711290516E+02  0.21151377320E+03  0.17194460903E+03 0.  0.
        -24    2    3    3    0    0  0.53417394117E+02  0.13478561686E+03  0.19419122253E+02  0.17310336832E+03  0.92558593915E+02 0.  0.
          6    2    1    2  501    0 -0.68098882424E+02 -0.99867134708E+02  0.19931072464E+03  0.29054878465E+03  0.17344431073E+03 0.  0.
         24    2    5    5    0    0 -0.19225341052E+02 -0.11513744208E+03  0.19316597517E+03  0.23876410275E+03  0.77903520399E+02 0.  0.
          5    1    5    5  501    0 -0.48873541372E+02  0.15270307376E+02  0.61447494660E+01  0.51784681901E+02  0.47000000000E+01 0. -1.
        -11    1    6    6    0    0 -0.29415262651E+02 -0.40661874179E+02  0.28408206108E+02  0.57668638469E+02  0.00000000000E+00 0.  1.
         12    1    6    6    0    0  0.10189921598E+02 -0.74475567905E+02  0.16475776906E+03  0.18109546428E+03  0.00000000000E+00 0. -1.
         -5    1    3    3    0  503  0.14681488307E+02 -0.34918482154E+02  0.42921682636E+01  0.38410404883E+02  0.47000000000E+01 0.  1.
         11    1    4    4    0    0 -0.24877602076E+02  0.54286600178E+02  0.66394157284E+01  0.60083374448E+02  0.00000000000E+00 0. -1.
        -12    1    4    4    0    0  0.78294996192E+02  0.80499016684E+02  0.12779706524E+02  0.11301999387E+03  0.00000000000E+00 0.  1.
</event>
<event>
12    1  0.1050869E+000  0.2250263E+03  0.7818608E-02  0.1130619E+00
         21   -1    0    0  501  502  0.00000000000E+00  0.00000000000E+00  0.83435409787E+03  0.83435409787E+03  0.00000000000E+00 0. -1.
         21   -1    0    0  502  503 -0.00000000000E+00 -0.00000000000E+00 -0.62202004404E+02  0.62202004404E+02  0.00000000000E+00 0. -1.
         -6    2    1    2    0  503  0.66649326041E+02 -0.12729094003E+03  0.46737218449E+03  0.51770570944E+03  0.17010974893E+03 0.  0.
        -24    2    3    3    0    0  0.49517433930E+01 -0.11586669232E+03  0.40767590783E+03  0.43097139912E+03  0.78019810824E+02 0.  0.
          6    2    1    2  501    0 -0.66649326041E+02  0.12729094003E+03  0.30477990898E+03  0.37885039284E+03  0.17318115128E+03 0.  0.
         24    2    5    5    0    0 -0.51065645413E+02  0.15813238588E+03  0.21854085530E+03  0.28582722226E+03  0.79520713931E+02 0.  0.
          5    1    5    5  501    0 -0.15583680628E+02 -0.30841445851E+02  0.86239053685E+02  0.93023170579E+02  0.47000000000E+01 0. -1.
        -13    1    6    6    0    0 -0.16364482290E+02  0.88490291292E+02  0.17470473119E+03  0.19651989984E+03  0.00000000000E+00 0.  1.
         14    1    6    6    0    0 -0.34701163122E+02  0.69642094588E+02  0.43836124111E+02  0.89307322419E+02  0.00000000000E+00 0. -1.
         -5    1    3    3    0  503  0.61697582648E+02 -0.11424247709E+02  0.59696276656E+02  0.86734310322E+02  0.47000000000E+01 0.  1.
         11    1    4    4    0    0  0.47472962819E+01 -0.10858862053E+03  0.40932140235E+03  0.42350683082E+03  0.00000000000E+00 0. -1.
        -12    1    4    4    0    0  0.20444711112E+00 -0.72780717913E+01 -0.16454945214E+01  0.74645682957E+01  0.00000000000E+00 0.  1.
</event>
<event>
12    1  0.1050869E+000  0.3737049E+03  0.7818608E-02  0.1053311E+00
         21   -1    0    0  501  502  0.00000000000E+00  0.00000000000E+00  0.51326186884E+03  0.51326186884E+03  0.00000000000E+00 0. -1.
         21   -1    0    0  502  503 -0.00000000000E+00 -0.00000000000E+00 -0.27856037085E+03  0.27856037085E+03  0.00000000000E+00 0.  1.
         -6    2    1    2    0  503  0.23252145502E+02 -0.33046916017E+03  0.56138660631E+02  0.37789795936E+03  0.17293001583E+03 0.  0.
        -24    2    3    3    0    0  0.63436805207E+02 -0.14150040637E+03  0.61915610093E+02  0.18456027567E+03  0.78627980546E+02 0.  0.
          6    2    1    2  501    0 -0.23252145502E+02  0.33046916017E+03  0.17856283735E+03  0.41392428033E+03  0.17233135196E+03 0.  0.
         24    2    5    5    0    0 -0.27102555124E+02  0.81743404985E+02  0.23635406058E+02  0.12083056509E+03  0.81393244728E+02 0.  0.
          5    1    5    5  501    0  0.38504096213E+01  0.24872575519E+03  0.15492743130E+03  0.29309371524E+03  0.47000000000E+01 0. -1.
        -11    1    6    6    0    0  0.17951025797E+02  0.66371927296E+02  0.25125575792E+02  0.73203597036E+02  0.00000000000E+00 0.  1.
         12    1    6    6    0    0 -0.45053580920E+02  0.15371477689E+02 -0.14901697332E+01  0.47626968053E+02  0.00000000000E+00 0. -1.
         -5    1    3    3    0  503 -0.40184659704E+02 -0.18896875380E+03 -0.57769494616E+01  0.19333768368E+03  0.47000000000E+01 0.  1.
         13    1    4    4    0    0  0.87210758937E+01 -0.10474727722E+03  0.21635406454E+02  0.10731327999E+03  0.00000000000E+00 0. -1.
        -14    1    4    4    0    0  0.54715729313E+02 -0.36753129152E+02  0.40280203638E+02  0.77246995682E+02  0.00000000000E+00 0.  1.
</event>
<event>
12    1  0.1050869E+000  0.1933756E+03  0.7818608E-02  0.1159386E+00
         21   -1    0    0  503  502  0.00000000000E+00  0.00000000000E+00  0.81766155246E+03  0.81766155246E+03  0.00000000000E+00 0.  1.
         21   -1    0    0  501  503 -0.00000000000E+00 -0.00000000000E+00 -0.49341667490E+02  0.49341667490E+02  0.00000000000E+00 0.  1.
          6    2    1    2  501    0 -0.46061296139E+02 -0.74494968144E+02  0.56842740327E+03  0.60041972804E+03  0.17240357814E+03 0.  0.
         24    2    3    3    0    0  0.54286423973E+01 -0.10574686226E+03  0.39891142487E+03  0.42045958916E+03  0.80274978556E+02 0.  0.
         -6    2    1    2    0  502  0.46061296139E+02  0.74494968144E+02  0.19989248171E+03  0.26658349191E+03  0.15309673620E+03 0.  0.
        -24    2    5    5    0    0  0.63361454462E+02  0.10368447433E+02  0.15542039261E+03  0.18651250562E+03  0.80679846936E+02 0.  0.
          5    1    3    3  501    0 -0.51489938536E+02  0.31251894120E+02  0.16951597839E+03  0.17996013888E+03  0.47000000000E+01 0. -1.
        -11    1    4    4    0    0  0.30091479736E+02 -0.12426949405E+02  0.62453291167E+02  0.70429679836E+02  0.00000000000E+00 0.  1.
         12    1    4    4    0    0 -0.24662837339E+02 -0.93319912859E+02  0.33645813371E+03  0.35002990932E+03  0.00000000000E+00 0. -1.
         -5    1    5    5    0  502 -0.17300158323E+02  0.64126520711E+02  0.44472089099E+02  0.80070986290E+02  0.47000000000E+01 0.  1.
         13    1    6    6    0    0  0.48985080567E+02 -0.29940654139E+02  0.66667068639E+02  0.87979991642E+02  0.00000000000E+00 0. -1.
        -14    1    6    6    0    0  0.14376373895E+02  0.40309101572E+02  0.88753323969E+02  0.98532513981E+02  0.00000000000E+00 0.  1.
</event>
<event>
12    1  0.1050869E+000  0.2886606E+03  0.7818608E-02  0.1091373E+00
         21   -1    0    0  501  502  0.00000000000E+00  0.00000000000E+00  0.59800144786E+02  0.59800144786E+02  0.00000000000E+00 0. -1.
         21   -1    0    0  502  503 -0.00000000000E+00 -0.00000000000E+00 -0.26693937127E+04  0.26693937127E+04  0.00000000000E+00 0. -1.
         -6    2    1    2    0  503 -0.21819937652E+03  0.76042740909E+02 -0.35411645981E+03  0.45532008019E+03  0.16889180548E+03 0.  0.
        -24    2    3    3    0    0 -0.96129174613E+02  0.10091479848E+03 -0.20929735767E+03  0.26423262433E+03  0.81171922921E+02 0.  0.
          6    2    1    2  501    0  0.21819937652E+03 -0.76042740909E+02 -0.22554771081E+04  0.22738737773E+04  0.17300723548E+03 0.  0.
         24    2    5    5    0    0  0.16879914896E+03 -0.11224332004E+03 -0.15388217097E+04  0.15545908605E+04  0.87685651897E+02 0.  0.
          5    1    5    5  501    0  0.49400227561E+02  0.36200579128E+02 -0.71665539833E+03  0.71928291678E+03  0.47000000000E+01 0. -1.
        -11    1    6    6    0    0  0.17933321509E+03 -0.10490636536E+03 -0.14298641521E+04  0.14448796631E+04  0.00000000000E+00 0.  1.
         12    1    6    6    0    0 -0.10534066130E+02 -0.73369546763E+01 -0.10895755765E+03  0.10971119735E+03  0.00000000000E+00 0. -1.
         -5    1    3    3    0  503 -0.12207020191E+03 -0.24872057568E+02 -0.14481910214E+03  0.19108745586E+03  0.47000000000E+01 0.  1.
         11    1    4    4    0    0 -0.65169566246E+02  0.84793330377E+02 -0.20201406454E+03  0.22857529068E+03  0.00000000000E+00 0. -1.
        -12    1    4    4    0    0 -0.30959608367E+02  0.16121468100E+02 -0.72832931317E+01  0.35657333647E+02  0.00000000000E+00 0.  1.
</event>
<event>
12    1  0.1050869E+000  0.2297469E+03  0.7818608E-02  0.1127032E+00
         21   -1    0    0  501  502  0.00000000000E+00  0.00000000000E+00  0.87346738288E+02  0.87346738288E+02  0.00000000000E+00 0. -1.
         21   -1    0    0  502  503 -0.00000000000E+00 -0.00000000000E+00 -0.62645808484E+03  0.62645808484E+03  0.00000000000E+00 0. -1.
         -6    2    1    2    0  503  0.69104581335E+02  0.13387857173E+03 -0.19709565270E+03  0.30178737832E+03  0.17184298145E+03 0.  0.
        -24    2    3    3    0    0  0.11871294370E+02  0.17686059799E+02 -0.13476114323E+03  0.15796794279E+03  0.79621485064E+02 0.  0.
          6    2    1    2  501    0 -0.69104581335E+02 -0.13387857173E+03 -0.34201569386E+03  0.41201744481E+03  0.17344948789E+03 0.  0.
         24    2    5    5    0    0 -0.64438085588E+02 -0.85996180272E+02 -0.33944078271E+03  0.36361062956E+03  0.73790480883E+02 0.  0.
          5    1    5    5  501    0 -0.46664957468E+01 -0.47882391462E+02 -0.25749111489E+01  0.48406815245E+02  0.47000000000E+01 0. -1.
        -13    1    6    6    0    0  0.14061604502E+02 -0.11843621956E+02 -0.89033939146E+02  0.90912278720E+02  0.00000000000E+00 0.  1.
         14    1    6    6    0    0 -0.78499690090E+02 -0.74152558316E+02 -0.25040684356E+03  0.27269835084E+03  0.00000000000E+00 0. -1.
         -5    1    3    3    0  503  0.57233286965E+02  0.11619251193E+03 -0.62334509466E+02  0.14381943553E+03  0.47000000000E+01 0.  1.
         11    1    4    4    0    0  0.35921284569E+02 -0.12573157178E+02 -0.38040541208E+02  0.53809903753E+02  0.00000000000E+00 0. -1.
        -12    1    4    4    0    0 -0.24049990199E+02  0.30259216977E+02 -0.96720602024E+02  0.10415803904E+03  0.00000000000E+00 0.  1.
</event>
<event>
12    1  0.1050869E+000  0.3092018E+03  0.7818608E-02  0.1080838E+00
         21   -1    0    0  501  502  0.00000000000E+00  0.00000000000E+00  0.63316746957E+03  0.63316746957E+03  0.00000000000E+00 0.  1.
         21   -1    0    0  502  503 -0.00000000000E+00 -0.00000000000E+00 -0.16351494155E+03  0.16351494155E+03  0.00000000000E+00 0. -1.
         -6    2    1    2    0  503  0.13253415467E+03 -0.21951067468E+03  0.34665741308E+03  0.46391587405E+03  0.17116172967E+03 0.  0.
        -24    2    3    3    0    0  0.14505052902E+03 -0.13065066861E+03  0.19358287299E+03  0.28641470468E+03  0.80310654123E+02 0.  0.
          6    2    1    2  501    0 -0.13253415467E+03  0.21951067468E+03  0.12299511495E+03  0.33276653707E+03  0.17278753266E+03 0.  0.
         24    2    5    5    0    0 -0.24262162188E+02  0.16596221300E+03  0.93900447036E+02  0.20843290604E+03  0.80590779306E+02 0.  0.
          5    1    5    5  501    0 -0.10827199249E+03  0.53548461684E+02  0.29094667912E+02  0.12433363104E+03  0.47000000000E+01 0. -1.
        -13    1    6    6    0    0 -0.37851334766E+02  0.29287541720E+02  0.15623415489E+02  0.50344560333E+02  0.00000000000E+00 0.  1.
         14    1    6    6    0    0  0.13589172578E+02  0.13667467128E+03  0.78277031547E+02  0.15808834570E+03  0.00000000000E+00 0. -1.
         -5    1    3    3    0  503 -0.12516374347E+02 -0.88860006074E+02  0.15307454008E+03  0.17750116937E+03  0.47000000000E+01 0.  1.
         11    1    4    4    0    0  0.87636402349E+02 -0.11460020914E+03  0.10029675330E+03  0.17570653281E+03  0.00000000000E+00 0. -1.
        -12    1    4    4    0    0  0.57414126671E+02 -0.16050459466E+02  0.93286119696E+02  0.11070817187E+03  0.00000000000E+00 0.  1.
</event>
<event>
12    1  0.1050869E+000  0.2018888E+03  0.7818608E-02  0.1150957E+00
         21   -1    0    0  503  502  0.00000000000E+00  0.00000000000E+00  0.21264618113E+03  0.21264618113E+03  0.00000000000E+00 0.  1.
         21   -1    0    0  501  503 -0.00000000000E+00 -0.00000000000E+00 -0.18063143264E+03  0.18063143264E+03  0.00000000000E+00 0.  1.
          6    2    1    2  501    0  0.77676882870E+02 -0.65427156194E+01  0.13394262324E+01  0.20189324858E+03  0.18623260858E+03 0.  0.
         24    2    3    3    0    0  0.77540032191E+02  0.61033958600E+02 -0.25409336260E+02  0.12906322783E+03  0.79209101212E+02 0.  0.
         -6    2    1    2    0  502 -0.77676882870E+02  0.65427156194E+01  0.30675322260E+02  0.19138436519E+03  0.17207700190E+03 0.  0.
        -24    2    5    5    0    0 -0.11356526163E+03  0.11523981280E+02  0.52193396430E+02  0.14898264054E+03  0.80260860687E+02 0.  0.
          5    1    3    3  501    0  0.13685067926E+00 -0.67576674219E+02  0.26748762493E+02  0.72830020744E+02  0.47000000000E+01 0. -1.
        -13    1    4    4    0    0  0.25856989643E+02  0.57653723611E+02 -0.40578288658E+02  0.75094162689E+02  0.00000000000E+00 0.  1.
         14    1    4    4    0    0  0.51683042548E+02  0.33802349891E+01  0.15168952397E+02  0.53969065144E+02  0.00000000000E+00 0. -1.
         -5    1    5    5    0  502  0.35888378756E+02 -0.49812656608E+01 -0.21518074170E+02  0.42401724650E+02  0.47000000000E+01 0.  1.
         13    1    6    6    0    0 -0.75882866903E+02  0.81111256963E+00 -0.89003359896E+01  0.76407351569E+02  0.00000000000E+00 0. -1.
        -14    1    6    6    0    0 -0.37682394723E+02  0.10712868711E+02  0.61093732420E+02  0.72575288970E+02  0.00000000000E+00 0.  1.
</event>
<event>
12    1  0.1050869E+000  0.2247422E+03  0.7818608E-02  0.1130515E+00
         21   -1    0    0  501  502  0.00000000000E+00  0.00000000000E+00  0.83879052677E+03  0.83879052677E+03  0.00000000000E+00 0.  1.
         21   -1    0    0  502  503 -0.00000000000E+00 -0.00000000000E+00 -0.10265183849E+03  0.10265183849E+03  0.00000000000E+00 0.  1.
         -6    2    1    2    0  503 -0.14357302098E+03 -0.10764679852E+02  0.65106444240E+02  0.23398268227E+03  0.17256869888E+03 0.  0.
        -24    2    3    3    0    0 -0.53258460528E+02 -0.57178590860E+02  0.69399233117E+02  0.13224041474E+03  0.81027272344E+02 0.  0.
          6    2    1    2  501    0  0.14357302098E+03  0.10764679852E+02  0.67103224404E+03  0.70745968300E+03  0.17171441360E+03 0.  0.
         24    2    5    5    0    0  0.17849339071E+02  0.44125024600E+02  0.23145750148E+03  0.24901950033E+03  0.78565385810E+02 0.  0.
          5    1    5    5  501    0  0.12572368191E+03 -0.33360344748E+02  0.43957474256E+03  0.45844018267E+03  0.47000000000E+01 0. -1.
        -13    1    6    6    0    0  0.56093858036E+01  0.11013304035E+02  0.20379825795E+03  0.20417269166E+03  0.00000000000E+00 0.  1.
         14    1    6    6    0    0  0.12239953268E+02  0.33111720564E+02  0.27659243531E+02  0.44846808665E+02  0.00000000000E+00 0. -1.
         -5    1    3    3    0  503 -0.90314560451E+02  0.46413911008E+02 -0.42927888774E+01  0.10174226752E+03  0.47000000000E+01 0.  1.
         11    1    4    4    0    0 -0.70738561982E+02 -0.33400160592E+02  0.66341060778E+02  0.10257022582E+03  0.00000000000E+00 0. -1.
        -12    1    4    4    0    0  0.17480101454E+02 -0.23778430268E+02  0.30581723396E+01  0.29670188926E+02  0.00000000000E+00 0.  1.
</event>
<event>
12    1  0.1050869E+000  0.2218528E+03  0.7818608E-02  0.1132894E+00
         21   -1    0    0  501  502  0.00000000000E+00  0.00000000000E+00  0.11075705835E+04  0.11075705835E+04  0.00000000000E+00 0. -1.
         21   -1    0    0  502  503 -0.00000000000E+00 -0.00000000000E+00 -0.13027678467E+03  0.13027678467E+03  0.00000000000E+00 0. -1.
         -6    2    1    2    0  503 -0.10182088286E+03  0.91771434638E+02 -0.14181684849E+02  0.22230561933E+03  0.17443961649E+03 0.  0.
        -24    2    3    3    0    0 -0.72641277172E+02 -0.10489074524E+02  0.17470684682E+02  0.11125327303E+03  0.81763623351E+02 0.  0.
          6    2    1    2  501    0  0.10182088286E+03 -0.91771434638E+02  0.99147548373E+03  0.10155417489E+04  0.17179033872E+03 0.  0.
         24    2    5    5    0    0  0.55820488875E+02  0.17213948595E+02  0.47189561670E+03  0.48264478114E+03  0.82754242760E+02 0.  0.
          5    1    5    5  501    0  0.46000393981E+02 -0.10898538323E+03  0.51957986703E+03  0.53289696774E+03  0.47000000000E+01 0. -1.
        -11    1    6    6    0    0  0.32732255434E+01 -0.17930009310E+02  0.28024917090E+03  0.28084123100E+03  0.00000000000E+00 0.  1.
         12    1    6    6    0    0  0.52547263331E+02  0.35143957905E+02  0.19164644581E+03  0.20180355015E+03  0.00000000000E+00 0. -1.
         -5    1    3    3    0  503 -0.29179605684E+02  0.10226050916E+03 -0.31652369532E+02  0.11105234630E+03  0.47000000000E+01 0.  1.
         11    1    4    4    0    0 -0.83576721033E+01 -0.25113214166E+02  0.34192583273E+02  0.43239530058E+02  0.00000000000E+00 0. -1.
        -12    1    4    4    0    0 -0.64283605069E+02  0.14624139642E+02 -0.16721898591E+02  0.68013742974E+02  0.00000000000E+00 0.  1.
</event>
<event>
12    1  0.1050869E+000  0.2792719E+03  0.7818608E-02  0.1096090E+00
         21   -1    0    0  503  502  0.00000000000E+00  0.00000000000E+00  0.23984973910E+04  0.23984973910E+04  0.00000000000E+00 0.  1.
         21   -1    0    0  501  503 -0.00000000000E+00 -0.00000000000E+00 -0.44196288326E+02  0.44196288326E+02  0.00000000000E+00 0.  1.
          6    2    1    2  501    0  0.20321117069E+03 -0.82501869419E+02  0.54927939093E+03  0.61619855908E+03  0.17289151674E+03 0.  0.
         24    2    3    3    0    0  0.15274338243E+03  0.11796022784E+02  0.28635621263E+03  0.33231517138E+03  0.70454280111E+02 0.  0.
         -6    2    1    2    0  502 -0.20321117069E+03  0.82501869419E+02  0.18050217117E+04  0.18264951202E+04  0.17285747328E+03 0.  0.
        -24    2    5    5    0    0 -0.16130212017E+03 -0.88542775339E+01  0.11193586046E+04  0.11334884099E+04  0.75733199209E+02 0.  0.
          5    1    3    3  501    0  0.50467788264E+02 -0.94297892202E+02  0.26292317830E+03  0.28388338771E+03  0.47000000000E+01 0. -1.
        -13    1    4    4    0    0  0.89328234243E+02 -0.25564625860E+02  0.18537550572E+03  0.20735756955E+03  0.00000000000E+00 0.  1.
         14    1    4    4    0    0  0.63415148185E+02  0.37360648644E+02  0.10098070691E+03  0.12495760183E+03  0.00000000000E+00 0. -1.
         -5    1    5    5    0  502 -0.41909050522E+02  0.91356146952E+02  0.68566310711E+03  0.69300671032E+03  0.47000000000E+01 0.  1.
         13    1    6    6    0    0 -0.10368734493E+03  0.23739602287E+02  0.82181891564E+03  0.82867422086E+03  0.00000000000E+00 0. -1.
        -14    1    6    6    0    0 -0.57614775240E+02 -0.32593879821E+02  0.29753968898E+03  0.30481418905E+03  0.00000000000E+00 0.  1.
</event>
<event>
12    1  0.1050869E+000  0.1792234E+03  0.7818608E-02  0.1169859E+00
         21   -1    0    0  501  502  0.00000000000E+00  0.00000000000E+00  0.68352365194E+02  0.68352365194E+02  0.00000000000E+00 0. -1.
         21   -1    0    0  502  503 -0.00000000000E+00 -0.00000000000E+00 -0.58455712945E+03  0.58455712945E+03  0.00000000000E+00 0. -1.
         -6    2    1    2    0  503  0.19449065255E+02 -0.37668014975E+02 -0.10815963812E+03  0.20933112276E+03  0.17413749208E+03 0.  0.
        -24    2    3    3    0    0 -0.33817396462E+02  0.22597454189E+02 -0.89482684726E+02  0.12662585506E+03  0.79829161744E+02 0.  0.
          6    2    1    2  501    0 -0.19449065255E+02  0.37668014975E+02 -0.40804512614E+03  0.44357837188E+03  0.16871218552E+03 0.  0.
         24    2    5    5    0    0 -0.20051438339E+02 -0.43936290385E+02 -0.20718111819E+03  0.22671882011E+03  0.78389730600E+02 0.  0.
          5    1    5    5  501    0  0.60237308439E+00  0.81604305360E+02 -0.20086400795E+03  0.21685955178E+03  0.47000000000E+01 0. -1.
        -11    1    6    6    0    0 -0.41517040358E+02  0.16734334096E+01 -0.88034591867E+02  0.97347595680E+02  0.00000000000E+00 0.  1.
         12    1    6    6    0    0  0.21465602019E+02 -0.45609723795E+02 -0.11914652632E+03  0.12937122443E+03  0.00000000000E+00 0. -1.
         -5    1    3    3    0  503  0.53266461717E+02 -0.60265469164E+02 -0.18676953390E+02  0.82705267700E+02  0.47000000000E+01 0.  1.
         13    1    4    4    0    0 -0.19684621679E+02 -0.22088680671E+02 -0.49899378660E+01  0.30004893340E+02  0.00000000000E+00 0. -1.
        -14    1    4    4    0    0 -0.14132774783E+02  0.44686134860E+02 -0.84492746860E+02  0.96620961721E+02  0.00000000000E+00 0.  1.
</event>
<event>
12    1  0.1050869E+000  0.2393411E+03  0.7818608E-02  0.1120309E+00
         21   -1    0    0  501  502  0.00000000000E+00  0.00000000000E+00  0.40712463160E+03  0.40712463160E+03  0.00000000000E+00 0.  1.
         21   -1    0    0  502  503 -0.00000000000E+00 -0.00000000000E+00 -0.14107066713E+03  0.14107066713E+03  0.00000000000E+00 0.  1.
         -6    2    1    2    0  503  0.16323330035E+03  0.31767216045E+02  0.15130125452E+03  0.28276668483E+03  0.17149537041E+03 0.  0.
        -24    2    3    3    0    0  0.96889446609E+02  0.13552605035E+02  0.12000240608E+02  0.12733135596E+03  0.80610362047E+02 0.  0.
          6    2    1    2  501    0 -0.16323330035E+03 -0.31767216045E+02  0.11475270995E+03  0.26542861390E+03  0.17213337352E+03 0.  0.
         24    2    5    5    0    0 -0.16208310215E+03  0.92480357291E+01  0.48502106290E+02  0.18735937336E+03  0.79966382336E+02 0.  0.
          5    1    5    5  501    0 -0.11501981963E+01 -0.41015251774E+02  0.66250603657E+02  0.78069240543E+02  0.47000000000E+01 0. -1.
        -13    1    6    6    0    0 -0.20749465821E+00 -0.14826278461E+02  0.13390655623E+02  0.19979270383E+02  0.00000000000E+00 0.  1.
         14    1    6    6    0    0 -0.16187560749E+03  0.24074314190E+02  0.35111450667E+02  0.16738010298E+03  0.00000000000E+00 0. -1.
         -5    1    3    3    0  503  0.66343853738E+02  0.18214611010E+02  0.13930101391E+03  0.15543532886E+03  0.47000000000E+01 0.  1.
         11    1    4    4    0    0  0.93111168861E+02 -0.13584698672E+01  0.35152347409E+02  0.99535032704E+02  0.00000000000E+00 0. -1.
        -12    1    4    4    0    0  0.37782777482E+01  0.14911074902E+02 -0.23152106800E+02  0.27796323260E+02  0.00000000000E+00 0.  1.
</event>
<event>
12    1  0.1050869E+000  0.1804683E+03  0.7818608E-02  0.1167494E+00
         21   -1    0    0  501  502  0.00000000000E+00  0.00000000000E+00  0.22556287491E+04  0.22556287491E+04  0.00000000000E+00 0.  1.
         21   -1    0    0  502  503 -0.00000000000E+00 -0.00000000000E+00 -0.15312323221E+02  0.15312323221E+02  0.00000000000E+00 0.  1.
         -6    2    1    2    0  503  0.49321887499E+02  0.16908832882E+02  0.14003674503E+04  0.14119482311E+04  0.17277226093E+03 0.  0.
        -24    2    3    3    0    0 -0.16251056458E+02  0.59479394934E+02  0.90496647787E+03  0.91039436834E+03  0.77792574087E+02 0.  0.
          6    2    1    2  501    0 -0.49321887499E+02 -0.16908832882E+02  0.83994897560E+03  0.85899284127E+03  0.17215069715E+03 0.  0.
         24    2    5    5    0    0 -0.77259234434E+02  0.79759585237E+01  0.34680146857E+03  0.36440583994E+03  0.80546585028E+02 0.  0.
          5    1    5    5  501    0  0.27937346935E+02 -0.24884791406E+02  0.49314750702E+03  0.49458700133E+03  0.47000000000E+01 0. -1.
        -13    1    6    6    0    0 -0.59036850108E+02  0.39495944848E+02  0.27332491473E+03  0.28240359123E+03  0.00000000000E+00 0.  1.
         14    1    6    6    0    0 -0.18222384326E+02 -0.31519986325E+02  0.73476553849E+02  0.82002248712E+02  0.00000000000E+00 0. -1.
         -5    1    3    3    0  503  0.65572943957E+02 -0.42570562052E+02  0.49540097242E+03  0.50155386272E+03  0.47000000000E+01 0.  1.
         13    1    4    4    0    0  0.11684478781E+02  0.42151370386E+02  0.20302030270E+03  0.20767885877E+03  0.00000000000E+00 0. -1.
        -14    1    4    4    0    0 -0.27935535239E+02  0.17328024548E+02  0.70194617516E+03  0.70271550957E+03  0.00000000000E+00 0.  1.
</event>
<event>
12    1  0.1050869E+000  0.2309526E+03  0.7818608E-02  0.1126042E+00
         21   -1    0    0  503  502  0.00000000000E+00  0.00000000000E+00  0.43322388364E+03  0.43322388364E+03  0.00000000000E+00 0.  1.
         21   -1    0    0  501  503 -0.00000000000E+00 -0.00000000000E+00 -0.15886717420E+03  0.15886717420E+03  0.00000000000E+00 0. -1.
          6    2    1    2  501    0 -0.15216251131E+03  0.23435250994E+02 -0.37662945975E+01  0.23057822057E+03  0.17160853705E+03 0.  0.
         24    2    3    3    0    0 -0.11332376410E+03 -0.31894201094E+02  0.41610885513E+02  0.14902471036E+03  0.81347298241E+02 0.  0.
         -6    2    1    2    0  502  0.15216251131E+03 -0.23435250994E+02  0.27812300404E+03  0.36151283727E+03  0.17215250594E+03 0.  0.
        -24    2    5    5    0    0  0.18043164336E+03 -0.80863866025E+01  0.23147546655E+03  0.30465499509E+03  0.81319166515E+02 0.  0.
          5    1    3    3  501    0 -0.38838747212E+02  0.55329452088E+02 -0.45377180110E+02  0.81553510213E+02  0.47000000000E+01 0. -1.
        -13    1    4    4    0    0 -0.30830827872E+02 -0.27319402819E+02  0.51352280000E+02  0.65832715111E+02  0.00000000000E+00 0.  1.
         14    1    4    4    0    0 -0.82492936225E+02 -0.45747982753E+01 -0.97413944878E+01  0.83191995245E+02  0.00000000000E+00 0. -1.
         -5    1    5    5    0  502 -0.28269132048E+02 -0.15348864392E+02  0.46647537486E+02  0.56857842189E+02  0.47000000000E+01 0.  1.
         13    1    6    6    0    0  0.80134968227E+02 -0.28331258588E+02  0.15549802058E+03  0.17721147748E+03  0.00000000000E+00 0. -1.
        -14    1    6    6    0    0  0.10029667513E+03  0.20244871986E+02  0.75977445974E+02  0.12744351761E+03  0.00000000000E+00 0.  1.
</event>
<event>
12    1  0.1050869E+000  0.1944695E+03  0.7818608E-02  0.1154602E+00
         21   -1    0    0  501  502  0.00000000000E+00  0.00000000000E+00  0.32377941633E+03  0.32377941633E+03  0.00000000000E+00 0.  1.
         21   -1    0    0  502  503 -0.00000000000E+00 -0.00000000000E+00 -0.16513836257E+03  0.16513836257E+03  0.00000000000E+00 0.  1.
         -6    2    1    2    0  503  0.72199773532E+02  0.55284751206E+02 -0.53276845908E+02  0.20163529853E+03  0.17189869194E+03 0.  0.
        -24    2    3    3    0    0  0.10291061589E+03  0.13063134230E+02 -0.12553043212E+02  0.13525503878E+03  0.85878438998E+02 0.  0.
          6    2    1    2  501    0 -0.72199773532E+02 -0.55284751206E+02  0.21191789967E+03  0.28728248037E+03  0.17132663633E+03 0.  0.
         24    2    5    5    0    0 -0.84401137008E+02 -0.73098105299E+02  0.22341324344E+03  0.26237421301E+03  0.80373287724E+02 0.  0.
          5    1    5    5  501    0  0.12201363476E+02  0.17813354093E+02 -0.11495343773E+02  0.24908267366E+02  0.47000000000E+01 0. -1.
        -13    1    6    6    0    0  0.80735359131E+01  0.60955384412E+01  0.46678248018E+02  0.47761871917E+02  0.00000000000E+00 0.  1.
         14    1    6    6    0    0 -0.92474672922E+02 -0.79193643740E+02  0.17673499542E+03  0.21461234109E+03  0.00000000000E+00 0. -1.
         -5    1    3    3    0  503 -0.30710842354E+02  0.42221616976E+02 -0.40723802697E+02  0.66380259749E+02  0.47000000000E+01 0.  1.
         13    1    4    4    0    0  0.28468768498E+02  0.24684555712E+02 -0.40107524267E+02  0.55031005564E+02  0.00000000000E+00 0. -1.
        -14    1    4    4    0    0  0.74441847389E+02 -0.11621421483E+02  0.27554481056E+02  0.80224033221E+02  0.00000000000E+00 0.  1.
</event>
<event>
12    1  0.1050869E+000  0.5598137E+03  0.7818608E-02  0.9992494E-01
         21   -1    0    0  503  502  0.00000000000E+00  0.00000000000E+00  0.67665428887E+03  0.67665428887E+03  0.00000000000E+00 0.  1.
         21   -1    0    0  501  503 -0.00000000000E+00 -0.00000000000E+00 -0.51040368735E+03  0.51040368735E+03  0.00000000000E+00 0.  1.
          6    2    1    2  501    0 -0.49010787712E+03 -0.20913728889E+03  0.26376838305E+03  0.61881410078E+03  0.17150217085E+03 0.  0.
         24    2    3    3    0    0 -0.22481933988E+03 -0.67489627369E+02  0.18041208420E+03  0.30670445568E+03  0.80128132521E+02 0.  0.
         -6    2    1    2    0  502  0.49010787712E+03  0.20913728889E+03 -0.97517781533E+02  0.56824387544E+03  0.17160200304E+03 0.  0.
        -24    2    5    5    0    0  0.49449230117E+03  0.21446359207E+03 -0.83689829758E+02  0.55209163318E+03  0.85345858649E+02 0.  0.
          5    1    3    3  501    0 -0.26528853724E+03 -0.14164766153E+03  0.83356298846E+02  0.31210964510E+03  0.47000000000E+01 0. -1.
        -13    1    4    4    0    0 -0.46757493361E+02 -0.50749306450E+02  0.45079166757E+02  0.82425036039E+02  0.00000000000E+00 0.  1.
         14    1    4    4    0    0 -0.17806184652E+03 -0.16740320919E+02  0.13533291744E+03  0.22427941964E+03  0.00000000000E+00 0. -1.
         -5    1    5    5    0  502 -0.43844240476E+01 -0.53263031800E+01 -0.13827951774E+02  0.16152242261E+02  0.47000000000E+01 0.  1.
         11    1    6    6    0    0  0.42430285435E+03  0.20238004655E+03 -0.48327567924E+02  0.47257396169E+03  0.00000000000E+00 0. -1.
        -12    1    6    6    0    0  0.70189446820E+02  0.12083545522E+02 -0.35362261834E+02  0.79517671491E+02  0.00000000000E+00 0.  1.
</event>
<event>
12    1  0.1050869E+000  0.4282038E+03  0.7818608E-02  0.1034431E+00
         21   -1    0    0  503  502  0.00000000000E+00  0.00000000000E+00  0.95617001135E+03  0.95617001135E+03  0.00000000000E+00 0.  1.
         21   -1    0    0  501  503 -0.00000000000E+00 -0.00000000000E+00 -0.20095620648E+03  0.20095620648E+03  0.00000000000E+00 0.  1.
          6    2    1    2  501    0  0.76719249113E+02  0.38443951840E+03  0.50140718930E+03  0.65935493509E+03  0.17222129499E+03 0.  0.
         24    2    3    3    0    0  0.11101552575E+03  0.28028654619E+03  0.39224757615E+03  0.50455833513E+03  0.99176396548E+02 0.  0.
         -6    2    1    2    0  502 -0.76719249113E+02 -0.38443951840E+03  0.25380661556E+03  0.49777128274E+03  0.17227555058E+03 0.  0.
        -24    2    5    5    0    0 -0.64257789680E+02 -0.13384160735E+03  0.15106663483E+03  0.22660307915E+03  0.80530664542E+02 0.  0.
          5    1    3    3  501    0 -0.34296276634E+02  0.10415297222E+03  0.10915961316E+03  0.15479659995E+03  0.47000000000E+01 0. -1.
        -11    1    4    4    0    0  0.78048797303E+02  0.79694260654E+02  0.10942096078E+03  0.15625535702E+03  0.00000000000E+00 0.  1.
         12    1    4    4    0    0  0.32966728444E+02  0.20059228553E+03  0.28282661537E+03  0.34830297811E+03  0.00000000000E+00 0. -1.
         -5    1    5    5    0  502 -0.12461459433E+02 -0.25059791106E+03  0.10273998073E+03  0.27116820359E+03  0.47000000000E+01 0.  1.
         11    1    6    6    0    0 -0.42619646088E+02 -0.14004385511E+03  0.13023588621E+03  0.19593392163E+03  0.00000000000E+00 0. -1.
        -12    1    6    6    0    0 -0.21638143592E+02  0.62022477634E+01  0.20830748619E+02  0.30669157527E+02  0.00000000000E+00 0.  1.
</event>
<event>
12    1  0.1050869E+000  0.3171221E+03  0.7818608E-02  0.1077181E+00
         21   -1    0    0  503  502  0.00000000000E+00  0.00000000000E+00  0.54349542529E+03  0.54349542529E+03  0.00000000000E+00 0.  1.
         21   -1    0    0  501  503 -0.00000000000E+00 -0.00000000000E+00 -0.19231325796E+03  0.19231325796E+03  0.00000000000E+00 0.  1.
          6    2    1    2  501    0 -0.17632138559E+03 -0.19820240514E+03  0.25144178267E+03  0.40337135535E+03  0.17062255368E+03 0.  0.
         24    2    3    3    0    0 -0.18331044882E+03 -0.16617128165E+03  0.15742367181E+03  0.30369018839E+03  0.78929731971E+02 0.  0.
         -6    2    1    2    0  502  0.17632138559E+03  0.19820240514E+03  0.99740384658E+02  0.33243732791E+03  0.17376135426E+03 0.  0.
        -24    2    5    5    0    0  0.17224146820E+02  0.66276776209E+02  0.34431911589E+01  0.10437693584E+03  0.78698201198E+02 0.  0.
          5    1    3    3  501    0  0.69890632256E+01 -0.32031123494E+02  0.94018110858E+02  0.99681166960E+02  0.47000000000E+01 0. -1.
        -11    1    4    4    0    0 -0.36247379734E+02 -0.83419317160E+02  0.54571962338E+02  0.10606957192E+03  0.00000000000E+00 0.  1.
         12    1    4    4    0    0 -0.14706306908E+03 -0.82751964486E+02  0.10285170947E+03  0.19762061647E+03  0.00000000000E+00 0. -1.
         -5    1    5    5    0  502  0.15909723877E+03  0.13192562893E+03  0.96297193499E+02  0.22806039207E+03  0.47000000000E+01 0.  1.
         13    1    6    6    0    0  0.39356110666E+02  0.71043550174E+02 -0.13859788547E+01  0.81228138016E+02  0.00000000000E+00 0. -1.
        -14    1    6    6    0    0 -0.22131963846E+02 -0.47667739655E+01  0.48291700136E+01  0.23148797825E+02  0.00000000000E+00 0.  1.
</event>
<event>
12    1  0.1050869E+000  0.4928762E+03  0.7818608E-02  0.1015659E+00
         21   -1    0    0  503  502  0.00000000000E+00  0.00000000000E+00  0.99541899327E+03  0.99541899327E+03  0.00000000000E+00 0.  1.
         21   -1    0    0  501  503 -0.00000000000E+00 -0.00000000000E+00 -0.24462164970E+03  0.24462164970E+03  0.00000000000E+00 0.  1.
          6    2    1    2  501    0 -0.35232113275E+03 -0.29867898117E+03  0.34461848474E+03  0.60140570220E+03  0.17201047710E+03 0.  0.
         24    2    3    3    0    0 -0.65006719714E+02 -0.77545360187E+02  0.77441794374E+02  0.15101129266E+03  0.81043337171E+02 0.  0.
         -6    2    1    2    0  502  0.35232113275E+03  0.29867898117E+03  0.40617885882E+03  0.63863494077E+03  0.17185461252E+03 0.  0.
        -24    2    5    5    0    0  0.35691282130E+03  0.30499200328E+03  0.41019192869E+03  0.62867840616E+03  0.81069327993E+02 0.  0.
          5    1    3    3  501    0 -0.28731441303E+03 -0.22113362099E+03  0.26717669037E+03  0.45039440954E+03  0.47000000000E+01 0. -1.
        -11    1    4    4    0    0 -0.50768694643E+02 -0.12459178493E+02  0.48811967184E+01  0.52502548185E+02  0.00000000000E+00 0.  1.
         12    1    4    4    0    0 -0.14238025070E+02 -0.65086181694E+02  0.72560597655E+02  0.98508744473E+02  0.00000000000E+00 0. -1.
         -5    1    5    5    0  502 -0.45916885467E+01 -0.63130221044E+01 -0.40130698627E+01  0.99565346142E+01  0.47000000000E+01 0.  1.
         11    1    6    6    0    0  0.18539328380E+03  0.16223931472E+03  0.16165263556E+03  0.29465885275E+03  0.00000000000E+00 0. -1.
        -12    1    6    6    0    0  0.17151953750E+03  0.14275268856E+03  0.24853929312E+03  0.33401955341E+03  0.00000000000E+00 0.  1.
</event>
<event>
12    1  0.1050869E+000  0.1828386E+03  0.7818608E-02  0.1167103E+00
         21   -1    0    0  503  502  0.00000000000E+00  0.00000000000E+00  0.11740222643E+03  0.11740222643E+03  0.00000000000E+00 0.  1.
         21   -1    0    0  501  503 -0.00000000000E+00 -0.00000000000E+00 -0.28686040421E+03  0.28686040421E+03  0.00000000000E+00 0.  1.
          6    2    1    2  501    0 -0.14366173305E+01  0.64305090998E+02 -0.13265682056E+03  0.22589327133E+03  0.17115118870E+03 0.  0.
         24    2    3    3    0    0  0.21176743347E+02 -0.17318763569E+02 -0.22389920495E+02  0.86772112027E+02  0.79244538333E+02 0.  0.
         -6    2    1    2    0  502  0.14366173305E+01 -0.64305090998E+02 -0.36801357219E+02  0.17836935931E+03  0.16224697177E+03 0.  0.
        -24    2    5    5    0    0  0.14978340640E+01 -0.23156112831E+00  0.30276636272E+02  0.85487885440E+02  0.79932513570E+02 0.  0.
          5    1    3    3  501    0 -0.22613360677E+02  0.81623854567E+02 -0.11026690007E+03  0.13912115930E+03  0.47000000000E+01 0. -1.
        -13    1    4    4    0    0 -0.24932278722E+02 -0.70036823431E+00 -0.27932027923E+02  0.37447392724E+02  0.00000000000E+00 0.  1.
         14    1    4    4    0    0  0.46109022068E+02 -0.16618395335E+02  0.55421074277E+01  0.49324719303E+02  0.00000000000E+00 0. -1.
         -5    1    5    5    0  502 -0.61216733578E-01 -0.64073529870E+02 -0.67077993491E+02  0.92881473870E+02  0.47000000000E+01 0.  1.
         11    1    6    6    0    0  0.37842344658E+02 -0.41543860088E+01  0.74558731933E-01  0.38069771885E+02  0.00000000000E+00 0. -1.
        -12    1    6    6    0    0 -0.36344510594E+02  0.39228248805E+01  0.30202077540E+02  0.47418113555E+02  0.00000000000E+00 0.  1.
</event>
<event>
12    1  0.1050869E+000  0.3397515E+03  0.7818608E-02  0.1066984E+00
         21   -1    0    0  503  502  0.00000000000E+00  0.00000000000E+00  0.17272124812E+04  0.17272124812E+04  0.00000000000E+00 0. -1.
         21   -1    0    0  501  503 -0.00000000000E+00 -0.00000000000E+00 -0.77112203711E+02  0.77112203711E+02  0.00000000000E+00 0. -1.
          6    2    1    2  501    0  0.28554312342E+03 -0.68127649906E+02  0.11560806780E+04  0.12047528130E+04  0.16950089811E+03 0.  0.
         24    2    3    3    0    0  0.85815796894E+02 -0.58183141508E+02  0.32207895658E+03  0.34709853564E+03  0.77413889052E+02 0.  0.
         -6    2    1    2    0  502 -0.28554312342E+03  0.68127649906E+02  0.49401959946E+03  0.59957187184E+03  0.17104038367E+03 0.  0.
        -24    2    5    5    0    0 -0.70152125916E+02 -0.16437206985E+02  0.16223782846E+03  0.19504037691E+03  0.80796863170E+02 0.  0.
          5    1    3    3  501    0  0.19972732652E+03 -0.99445083982E+01  0.83400172141E+03  0.85765427738E+03  0.47000000000E+01 0. -1.
        -13    1    4    4    0    0  0.87852402745E+02 -0.46226489687E+02  0.31967428265E+03  0.33473359557E+03  0.00000000000E+00 0.  1.
         14    1    4    4    0    0 -0.20366058511E+01 -0.11956651821E+02  0.24046739320E+01  0.12364940068E+02  0.00000000000E+00 0. -1.
         -5    1    5    5    0  502 -0.21539099750E+03  0.84564856891E+02  0.33178177099E+03  0.40453149493E+03  0.47000000000E+01 0.  1.
         13    1    6    6    0    0 -0.35747681866E+02  0.21919130789E+01  0.14974731590E+03  0.15397064610E+03  0.00000000000E+00 0. -1.
        -14    1    6    6    0    0 -0.34404444050E+02 -0.18629120064E+02  0.12490512561E+02  0.41069730810E+02  0.00000000000E+00 0.  1.
</event>
<event>
12    1  0.1050869E+000  0.2309958E+03  0.7818608E-02  0.1125991E+00
         21   -1    0    0  503  502  0.00000000000E+00  0.00000000000E+00  0.10639783756E+03  0.10639783756E+03  0.00000000000E+00 0.  1.
         21   -1    0    0  501  503 -0.00000000000E+00 -0.00000000000E+00 -0.52170601705E+03  0.52170601705E+03  0.00000000000E+00 0. -1.
          6    2    1    2  501    0 -0.78500190538E+02 -0.13227575228E+03 -0.27051087462E+03  0.35571785663E+03  0.17233660574E+03 0.  0.
         24    2    3    3    0    0 -0.79373318948E+02 -0.12079459785E+03 -0.11134006212E+03  0.19606192403E+03  0.71778896564E+02 0.  0.
         -6    2    1    2    0  502  0.78500190538E+02  0.13227575228E+03 -0.14479730486E+03  0.27238599798E+03  0.17195556938E+03 0.  0.
        -24    2    5    5    0    0  0.48322178158E+02  0.16065529352E+03 -0.13439318348E+03  0.22941569970E+03  0.80155344577E+02 0.  0.
          5    1    3    3  501    0  0.87312841054E+00 -0.11481154431E+02 -0.15917081250E+03  0.15965593260E+03  0.47000000000E+01 0. -1.
        -13    1    4    4    0    0 -0.61031488993E+02 -0.12201475892E+03 -0.11361277660E+03  0.17753959291E+03  0.00000000000E+00 0.  1.
         14    1    4    4    0    0 -0.18341829955E+02  0.12201610736E+01  0.22727144790E+01  0.18522331123E+02  0.00000000000E+00 0. -1.
         -5    1    5    5    0  502  0.30178012379E+02 -0.28379541241E+02 -0.10404121381E+02  0.42970298276E+02  0.47000000000E+01 0.  1.
         13    1    6    6    0    0 -0.57398408831E+01 -0.16409970637E+00  0.66478415985E+01  0.87844464821E+01  0.00000000000E+00 0. -1.
        -14    1    6    6    0    0  0.54062019042E+02  0.16081939323E+03 -0.14104102508E+03  0.22063125322E+03  0.00000000000E+00 0.  1.
</event>
<event>
12    1  0.1050869E+000  0.2265951E+03  0.7818608E-02  0.1129793E+00
         21   -1    0    0  503  502  0.00000000000E+00  0.00000000000E+00  0.28391255904E+03  0.28391255904E+03  0.00000000000E+00 0.  1.
         21   -1    0    0  501  503 -0.00000000000E+00 -0.00000000000E+00 -0.51196520531E+03  0.51196520531E+03  0.00000000000E+00 0.  1.
          6    2    1    2  501    0 -0.13192861150E+03  0.45478780974E+02 -0.43595651938E+03  0.49132824680E+03  0.17852697628E+03 0.  0.
         24    2    3    3    0    0 -0.37414073019E+02  0.88250275512E+02 -0.22348282959E+03  0.25483393908E+03  0.76209168724E+02 0.  0.
         -6    2    1    2    0  502  0.13192861150E+03 -0.45478780974E+02  0.20790387311E+03  0.30454951756E+03  0.17335775188E+03 0.  0.
        -24    2    5    5    0    0  0.10791070000E+03 -0.15663484548E+02  0.22504899366E+03  0.26233746794E+03  0.79270635264E+02 0.  0.
          5    1    3    3  501    0 -0.94514538482E+02 -0.42771494539E+02 -0.21247368979E+03  0.23649430772E+03  0.47000000000E+01 0. -1.
        -13    1    4    4    0    0 -0.70204549691E+01 -0.94078098614E+01 -0.66117416372E+02  0.67151369473E+02  0.00000000000E+00 0.  1.
         14    1    4    4    0    0 -0.30393618050E+02  0.97658085374E+02 -0.15736541321E+03  0.18768256960E+03  0.00000000000E+00 0. -1.
         -5    1    5    5    0  502  0.24017911505E+02 -0.29815296426E+02 -0.17145120552E+02  0.42212049616E+02  0.47000000000E+01 0.  1.
         13    1    6    6    0    0  0.33743629898E+02 -0.43387850446E+02  0.79600393723E+02  0.96733452362E+02  0.00000000000E+00 0. -1.
        -14    1    6    6    0    0  0.74167070098E+02  0.27724365898E+02  0.14544859994E+03  0.16560401558E+03  0.00000000000E+00 0.  1.
</event>
<event>
12    1  0.1050869E+000  0.2523314E+03  0.7818608E-02  0.1112684E+00
         21   -1    0    0  503  502  0.00000000000E+00  0.00000000000E+00  0.51034681747E+03  0.51034681747E+03  0.00000000000E+00 0.  1.
         21   -1    0    0  501  503 -0.00000000000E+00 -0.00000000000E+00 -0.12219219471E+03  0.12219219471E+03  0.00000000000E+00 0.  1.
          6    2    1    2  501    0 -0.27551089361E+02 -0.18218299915E+03  0.18500937566E+03  0.30859590099E+03  0.16447873212E+03 0.  0.
         24    2    3    3    0    0 -0.35831905121E+02 -0.20305211091E+03  0.15154451526E+03  0.26802400657E+03  0.79731065618E+02 0.  0.
         -6    2    1    2    0  502  0.27551089361E+02  0.18218299915E+03  0.20314524710E+03  0.32394311120E+03  0.17239907240E+03 0.  0.
        -24    2    5    5    0    0 -0.47015953044E+02  0.12953631358E+03  0.11076636285E+03  0.19398979046E+03  0.79829163138E+02 0.  0.
          5    1    3    3  501    0  0.82808157602E+01  0.20869111754E+02  0.33464860399E+02  0.40571894417E+02  0.47000000000E+01 0. -1.
        -13    1    4    4    0    0  0.22459431358E+02 -0.67807411413E+02  0.31687663815E+02  0.78143324332E+02  0.00000000000E+00 0.  1.
         14    1    4    4    0    0 -0.58291336479E+02 -0.13524469950E+03  0.11985685144E+03  0.18988068224E+03  0.00000000000E+00 0. -1.
         -5    1    5    5    0  502  0.74567042405E+02  0.52646685578E+02  0.92378884251E+02  0.12995332074E+03  0.47000000000E+01 0.  1.
         13    1    6    6    0    0  0.87943405724E+01  0.36584604610E+02 -0.18413874521E+01  0.37671798847E+02  0.00000000000E+00 0. -1.
        -14    1    6    6    0    0 -0.55810293616E+02  0.92951708967E+02  0.11260775030E+03  0.15631799161E+03  0.00000000000E+00 0.  1.
</event>
<event>
12    1  0.1050869E+000  0.2235932E+03  0.7818608E-02  0.1131301E+00
         21   -1    0    0  503  502  0.00000000000E+00  0.00000000000E+00  0.53393988225E+03  0.53393988225E+03  0.00000000000E+00 0. -1.
         21   -1    0    0  501  503 -0.00000000000E+00 -0.00000000000E+00 -0.95177606956E+02  0.95177606956E+02  0.00000000000E+00 0.  1.
          6    2    1    2  501    0 -0.14232873500E+03  0.32548977001E+01  0.26128368668E+03  0.34364846616E+03  0.17192161064E+03 0.  0.
         24    2    3    3    0    0 -0.17401482280E+02 -0.12823271486E+02  0.45853418855E+02  0.94053561783E+02  0.79223030656E+02 0.  0.
         -6    2    1    2    0  502  0.14232873500E+03 -0.32548977001E+01  0.17747858862E+03  0.28546902305E+03  0.17241186310E+03 0.  0.
        -24    2    5    5    0    0  0.10287687712E+03 -0.45152345504E+02  0.52620056623E+02  0.14790598937E+03  0.80529033165E+02 0.  0.
          5    1    3    3  501    0 -0.12492725272E+03  0.16078169186E+02  0.21543026782E+03  0.24959490438E+03  0.47000000000E+01 0. -1.
        -13    1    4    4    0    0 -0.21786936718E+02  0.28188271900E+02  0.49564513690E+01  0.35969649629E+02  0.00000000000E+00 0.  1.
         14    1    4    4    0    0  0.43854544388E+01 -0.41011543386E+02  0.40896967486E+02  0.58083912154E+02  0.00000000000E+00 0. -1.
         -5    1    5    5    0  502  0.39451857876E+02  0.41897447804E+02  0.12485853199E+03  0.13756303367E+03  0.47000000000E+01 0.  1.
         11    1    6    6    0    0 -0.20011467419E+01 -0.15210994286E+02  0.33944207625E+02  0.37250344519E+02  0.00000000000E+00 0. -1.
        -12    1    6    6    0    0  0.10487802386E+03 -0.29941351217E+02  0.18675848998E+02  0.11065564485E+03  0.00000000000E+00 0.  1.
</event>
<event>
12    1  0.1050869E+000  0.2460557E+03  0.7818608E-02  0.1116961E+00
         21   -1    0    0  501  502  0.00000000000E+00  0.00000000000E+00  0.99912157484E+03  0.99912157484E+03  0.00000000000E+00 0. -1.
         21   -1    0    0  502  503 -0.00000000000E+00 -0.00000000000E+00 -0.85828906008E+02  0.85828906008E+02  0.00000000000E+00 0.  1.
         -6    2    1    2    0  503  0.13677671765E+03  0.92011575871E+02  0.75600806456E+03  0.79291992006E+03  0.17320451888E+03 0.  0.
        -24    2    3    3    0    0  0.78602245164E+02  0.94484931742E+02  0.68769217708E+03  0.70303367405E+03  0.78930989879E+02 0.  0.
          6    2    1    2  501    0 -0.13677671765E+03 -0.92011575871E+02  0.15728460427E+03  0.29203056079E+03  0.18267293479E+03 0.  0.
         24    2    5    5    0    0 -0.10845348658E+03 -0.61710740368E+02  0.21088744184E+02  0.14958145284E+03  0.79746483765E+02 0.  0.
          5    1    5    5  501    0 -0.28323231070E+02 -0.30300835503E+02  0.13619586009E+03  0.14244910795E+03  0.47000000000E+01 0. -1.
        -11    1    6    6    0    0 -0.38916200479E+02 -0.53590942447E+02 -0.19005868158E+02  0.68903430949E+02  0.00000000000E+00 0.  1.
         12    1    6    6    0    0 -0.69537286106E+02 -0.81197979218E+01  0.40094612342E+02  0.80678021891E+02  0.00000000000E+00 0. -1.
         -5    1    3    3    0  503  0.58174472491E+02 -0.24733558709E+01  0.68315887475E+02  0.89886246002E+02  0.47000000000E+01 0.  1.
         13    1    4    4    0    0  0.71958019451E+02  0.10784980061E+03  0.64216366718E+03  0.65512114262E+03  0.00000000000E+00 0. -1.
        -14    1    4    4    0    0  0.66442257124E+01 -0.13364868864E+02  0.45528509899E+02  0.47912531437E+02  0.00000000000E+00 0.  1.
</event>
<event>
12    1  0.1050869E+000  0.2320976E+03  0.7818608E-02  0.1125191E+00
         21   -1    0    0  503  502  0.00000000000E+00  0.00000000000E+00  0.14788706260E+04  0.14788706260E+04  0.00000000000E+00 0. -1.
         21   -1    0    0  501  503 -0.00000000000E+00 -0.00000000000E+00 -0.36411398651E+02  0.36411398651E+02  0.00000000000E+00 0. -1.
          6    2    1    2  501    0  0.30890530871E+02 -0.15297530786E+03  0.72784296650E+03  0.76395331339E+03  0.17179526024E+03 0.  0.
         24    2    3    3    0    0 -0.42905370989E+01 -0.87248524886E+01  0.31932755736E+03  0.32926626398E+03  0.79697251808E+02 0.  0.
         -6    2    1    2    0  502 -0.30890530871E+02  0.15297530786E+03  0.71461626090E+03  0.75132871131E+03  0.17164720328E+03 0.  0.
        -24    2    5    5    0    0  0.26768076184E+02  0.78775974175E+02  0.54809048479E+03  0.56006193376E+03  0.79649269437E+02 0.  0.
          5    1    3    3  501    0  0.35181067970E+02 -0.14425045537E+03  0.40851540914E+03  0.43468704941E+03  0.47000000000E+01 0. -1.
        -13    1    4    4    0    0  0.26212203849E+02 -0.32399135130E+02  0.16479545384E+03  0.16998330858E+03  0.00000000000E+00 0.  1.
         14    1    4    4    0    0 -0.30502740948E+02  0.23674282642E+02  0.15453210352E+03  0.15928295540E+03  0.00000000000E+00 0. -1.
         -5    1    5    5    0  502 -0.57658607055E+02  0.74199333683E+02  0.16652577611E+03  0.19126677755E+03  0.47000000000E+01 0.  1.
         13    1    6    6    0    0 -0.15508023253E+01 -0.20272755765E+01  0.24754068949E+03  0.24755384826E+03  0.00000000000E+00 0. -1.
        -14    1    6    6    0    0  0.28318878509E+02  0.80803249751E+02  0.30054979530E+03  0.31250808550E+03  0.00000000000E+00 0.  1.
</event>
<event>
12    1  0.1050869E+000  0.2598294E+03  0.7818608E-02  0.1107309E+00
         21   -1    0    0  501  502  0.00000000000E+00  0.00000000000E+00  0.18481645922E+03  0.18481645922E+03  0.00000000000E+00 0. -1.
         21   -1    0    0  502  503 -0.00000000000E+00 -0.00000000000E+00 -0.45068376670E+03  0.45068376670E+03  0.00000000000E+00 0. -1.
         -6    2    1    2    0  503  0.16668843349E+03 -0.98908513760E+02  0.57709611083E+01  0.25989346941E+03  0.17304156580E+03 0.  0.
        -24    2    3    3    0    0  0.85916461088E+02 -0.11153851533E+01  0.47594685886E+02  0.12625619361E+03  0.79325216229E+02 0.  0.
          6    2    1    2  501    0 -0.16668843349E+03  0.98908513760E+02 -0.27163826859E+03  0.37560675652E+03  0.17240985652E+03 0.  0.
         24    2    5    5    0    0 -0.15569846472E+03  0.13448869209E+02 -0.20005333326E+03  0.26348796582E+03  0.70581073866E+02 0.  0.
          5    1    5    5  501    0 -0.10989968774E+02  0.85459644551E+02 -0.71584935327E+02  0.11211879069E+03  0.47000000000E+01 0. -1.
        -11    1    6    6    0    0 -0.13112429462E+03  0.38097325176E+02 -0.16338400455E+03  0.21293031669E+03  0.00000000000E+00 0.  1.
         12    1    6    6    0    0 -0.24574170095E+02 -0.24648455967E+02 -0.36669328714E+02  0.50557649132E+02  0.00000000000E+00 0. -1.
         -5    1    3    3    0  503  0.80771972401E+02 -0.97793128607E+02 -0.41823724778E+02  0.13363727580E+03  0.47000000000E+01 0.  1.
         13    1    4    4    0    0  0.83952602873E+01 -0.31383413574E+02  0.53406867606E+01  0.32922970369E+02  0.00000000000E+00 0. -1.
        -14    1    4    4    0    0  0.77521200801E+02  0.30268028420E+02  0.42253999126E+02  0.93333223239E+02  0.00000000000E+00 0.  1.
</event>
<event>
12    1  0.1050869E+000  0.2282269E+03  0.7818608E-02  0.1127990E+00
         21   -1    0    0  503  502  0.00000000000E+00  0.00000000000E+00  0.88318392016E+03  0.88318392016E+03  0.00000000000E+00 0. -1.
         21   -1    0    0  501  503 -0.00000000000E+00 -0.00000000000E+00 -0.64458296623E+02  0.64458296623E+02  0.00000000000E+00 0. -1.
          6    2    1    2  501    0 -0.55771293022E+02 -0.14004541031E+03  0.26989151834E+03  0.35345291247E+03  0.17136036761E+03 0.  0.
         24    2    3    3    0    0  0.25845210912E+02 -0.74891438954E+02  0.19362877209E+03  0.22405279592E+03  0.80192589571E+02 0.  0.
         -6    2    1    2    0  502  0.55771293022E+02  0.14004541031E+03  0.54883410520E+03  0.59418930431E+03  0.17064260973E+03 0.  0.
        -24    2    5    5    0    0  0.16625769224E+02  0.13922025344E+03  0.52250699070E+03  0.54677348548E+03  0.79303177301E+02 0.  0.
          5    1    3    3  501    0 -0.81616503934E+02 -0.65153971359E+02  0.76262746250E+02  0.12940011655E+03  0.47000000000E+01 0. -1.
        -11    1    4    4    0    0  0.59848256184E+00 -0.66528543614E+02  0.18418041253E+03  0.19582857212E+03  0.00000000000E+00 0.  1.
         12    1    4    4    0    0  0.25246728350E+02 -0.83628953405E+01  0.94483595571E+01  0.28224223801E+02  0.00000000000E+00 0. -1.
         -5    1    5    5    0  502  0.39145523798E+02  0.82515686951E+00  0.26327114501E+02  0.47415818829E+02  0.47000000000E+01 0.  1.
         11    1    6    6    0    0 -0.17151986733E+02  0.71826790331E+02  0.36186395306E+03  0.36932208028E+03  0.00000000000E+00 0. -1.
        -12    1    6    6    0    0  0.33777755957E+02  0.67393463113E+02  0.16064303764E+03  0.17745140521E+03  0.00000000000E+00 0.  1.
</event>
<event>
12    1  0.1050869E+000  0.3094693E+03  0.7818608E-02  0.1080686E+00
         21   -1    0    0  503  502  0.00000000000E+00  0.00000000000E+00  0.72908550992E+03  0.72908550992E+03  0.00000000000E+00 0. -1.
         21   -1    0    0  501  503 -0.00000000000E+00 -0.00000000000E+00 -0.29351759335E+03  0.29351759335E+03  0.00000000000E+00 0. -1.
          6    2    1    2  501    0 -0.72889468215E+02  0.24623085682E+03  0.59829018895E+03  0.67358919915E+03  0.17271001589E+03 0.  0.
         24    2    3    3    0    0 -0.25039753300E+02  0.16684523606E+03  0.52006668350E+03  0.55221095231E+03  0.77480697740E+02 0.  0.
         -6    2    1    2    0  502  0.72889468215E+02 -0.24623085682E+03 -0.16272227238E+03  0.34901390412E+03  0.17143412121E+03 0.  0.
        -24    2    5    5    0    0  0.20258751152E+02 -0.47335512154E+02 -0.86965416768E+01  0.91962613078E+02  0.75699568412E+02 0.  0.
          5    1    3    3  501    0 -0.47849714915E+02  0.79385620755E+02  0.78223505449E+02  0.12137824684E+03  0.47000000000E+01 0. -1.
        -13    1    4    4    0    0 -0.40961349800E+02  0.14633818018E+03  0.37126403831E+03  0.40116041841E+03  0.00000000000E+00 0.  1.
         14    1    4    4    0    0  0.15921596500E+02  0.20507055881E+02  0.14880264519E+03  0.15105053390E+03  0.00000000000E+00 0. -1.
         -5    1    5    5    0  502  0.52630717064E+02 -0.19889534466E+03 -0.15402573070E+03  0.25705129104E+03  0.47000000000E+01 0.  1.
         11    1    6    6    0    0  0.16946063384E+02 -0.19943570272E+02 -0.41521917499E+02  0.49081408825E+02  0.00000000000E+00 0. -1.
        -12    1    6    6    0    0  0.33126877679E+01 -0.27391941882E+02  0.32825375822E+02  0.42881204253E+02  0.00000000000E+00 0.  1.
</event>
<event>
12    1  0.1050869E+000  0.1702484E+03  0.7818608E-02  0.1178438E+00
         21   -1    0    0  501  502  0.00000000000E+00  0.00000000000E+00  0.76189842400E+02  0.76189842400E+02  0.00000000000E+00 0.  1.
         21   -1    0    0  502  503 -0.00000000000E+00 -0.00000000000E+00 -0.38248785147E+03  0.38248785147E+03  0.00000000000E+00 0.  1.
         -6    2    1    2    0  503  0.14942911343E+02  0.57397531624E+00 -0.18737436988E+03  0.25100641080E+03  0.16634735864E+03 0.  0.
        -24    2    3    3    0    0 -0.43670015941E+02 -0.33641405030E+02 -0.12529757713E+03  0.15890980014E+03  0.80709524351E+02 0.  0.
          6    2    1    2  501    0 -0.14942911343E+02 -0.57397531624E+00 -0.11892363920E+03  0.20767128308E+03  0.16959041779E+03 0.  0.
         24    2    5    5    0    0  0.16236313707E+02  0.40455497083E+02 -0.12434849274E+03  0.15564166924E+03  0.82834270855E+02 0.  0.
          5    1    5    5  501    0 -0.31179225050E+02 -0.41029472399E+02  0.54248535492E+01  0.52029613838E+02  0.47000000000E+01 0. -1.
        -13    1    6    6    0    0  0.34171424682E+02  0.90567169826E+01 -0.11552020096E+02  0.37190853117E+02  0.00000000000E+00 0.  1.
         14    1    6    6    0    0 -0.17935110975E+02  0.31398780101E+02 -0.11279647265E+03  0.11845081612E+03  0.00000000000E+00 0. -1.
         -5    1    3    3    0  503  0.58612927284E+02  0.34215380346E+02 -0.62076792750E+02  0.92096610660E+02  0.47000000000E+01 0.  1.
         13    1    4    4    0    0 -0.61207823545E+01  0.24496407261E+02 -0.53645790575E+02  0.59290882873E+02  0.00000000000E+00 0. -1.
        -14    1    4    4    0    0 -0.37549233586E+02 -0.58137812291E+02 -0.71651786552E+02  0.99618917265E+02  0.00000000000E+00 0.  1.
</event>
<event>
12    1  0.1050869E+000  0.1761132E+03  0.7818608E-02  0.1171631E+00
         21   -1    0    0  501  502  0.00000000000E+00  0.00000000000E+00  0.29991300283E+03  0.29991300283E+03  0.00000000000E+00 0.  1.
         21   -1    0    0  502  503 -0.00000000000E+00 -0.00000000000E+00 -0.24169152164E+03  0.24169152164E+03  0.00000000000E+00 0.  1.
         -6    2    1    2    0  503 -0.34960056994E+02  0.17203463266E+02  0.23396156061E+03  0.29280654644E+03  0.17169594364E+03 0.  0.
        -24    2    3    3    0    0 -0.13778950400E+02  0.73420232751E+02  0.10987269095E+03  0.15486053518E+03  0.79557445214E+02 0.  0.
          6    2    1    2  501    0  0.34960056994E+02 -0.17203463266E+02 -0.17574007942E+03  0.24879797804E+03  0.17174892614E+03 0.  0.
         24    2    5    5    0    0 -0.28090527557E+02  0.31670309418E+02 -0.13010952449E+03  0.15677483198E+03  0.76536091747E+02 0.  0.
          5    1    5    5  501    0  0.63050584551E+02 -0.48873772684E+02 -0.45630554924E+02  0.92023146062E+02  0.47000000000E+01 0. -1.
        -11    1    6    6    0    0 -0.49728005682E+02  0.19467282444E+02 -0.11716897649E+03  0.12876497461E+03  0.00000000000E+00 0.  1.
         12    1    6    6    0    0  0.21637478125E+02  0.12203026975E+02 -0.12940548003E+02  0.28009857364E+02  0.00000000000E+00 0. -1.
         -5    1    3    3    0  503 -0.21181106594E+02 -0.56216769486E+02  0.12408886966E+03  0.13794601126E+03  0.47000000000E+01 0.  1.
         13    1    4    4    0    0 -0.46709764041E+02  0.51719901223E+02  0.69552054890E+02  0.98459324488E+02  0.00000000000E+00 0. -1.
        -14    1    4    4    0    0  0.32930813641E+02  0.21700331528E+02  0.40320636060E+02  0.56401210694E+02  0.00000000000E+00 0.  1.
</event>
<event>
12    1  0.1050869E+000  0.1839046E+03  0.7818608E-02  0.1164180E+00
         21   -1    0    0  501  502  0.00000000000E+00  0.00000000000E+00  0.99370525272E+03  0.99370525272E+03  0.00000000000E+00 0. -1.
         21   -1    0    0  502  503 -0.00000000000E+00 -0.00000000000E+00 -0.79195085795E+02  0.79195085795E+02  0.00000000000E+00 0. -1.
         -6    2    1    2    0  503 -0.47525696390E+02  0.42628558774E+02  0.86294846264E+03  0.88232700023E+03  0.17246738913E+03 0.  0.
        -24    2    3    3    0    0 -0.86750241344E+02 -0.52903082537E+01  0.62031917548E+03  0.63187572007E+03  0.83171235466E+02 0.  0.
          6    2    1    2  501    0  0.47525696390E+02 -0.42628558774E+02  0.51561704283E+02  0.19057333829E+03  0.17199913394E+03 0.  0.
         24    2    5    5    0    0 -0.29035195249E+02 -0.29271582163E+02  0.65487333460E+02  0.11147850849E+03  0.80243373099E+02 0.  0.
          5    1    5    5  501    0  0.76560891639E+02 -0.13356976611E+02 -0.13925629176E+02  0.79094829797E+02  0.47000000000E+01 0. -1.
        -13    1    6    6    0    0 -0.24943097301E+02 -0.50601221365E+02  0.69371780314E+02  0.89415242608E+02  0.00000000000E+00 0.  1.
         14    1    6    6    0    0 -0.40920979481E+01  0.21329639202E+02 -0.38844468545E+01  0.22063265884E+02  0.00000000000E+00 0. -1.
         -5    1    3    3    0  503  0.39224544954E+02  0.47918867028E+02  0.24262928716E+03  0.25045128016E+03  0.47000000000E+01 0.  1.
         13    1    4    4    0    0 -0.80446633191E+02  0.28650311702E+02  0.46361153590E+03  0.47141081593E+03  0.00000000000E+00 0. -1.
        -14    1    4    4    0    0 -0.63036081528E+01 -0.33940619955E+02  0.15670763959E+03  0.16046490415E+03  0.00000000000E+00 0.  1.
</event>
<event>
12    1  0.1050869E+000  0.2423876E+03  0.7818608E-02  0.1118331E+00
         21   -1    0    0  503  502  0.00000000000E+00  0.00000000000E+00  0.22479886815E+03  0.22479886815E+03  0.00000000000E+00 0.  1.
         21   -1    0    0  501  503 -0.00000000000E+00 -0.00000000000E+00 -0.26381119097E+03  0.26381119097E+03  0.00000000000E+00 0.  1.
          6    2    1    2  501    0  0.16557565987E+03 -0.37096501444E+02  0.75601839125E+01  0.24178880318E+03  0.17208491917E+03 0.  0.
         24    2    3    3    0    0  0.15501746225E+03  0.98922288657E+01 -0.37427906490E+02  0.17571736767E+03  0.73126433811E+02 0.  0.
         -6    2    1    2    0  502 -0.16557565987E+03  0.37096501444E+02 -0.46572506735E+02  0.24682125593E+03  0.17309039382E+03 0.  0.
        -24    2    5    5    0    0 -0.76902209036E+02  0.10662988620E+02 -0.87977394814E+02  0.14534137497E+03  0.85769716091E+02 0.  0.
          5    1    3    3  501    0  0.10558197620E+02 -0.46988730310E+02  0.44988090403E+02  0.66071435517E+02  0.47000000000E+01 0. -1.
        -13    1    4    4    0    0  0.66311483303E+02  0.22873710079E+01 -0.53517093857E+02  0.85243910157E+02  0.00000000000E+00 0.  1.
         14    1    4    4    0    0  0.88705978946E+02  0.76048578578E+01  0.16089187367E+02  0.90473457511E+02  0.00000000000E+00 0. -1.
         -5    1    5    5    0  502 -0.88673450834E+02  0.26433512824E+02  0.41404888079E+02  0.10147988096E+03  0.47000000000E+01 0.  1.
         13    1    6    6    0    0 -0.90848023533E+02 -0.88608110320E+01 -0.64462796802E+02  0.11174672042E+03  0.00000000000E+00 0. -1.
        -14    1    6    6    0    0  0.13945814497E+02  0.19523799652E+02 -0.23514598012E+02  0.33594654552E+02  0.00000000000E+00 0.  1.
</event>
<event>
12    1  0.1050869E+000  0.2163265E+03  0.7818608E-02  0.1136877E+00
         21   -1    0    0  501  502  0.00000000000E+00  0.00000000000E+00  0.33242309235E+03  0.33242309235E+03  0.00000000000E+00 0.  1.
         21   -1    0    0  502  503 -0.00000000000E+00 -0.00000000000E+00 -0.14410544072E+03  0.14410544072E+03  0.00000000000E+00 0.  1.
         -6    2    1    2    0  503 -0.12872582312E+03  0.28297206413E+02  0.54244822965E+02  0.22302388244E+03  0.17154032147E+03 0.  0.
        -24    2    3    3    0    0 -0.43286216208E+02  0.67627361991E+02 -0.20398880901E+01  0.11331132041E+03  0.79925825532E+02 0.  0.
          6    2    1    2  501    0  0.12872582312E+03 -0.28297206413E+02  0.13407282867E+03  0.25350465063E+03  0.17005297726E+03 0.  0.
         24    2    5    5    0    0  0.69457520603E+02 -0.76602648081E+02  0.11556068012E+03  0.17469515233E+03  0.80447576700E+02 0.  0.
          5    1    5    5  501    0  0.59268302518E+02  0.48305441668E+02  0.18512148544E+02  0.78809498297E+02  0.47000000000E+01 0. -1.
        -13    1    6    6    0    0 -0.63724318322E+01 -0.31014475292E+02  0.34110592157E+01  0.31845578815E+02  0.00000000000E+00 0.  1.
         14    1    6    6    0    0  0.75829952435E+02 -0.45588172789E+02  0.11214962091E+03  0.14284957352E+03  0.00000000000E+00 0. -1.
         -5    1    3    3    0  503 -0.85439606913E+02 -0.39330155578E+02  0.56284711055E+02  0.10971256202E+03  0.47000000000E+01 0.  1.
         13    1    4    4    0    0 -0.46208120438E+02  0.23131020203E+02 -0.30887151337E+02  0.60201749208E+02  0.00000000000E+00 0. -1.
        -14    1    4    4    0    0  0.29219042299E+01  0.44496341788E+02  0.28847263246E+02  0.53109571205E+02  0.00000000000E+00 0.  1.
</event>
<event>
12    1  0.1050869E+000  0.1772849E+03  0.7818608E-02  0.1170617E+00
         21   -1    0    0  501  502  0.00000000000E+00  0.00000000000E+00  0.50310979783E+02  0.50310979783E+02  0.00000000000E+00 0. -1.
         21   -1    0    0  502  503 -0.00000000000E+00 -0.00000000000E+00 -0.93844503221E+03  0.93844503221E+03  0.00000000000E+00 0. -1.
         -6    2    1    2    0  503  0.36704049298E+02 -0.88844706234E+01 -0.15772217805E+03  0.23728932273E+03  0.17321609677E+03 0.  0.
        -24    2    3    3    0    0  0.16027832063E+01  0.19538983709E+02 -0.92726003351E+01  0.82049641077E+02  0.79131673086E+02 0.  0.
          6    2    1    2  501    0 -0.36704049298E+02  0.88844706234E+01 -0.73041187438E+03  0.75146668926E+03  0.17255305787E+03 0.  0.
         24    2    5    5    0    0  0.46451913049E+02 -0.52408599215E+01 -0.38833901054E+03  0.39911690111E+03  0.79384298218E+02 0.  0.
          5    1    5    5  501    0 -0.83155962346E+02  0.14125330545E+02 -0.34207286384E+03  0.35234978815E+03  0.47000000000E+01 0. -1.
        -13    1    6    6    0    0 -0.46907307334E+01 -0.32752091683E+02 -0.11430845809E+03  0.11900052965E+03  0.00000000000E+00 0.  1.
         14    1    6    6    0    0  0.51142643782E+02  0.27511231762E+02 -0.27403055245E+03  0.28011637146E+03  0.00000000000E+00 0. -1.
         -5    1    3    3    0  503  0.35101266091E+02 -0.28423454332E+02 -0.14844957772E+03  0.15523968166E+03  0.47000000000E+01 0.  1.
         11    1    4    4    0    0 -0.10080853542E+02 -0.24371135255E+02 -0.22562587886E+02  0.34708013684E+02  0.00000000000E+00 0. -1.
        -12    1    4    4    0    0  0.11683636748E+02  0.43910118964E+02  0.13289987551E+02  0.47341627393E+02  0.00000000000E+00 0.  1.
</event>
<event>
12    1  0.1050869E+000  0.1772730E+03  0.7818608E-02  0.1170546E+00
         21   -1    0    0  501  502  0.00000000000E+00  0.00000000000E+00  0.21542406563E+03  0.21542406563E+03  0.00000000000E+00 0. -1.
         21   -1    0    0  502  503 -0.00000000000E+00 -0.00000000000E+00 -0.17779450950E+03  0.17779450950E+03  0.00000000000E+00 0. -1.
         -6    2    1    2    0  503 -0.66741956853E+01 -0.40061439484E+02  0.10243813355E+03  0.20447043519E+03  0.17223566367E+03 0.  0.
        -24    2    3    3    0    0 -0.35450608999E+02 -0.22340570635E+02  0.13166634509E+03  0.15954283226E+03  0.79762410451E+02 0.  0.
          6    2    1    2  501    0  0.66741956853E+01  0.40061439484E+02 -0.64808577418E+02  0.18874813994E+03  0.17255794622E+03 0.  0.
         24    2    5    5    0    0  0.13250422320E+02  0.35138119808E+02  0.28650994564E+02  0.94810567968E+02  0.82206466617E+02 0.  0.
          5    1    5    5  501    0 -0.65762266351E+01  0.49233196758E+01 -0.93459571982E+02  0.93937571974E+02  0.47000000000E+01 0. -1.
        -11    1    6    6    0    0  0.44151294798E+02  0.38646449920E+02  0.13463805575E+02  0.60200988234E+02  0.00000000000E+00 0.  1.
         12    1    6    6    0    0 -0.30900872478E+02 -0.35083301112E+01  0.15187188988E+02  0.34609579735E+02  0.00000000000E+00 0. -1.
         -5    1    3    3    0  503  0.28776413314E+02 -0.17720868849E+02 -0.29228211537E+02  0.44927602937E+02  0.47000000000E+01 0.  1.
         13    1    4    4    0    0 -0.42531113232E+01  0.66939224665E+01  0.11255827568E+03  0.11283732972E+03  0.00000000000E+00 0. -1.
        -14    1    4    4    0    0 -0.31197497676E+02 -0.29034493101E+02  0.19108069408E+02  0.46705502538E+02  0.00000000000E+00 0.  1.
</event>
<event>
12    1  0.1050869E+000  0.3482079E+03  0.7818608E-02  0.1063457E+00
         21   -1    0    0  503  502  0.00000000000E+00  0.00000000000E+00  0.46844411611E+03  0.46844411611E+03  0.00000000000E+00 0. -1.
         21   -1    0    0  501  503 -0.00000000000E+00 -0.00000000000E+00 -0.27273367890E+03  0.27273367890E+03  0.00000000000E+00 0. -1.
          6    2    1    2  501    0  0.26171264531E+03 -0.14995131252E+03  0.11839817885E+02  0.34740483751E+03  0.17196230690E+03 0.  0.
         24    2    3    3    0    0  0.10157437639E+03 -0.13352066558E+03 -0.72494156377E+01  0.18522986974E+03  0.78182021865E+02 0.  0.
         -6    2    1    2    0  502 -0.26171264531E+03  0.14995131252E+03  0.18387061933E+03  0.39377295750E+03  0.17398227658E+03 0.  0.
        -24    2    5    5    0    0 -0.14827059003E+03  0.15894776851E+03  0.14741215733E+03  0.27418472406E+03  0.78729650040E+02 0.  0.
          5    1    3    3  501    0  0.16013826893E+03 -0.16430646939E+02  0.19089233523E+02  0.16217496777E+03  0.47000000000E+01 0. -1.
        -13    1    4    4    0    0  0.71877023998E+02 -0.12613884974E+03  0.17018095399E+02  0.14617431910E+03  0.00000000000E+00 0.  1.
         14    1    4    4    0    0  0.29697352387E+02 -0.73818158319E+01 -0.24267511037E+02  0.39055550639E+02  0.00000000000E+00 0. -1.
         -5    1    5    5    0  502 -0.11344205528E+03 -0.89964559900E+01  0.36458462003E+02  0.11958823344E+03  0.47000000000E+01 0.  1.
         13    1    6    6    0    0 -0.13635988269E+02 -0.71928876314E+01  0.19109670014E+01  0.15534786881E+02  0.00000000000E+00 0. -1.
        -14    1    6    6    0    0 -0.13463460176E+03  0.16614065614E+03  0.14550119033E+03  0.25864993717E+03  0.00000000000E+00 0.  1.
</event>
<event>
12    1  0.1050869E+000  0.2100339E+03  0.7818608E-02  0.1143207E+00
         21   -1    0    0  501  502  0.00000000000E+00  0.00000000000E+00  0.77336953431E+02  0.77336953431E+02  0.00000000000E+00 0. -1.
         21   -1    0    0  502  503 -0.00000000000E+00 -0.00000000000E+00 -0.58150696030E+03  0.58150696030E+03  0.00000000000E+00 0.  1.
         -6    2    1    2    0  503 -0.77259973255E+02 -0.72974214251E+02 -0.17805869167E+03  0.27535276549E+03  0.18116265722E+03 0.  0.
        -24    2    3    3    0    0  0.32667658611E+02 -0.31083345068E+02 -0.90564411755E+02  0.12866851893E+03  0.79500470619E+02 0.  0.
          6    2    1    2  501    0  0.77259973255E+02  0.72974214251E+02 -0.32611131520E+03  0.38349114824E+03  0.17152997251E+03 0.  0.
         24    2    5    5    0    0  0.65439864964E+02  0.64151316960E+02 -0.34116135827E+03  0.36190058842E+03  0.78633301649E+02 0.  0.
          5    1    5    5  501    0  0.11820108292E+02  0.88228972910E+01  0.15050043077E+02  0.21590559818E+02  0.47000000000E+01 0. -1.
        -13    1    6    6    0    0  0.72226320519E+01  0.61438753396E+02 -0.19376339161E+03  0.20339896450E+03  0.00000000000E+00 0.  1.
         14    1    6    6    0    0  0.58217232912E+02  0.27125635641E+01 -0.14739796666E+03  0.15850162392E+03  0.00000000000E+00 0. -1.
         -5    1    3    3    0  503 -0.10992763187E+03 -0.41890869184E+02 -0.87494279916E+02  0.14668424655E+03  0.47000000000E+01 0.  1.
         13    1    4    4    0    0  0.37568118664E+02 -0.35965614613E+01 -0.93271435333E+02  0.10061739136E+03  0.00000000000E+00 0. -1.
        -14    1    4    4    0    0 -0.49004600525E+01 -0.27486783606E+02  0.27070235789E+01  0.28051127578E+02  0.00000000000E+00 0.  1.
</event>
<event>
12    1  0.1050869E+000  0.2222619E+03  0.7818608E-02  0.1132469E+00
         21   -1    0    0  501  502  0.00000000000E+00  0.00000000000E+00  0.11326180033E+03  0.11326180033E+03  0.00000000000E+00 0. -1.
         21   -1    0    0  502  503 -0.00000000000E+00 -0.00000000000E+00 -0.44660097337E+03  0.44660097337E+03  0.00000000000E+00 0. -1.
         -6    2    1    2    0  503  0.89446725332E+02 -0.10685732468E+03 -0.21534360068E+03  0.30947249070E+03  0.17315066167E+03 0.  0.
        -24    2    3    3    0    0  0.71098630220E+02 -0.35645558093E+01 -0.15631689017E+03  0.18900551909E+03  0.78869479628E+02 0.  0.
          6    2    1    2  501    0 -0.89446725332E+02  0.10685732468E+03 -0.11799557237E+03  0.25039028300E+03  0.17132756407E+03 0.  0.
         24    2    5    5    0    0 -0.10563472350E+03  0.11347324768E+03 -0.13874661848E+03  0.22284908410E+03  0.79851220389E+02 0.  0.
          5    1    5    5  501    0  0.16187998168E+02 -0.66159230037E+01  0.20751046111E+02  0.27541198896E+02  0.47000000000E+01 0. -1.
        -13    1    6    6    0    0 -0.69465116351E+02  0.38022834039E+02 -0.10753028098E+03  0.13354362443E+03  0.00000000000E+00 0.  1.
         14    1    6    6    0    0 -0.36169607150E+02  0.75450413645E+02 -0.31216337494E+02  0.89305459672E+02  0.00000000000E+00 0. -1.
         -5    1    3    3    0  503  0.18348095113E+02 -0.10329276887E+03 -0.59026710510E+02  0.12046697161E+03  0.47000000000E+01 0.  1.
         11    1    4    4    0    0 -0.50160628889E+01  0.19489064652E+02 -0.64337558170E+02  0.67411467267E+02  0.00000000000E+00 0. -1.
        -12    1    4    4    0    0  0.76114693108E+02 -0.23053620461E+02 -0.91979332001E+02  0.12159405182E+03  0.00000000000E+00 0.  1.
</event>
<event>
12    1  0.1050869E+000  0.5643932E+03  0.7818608E-02  0.9982300E-01
         21   -1    0    0  503  502  0.00000000000E+00  0.00000000000E+00  0.24597754807E+04  0.24597754807E+04  0.00000000000E+00 0.  1.
         21   -1    0    0  501  503 -0.00000000000E+00 -0.00000000000E+00 -0.15790949825E+03  0.15790949825E+03  0.00000000000E+00 0. -1.
          6    2    1    2  501    0  0.22436434491E+03  0.48834971131E+03  0.59542901223E+03  0.82041168994E+03  0.17237990769E+03 0.  0.
         24    2    3    3    0    0  0.20369421983E+03  0.33302032252E+03  0.48978976281E+03  0.63137144525E+03  0.79636798787E+02 0.  0.
         -6    2    1    2    0  502 -0.22436434491E+03 -0.48834971131E+03  0.17064369702E+04  0.17972732890E+04  0.17157896805E+03 0.  0.
        -24    2    5    5    0    0 -0.86455110155E+02 -0.11440590250E+03  0.48886610330E+03  0.51611996675E+03  0.82622978191E+02 0.  0.
          5    1    3    3  501    0  0.20670125079E+02  0.15532938879E+03  0.10563924942E+03  0.18904024469E+03  0.47000000000E+01 0. -1.
        -13    1    4    4    0    0  0.93821267632E+02  0.22669277732E+03  0.29249645798E+03  0.38176723731E+03  0.00000000000E+00 0.  1.
         14    1    4    4    0    0  0.10987295220E+03  0.10632754520E+03  0.19729330483E+03  0.24960420794E+03  0.00000000000E+00 0. -1.
         -5    1    5    5    0  502 -0.13790923475E+03 -0.37394380881E+03  0.12175708669E+04  0.12811533222E+04  0.47000000000E+01 0.  1.
         11    1    6    6    0    0 -0.10279404437E+03 -0.94347854333E+02  0.40568917520E+03  0.42901263390E+03  0.00000000000E+00 0. -1.
        -12    1    6    6    0    0  0.16338934215E+02 -0.20058048163E+02  0.83176928101E+02  0.87107332847E+02  0.00000000000E+00 0.  1.
</event>
<event>
12    1  0.1050869E+000  0.1722891E+03  0.7818608E-02  0.1175740E+00
         21   -1    0    0  503  502  0.00000000000E+00  0.00000000000E+00  0.25373331137E+03  0.25373331137E+03  0.00000000000E+00 0.  1.
         21   -1    0    0  501  503 -0.00000000000E+00 -0.00000000000E+00 -0.13225074456E+03  0.13225074456E+03  0.00000000000E+00 0.  1.
          6    2    1    2  501    0  0.14496310442E+02  0.85883969330E+01  0.12791319192E+03  0.21458174403E+03  0.17146322237E+03 0.  0.
         24    2    3    3    0    0 -0.49848640114E+02  0.36177698506E+02  0.85308137619E+02  0.13249201949E+03  0.80516731760E+02 0.  0.
         -6    2    1    2    0  502 -0.14496310442E+02 -0.85883969330E+01 -0.64306251114E+01  0.17140231190E+03  0.17045086098E+03 0.  0.
        -24    2    5    5    0    0 -0.13824132339E+02 -0.33562425598E+02  0.54075556020E+02  0.10577273103E+03  0.83343636967E+02 0.  0.
          5    1    3    3  501    0  0.64344950556E+02 -0.27589301573E+02  0.42605054304E+02  0.82089724544E+02  0.47000000000E+01 0. -1.
        -13    1    4    4    0    0 -0.61917853134E+02  0.27912333179E+02  0.93624359124E+02  0.11566520437E+03  0.00000000000E+00 0.  1.
         14    1    4    4    0    0  0.12069213020E+02  0.82653653271E+01 -0.83162215051E+01  0.16826815119E+02  0.00000000000E+00 0. -1.
         -5    1    5    5    0  502 -0.67217810348E+00  0.24974028665E+02 -0.60506181132E+02  0.65629580879E+02  0.47000000000E+01 0.  1.
         11    1    6    6    0    0  0.33451049348E+01 -0.59199643806E+02  0.28963132990E+02  0.65989776681E+02  0.00000000000E+00 0. -1.
        -12    1    6    6    0    0 -0.17169237274E+02  0.25637218208E+02  0.25112423031E+02  0.39782954346E+02  0.00000000000E+00 0.  1.
</event>
<event>
12    1  0.1050869E+000  0.1979345E+03  0.7818608E-02  0.1152429E+00
         21   -1    0    0  503  502  0.00000000000E+00  0.00000000000E+00  0.32249840855E+03  0.32249840855E+03  0.00000000000E+00 0.  1.
         21   -1    0    0  501  503 -0.00000000000E+00 -0.00000000000E+00 -0.11949708154E+03  0.11949708154E+03  0.00000000000E+00 0.  1.
          6    2    1    2  501    0 -0.66736086577E+02 -0.53340668422E+02  0.11897207541E+03  0.23093813536E+03  0.17854729199E+03 0.  0.
         24    2    3    3    0    0  0.24126250656E+02 -0.15192016910E+02  0.10226207521E+03  0.13087516495E+03  0.76536941585E+02 0.  0.
         -6    2    1    2    0  502  0.66736086577E+02  0.53340668422E+02  0.84029251595E+02  0.21105735473E+03  0.17373934414E+03 0.  0.
        -24    2    5    5    0    0  0.88741333538E+02  0.89845994179E+02  0.75841390921E+02  0.16739958607E+03  0.79519669830E+02 0.  0.
          5    1    3    3  501    0 -0.90862337233E+02 -0.38148651512E+02  0.16710000203E+02  0.10006297041E+03  0.47000000000E+01 0. -1.
        -13    1    4    4    0    0  0.91829707173E+01  0.24017240203E+02  0.67979471211E+01  0.26596369362E+02  0.00000000000E+00 0.  1.
         14    1    4    4    0    0  0.14943279938E+02 -0.39209257113E+02  0.95464128086E+02  0.10427879559E+03  0.00000000000E+00 0. -1.
         -5    1    5    5    0  502 -0.22005246960E+02 -0.36505325757E+02  0.81878606743E+01  0.43657768666E+02  0.47000000000E+01 0.  1.
         13    1    6    6    0    0  0.75099867255E+02  0.36482814426E+02  0.75125479214E+02  0.11231573103E+03  0.00000000000E+00 0. -1.
        -14    1    6    6    0    0  0.13641466282E+02  0.53363179754E+02  0.71591170704E+00  0.55083855033E+02  0.00000000000E+00 0.  1.
</event>
<event>
12    1  0.1050869E+000  0.3312653E+03  0.7818608E-02  0.1070619E+00
         21   -1    0    0  503  502  0.00000000000E+00  0.00000000000E+00  0.14348198237E+03  0.14348198237E+03  0.00000000000E+00 0. -1.
         21   -1    0    0  501  503 -0.00000000000E+00 -0.00000000000E+00 -0.77075066375E+03  0.77075066375E+03  0.00000000000E+00 0.  1.
          6    2    1    2  501    0 -0.60310264002E+02  0.27608590684E+03 -0.35670045496E+03  0.48679761540E+03  0.17284660220E+03 0.  0.
         24    2    3    3    0    0 -0.64926471946E+02  0.26526341034E+03 -0.24876591014E+03  0.37812198901E+03  0.80694714197E+02 0.  0.
         -6    2    1    2    0  502  0.60310264002E+02 -0.27608590684E+03 -0.27056822642E+03  0.42743503073E+03  0.17214175684E+03 0.  0.
        -24    2    5    5    0    0  0.20060931934E+02 -0.27814236582E+03 -0.22947304982E+03  0.36968434852E+03  0.79012785622E+02 0.  0.
          5    1    3    3  501    0  0.46162079431E+01  0.10822496499E+02 -0.10793454482E+03  0.10867562639E+03  0.47000000000E+01 0. -1.
        -13    1    4    4    0    0  0.98093434000E+01  0.10554796762E+03 -0.11779222307E+03  0.15846641443E+03  0.00000000000E+00 0.  1.
         14    1    4    4    0    0 -0.74735815345E+02  0.15971544272E+03 -0.13097368707E+03  0.21965557458E+03  0.00000000000E+00 0. -1.
         -5    1    5    5    0  502  0.40249332068E+02  0.20564589864E+01 -0.41095176600E+02  0.57750682206E+02  0.47000000000E+01 0.  1.
         11    1    6    6    0    0  0.41007204386E+02 -0.23257410465E+03 -0.16542028429E+03  0.28833344485E+03  0.00000000000E+00 0. -1.
        -12    1    6    6    0    0 -0.20946272452E+02 -0.45568261177E+02 -0.64052765527E+02  0.81350903670E+02  0.00000000000E+00 0.  1.
</event>
<event>
12    1  0.1050869E+000  0.1817020E+03  0.7818608E-02  0.1167171E+00
         21   -1    0    0  503  502  0.00000000000E+00  0.00000000000E+00  0.19664399418E+03  0.19664399418E+03  0.00000000000E+00 0. -1.
         21   -1    0    0  501  503 -0.00000000000E+00 -0.00000000000E+00 -0.27867956675E+03  0.27867956675E+03  0.00000000000E+00 0. -1.
          6    2    1    2  501    0  0.46317467241E+02 -0.80348722078E+00  0.11110140905E+03  0.21297681252E+03  0.17569759877E+03 0.  0.
         24    2    3    3    0    0  0.66431693631E+02  0.59054381009E+02  0.74929267767E+02  0.14005178049E+03  0.78099399577E+02 0.  0.
         -6    2    1    2    0  502 -0.46317467241E+02  0.80348722078E+00 -0.19313698162E+03  0.26234674841E+03  0.17140002732E+03 0.  0.
        -24    2    5    5    0    0 -0.43318393948E+02 -0.63949356828E+02 -0.10449910072E+03  0.15243455989E+03  0.79688327288E+02 0.  0.
          5    1    3    3  501    0 -0.20114226389E+02 -0.59857868230E+02  0.36172141285E+02  0.72925032036E+02  0.47000000000E+01 0. -1.
        -11    1    4    4    0    0  0.19637606555E+02 -0.13168770360E+02  0.41434062090E+02  0.47705697829E+02  0.00000000000E+00 0.  1.
         12    1    4    4    0    0  0.46794087076E+02  0.72223151369E+02  0.33495205677E+02  0.92346082658E+02  0.00000000000E+00 0. -1.
         -5    1    5    5    0  502 -0.29990732930E+01  0.64752844048E+02 -0.88637880900E+02  0.10991218851E+03  0.47000000000E+01 0.  1.
         11    1    6    6    0    0 -0.63154387173E+02 -0.26569441447E+02 -0.60772876152E+02  0.91584683838E+02  0.00000000000E+00 0. -1.
        -12    1    6    6    0    0  0.19835993224E+02 -0.37379915381E+02 -0.43726224567E+02  0.60849876055E+02  0.00000000000E+00 0.  1.
</event>
<event>
12    1  0.1050869E+000  0.3909187E+03  0.7818608E-02  0.1046972E+00
         21   -1    0    0  503  502  0.00000000000E+00  0.00000000000E+00  0.29468147277E+03  0.29468147277E+03  0.00000000000E+00 0.  1.
         21   -1    0    0  501  503 -0.00000000000E+00 -0.00000000000E+00 -0.60528426726E+03  0.60528426726E+03  0.00000000000E+00 0.  1.
          6    2    1    2  501    0  0.32391285433E+03  0.13577340018E+03  0.15025436991E+02  0.39120734345E+03  0.17164925988E+03 0.  0.
         24    2    3    3    0    0  0.10882984757E+03 -0.49568160189E+01 -0.90279056816E-01  0.13368789095E+03  0.77485084291E+02 0.  0.
         -6    2    1    2    0  502 -0.32391285433E+03 -0.13577340018E+03 -0.32562823149E+03  0.50875839658E+03  0.17160246956E+03 0.  0.
        -24    2    5    5    0    0 -0.92422394042E+02 -0.69246034749E+02 -0.18171043235E+03  0.22813739512E+03  0.75439231029E+02 0.  0.
          5    1    3    3  501    0  0.21508300675E+03  0.14073021620E+03  0.15115716048E+02  0.25751945250E+03  0.47000000000E+01 0. -1.
        -11    1    4    4    0    0  0.42474922438E+02  0.24028087710E+02 -0.27793524238E+02  0.56160021587E+02  0.00000000000E+00 0.  1.
         12    1    4    4    0    0  0.66354925136E+02 -0.28984903728E+02  0.27703245181E+02  0.77527869360E+02  0.00000000000E+00 0. -1.
         -5    1    5    5    0  502 -0.23149046029E+03 -0.66527365431E+02 -0.14391779914E+03  0.28062100146E+03  0.47000000000E+01 0.  1.
         13    1    6    6    0    0 -0.10552037240E+03 -0.58768010118E+02 -0.16477579844E+03  0.20430196219E+03  0.00000000000E+00 0. -1.
        -14    1    6    6    0    0  0.13097978355E+02 -0.10478024630E+02 -0.16934633910E+02  0.23835432927E+02  0.00000000000E+00 0.  1.
</event>
<event>
12    1  0.1050869E+000  0.2105881E+03  0.7818608E-02  0.1141179E+00
         21   -1    0    0  503  502  0.00000000000E+00  0.00000000000E+00  0.48536520964E+03  0.48536520964E+03  0.00000000000E+00 0.  1.
         21   -1    0    0  501  503 -0.00000000000E+00 -0.00000000000E+00 -0.94331823572E+02  0.94331823572E+02  0.00000000000E+00 0.  1.
          6    2    1    2  501    0 -0.57650738593E+02  0.10796224803E+03  0.24853398032E+03  0.32575524756E+03  0.17137061381E+03 0.  0.
         24    2    3    3    0    0  0.22502224870E+02  0.23070500334E+02  0.14872982347E+03  0.17208655816E+03  0.80340680836E+02 0.  0.
         -6    2    1    2    0  502  0.57650738593E+02 -0.10796224803E+03  0.14249940575E+03  0.25394178565E+03  0.17088269428E+03 0.  0.
        -24    2    5    5    0    0 -0.22396225816E+02 -0.10720270653E+02  0.67725405676E+02  0.10739227265E+03  0.79560382841E+02 0.  0.
          5    1    3    3  501    0 -0.80152963463E+02  0.84891747693E+02  0.99804156845E+02  0.15366868940E+03  0.47000000000E+01 0. -1.
        -11    1    4    4    0    0  0.87232295557E+01  0.37728917992E+02  0.23598122130E+02  0.45347958662E+02  0.00000000000E+00 0.  1.
         12    1    4    4    0    0  0.13778995314E+02 -0.14658417659E+02  0.12513170134E+03  0.12673859949E+03  0.00000000000E+00 0. -1.
         -5    1    5    5    0  502  0.80046964409E+02 -0.97241977374E+02  0.74774000069E+02  0.14654951300E+03  0.47000000000E+01 0.  1.
         11    1    6    6    0    0 -0.11536180335E+02 -0.45448869846E+02  0.35979505775E+02  0.59103367610E+02  0.00000000000E+00 0. -1.
        -12    1    6    6    0    0 -0.10860045481E+02  0.34728599193E+02  0.31745899901E+02  0.48288905043E+02  0.00000000000E+00 0.  1.
</event>
<event>
12    1  0.1050869E+000  0.2267652E+03  0.7818608E-02  0.1129063E+00
         21   -1    0    0  501  502  0.00000000000E+00  0.00000000000E+00  0.11995923851E+03  0.11995923851E+03  0.00000000000E+00 0. -1.
         21   -1    0    0  502  503 -0.00000000000E+00 -0.00000000000E+00 -0.48942025903E+03  0.48942025903E+03  0.00000000000E+00 0. -1.
         -6    2    1    2    0  503 -0.13231390339E+03 -0.68040481743E+02 -0.75968218001E+02  0.23848803984E+03  0.17020252293E+03 0.  0.
        -24    2    3    3    0    0 -0.13214046937E+03 -0.18038889447E+02 -0.57258287628E+01  0.15213832902E+03  0.72984798872E+02 0.  0.
          6    2    1    2  501    0  0.13231390339E+03  0.68040481743E+02 -0.29349280251E+03  0.37089145770E+03  0.17113144679E+03 0.  0.
         24    2    5    5    0    0  0.12372692354E+03  0.10987864951E+03 -0.24561085709E+03  0.30655686978E+03  0.79188080309E+02 0.  0.
          5    1    5    5  501    0  0.85869798525E+01 -0.41838167766E+02 -0.47881945426E+02  0.64334587919E+02  0.47000000000E+01 0. -1.
        -13    1    6    6    0    0  0.78589488544E+01  0.66845643618E+01  0.52604023754E+01  0.11580946030E+02  0.00000000000E+00 0.  1.
         14    1    6    6    0    0  0.11586797468E+03  0.10319408515E+03 -0.25087125946E+03  0.29497592375E+03  0.00000000000E+00 0. -1.
         -5    1    3    3    0  503 -0.17343402446E+00 -0.50001592296E+02 -0.70242389239E+02  0.86349710813E+02  0.47000000000E+01 0.  1.
         11    1    4    4    0    0 -0.88805915263E+02  0.15045682064E+02  0.19352045148E+02  0.92126895019E+02  0.00000000000E+00 0. -1.
        -12    1    4    4    0    0 -0.43334554104E+02 -0.33084571512E+02 -0.25077873911E+02  0.60011434005E+02  0.00000000000E+00 0.  1.
</event>
<event>
12    1  0.1050869E+000  0.2248357E+03  0.7818608E-02  0.1130353E+00
         21   -1    0    0  503  502  0.00000000000E+00  0.00000000000E+00  0.52929703253E+03  0.52929703253E+03  0.00000000000E+00 0. -1.
         21   -1    0    0  501  503 -0.00000000000E+00 -0.00000000000E+00 -0.10064642760E+03  0.10064642760E+03  0.00000000000E+00 0. -1.
          6    2    1    2  501    0  0.11373224833E+03 -0.89528149799E+02  0.14268925144E+03  0.26617843629E+03  0.17187327761E+03 0.  0.
         24    2    3    3    0    0  0.34766619028E+02 -0.70231995396E+02  0.14647971919E+03  0.18466543223E+03  0.80645909696E+02 0.  0.
         -6    2    1    2    0  502 -0.11373224833E+03  0.89528149799E+02  0.28596135349E+03  0.36376502384E+03  0.17204878077E+03 0.  0.
        -24    2    5    5    0    0 -0.13909859110E+03  0.10843813502E+03  0.24690502547E+03  0.31328209955E+03  0.77950850682E+02 0.  0.
          5    1    3    3  501    0  0.78965629300E+02 -0.19296154403E+02 -0.37904677532E+01  0.81513004062E+02  0.47000000000E+01 0. -1.
        -13    1    4    4    0    0  0.28132975851E+02 -0.80379001773E+02  0.79181279194E+02  0.11628380468E+03  0.00000000000E+00 0.  1.
         14    1    4    4    0    0  0.66336431769E+01  0.10147006377E+02  0.67298439999E+02  0.68381627551E+02  0.00000000000E+00 0. -1.
         -5    1    5    5    0  502  0.25366342778E+02 -0.18909985219E+02  0.39056328015E+02  0.50482924291E+02  0.47000000000E+01 0.  1.
         13    1    6    6    0    0  0.13300857271E+00  0.86741948582E+01  0.56540492663E+02  0.57202156063E+02  0.00000000000E+00 0. -1.
        -14    1    6    6    0    0 -0.13923159968E+03  0.99763940160E+02  0.19036453281E+03  0.25607994349E+03  0.00000000000E+00 0.  1.
</event>
<event>
12    1  0.1050869E+000  0.2489362E+03  0.7818608E-02  0.1114380E+00
         21   -1    0    0  503  502  0.00000000000E+00  0.00000000000E+00  0.57129389242E+02  0.57129389242E+02  0.00000000000E+00 0.  1.
         21   -1    0    0  501  503 -0.00000000000E+00 -0.00000000000E+00 -0.13150871221E+04  0.13150871221E+04  0.00000000000E+00 0.  1.
          6    2    1    2  501    0  0.11347361674E+03  0.13876146080E+03 -0.92025360399E+03  0.95267708165E+03  0.16910328661E+03 0.  0.
         24    2    3    3    0    0  0.10903226610E+03  0.69754644841E+02 -0.39908447366E+03  0.42691951523E+03  0.78981705690E+02 0.  0.
         -6    2    1    2    0  502 -0.11347361674E+03 -0.13876146080E+03 -0.33770412887E+03  0.41953942970E+03  0.17273751682E+03 0.  0.
        -24    2    5    5    0    0 -0.10496939979E+03 -0.14667032640E+03 -0.35006130412E+03  0.40194222421E+03  0.80522514985E+02 0.  0.
          5    1    3    3  501    0  0.44413506346E+01  0.69006815955E+02 -0.52116913033E+03  0.52575756642E+03  0.47000000000E+01 0. -1.
        -13    1    4    4    0    0  0.75378787352E+02  0.85005962149E+02 -0.27788709619E+03  0.30021527844E+03  0.00000000000E+00 0.  1.
         14    1    4    4    0    0  0.33653478753E+02 -0.15251317308E+02 -0.12119737748E+03  0.12670423678E+03  0.00000000000E+00 0. -1.
         -5    1    5    5    0  502 -0.85042169535E+01  0.79088656036E+01  0.12357175246E+02  0.17597205494E+02  0.47000000000E+01 0.  1.
         11    1    6    6    0    0 -0.92559860554E+02 -0.11500090358E+03 -0.20301487526E+03  0.25101309764E+03  0.00000000000E+00 0. -1.
        -12    1    6    6    0    0 -0.12409539231E+02 -0.31669422821E+02 -0.14704642886E+03  0.15092912656E+03  0.00000000000E+00 0.  1.
</event>
<event>
12    1  0.1050869E+000  0.4593755E+03  0.7818608E-02  0.1024965E+00
         21   -1    0    0  503  502  0.00000000000E+00  0.00000000000E+00  0.51492085422E+03  0.51492085422E+03  0.00000000000E+00 0.  1.
         21   -1    0    0  501  503 -0.00000000000E+00 -0.00000000000E+00 -0.41102246522E+03  0.41102246522E+03  0.00000000000E+00 0. -1.
          6    2    1    2  501    0 -0.40318531984E+03  0.13731776502E+03  0.26646214919E+02  0.46014766362E+03  0.17207928651E+03 0.  0.
         24    2    3    3    0    0 -0.18306884130E+03  0.99514974101E+02  0.67204428014E+02  0.23310719636E+03  0.80031863184E+02 0.  0.
         -6    2    1    2    0  502  0.40318531984E+03 -0.13731776502E+03  0.77252174086E+02  0.46579565582E+03  0.17199745306E+03 0.  0.
        -24    2    5    5    0    0  0.34495755546E+03 -0.12925048853E+03  0.11703153925E+03  0.39466168793E+03  0.79750002439E+02 0.  0.
          5    1    3    3  501    0 -0.22011647854E+03  0.37802790917E+02 -0.40558213095E+02  0.22704046726E+03  0.47000000000E+01 0. -1.
        -11    1    4    4    0    0 -0.13291014381E+03  0.10697860149E+03  0.38756038840E+02  0.17496159022E+03  0.00000000000E+00 0.  1.
         12    1    4    4    0    0 -0.50158697485E+02 -0.74636273842E+01  0.28448389174E+02  0.58145606143E+02  0.00000000000E+00 0. -1.
         -5    1    5    5    0  502  0.58227764379E+02 -0.80672764843E+01 -0.39779365165E+02  0.71133967887E+02  0.47000000000E+01 0.  1.
         13    1    6    6    0    0  0.77200715388E+02 -0.23988385431E+02 -0.74453143553E+01  0.81183901100E+02  0.00000000000E+00 0. -1.
        -14    1    6    6    0    0  0.26775684007E+03 -0.10526210310E+03  0.12447685361E+03  0.31347778683E+03  0.00000000000E+00 0.  1.
</event>
<event>
12    1  0.1050869E+000  0.2511786E+03  0.7818608E-02  0.1113365E+00
         21   -1    0    0  503  502  0.00000000000E+00  0.00000000000E+00  0.84864887915E+03  0.84864887915E+03  0.00000000000E+00 0.  1.
         21   -1    0    0  501  503 -0.00000000000E+00 -0.00000000000E+00 -0.73892512537E+02  0.73892512537E+02  0.00000000000E+00 0.  1.
          6    2    1    2  501    0 -0.99223893853E+02  0.14576984261E+03  0.44594640988E+03  0.51181917418E+03  0.17887548308E+03 0.  0.
         24    2    3    3    0    0 -0.11004234429E+03  0.38301037600E+02  0.27987952523E+03  0.31366044211E+03  0.80461402430E+02 0.  0.
         -6    2    1    2    0  502  0.99223893853E+02 -0.14576984261E+03  0.32880995673E+03  0.41072221750E+03  0.17170475876E+03 0.  0.
        -24    2    5    5    0    0  0.77797243746E+02 -0.15537308242E+02  0.13139723661E+03  0.17320698345E+03  0.80259617777E+02 0.  0.
          5    1    3    3  501    0  0.10818450437E+02  0.10746880501E+03  0.16606688465E+03  0.19815873208E+03  0.47000000000E+01 0. -1.
        -11    1    4    4    0    0 -0.15665687453E+02 -0.17846396990E+02  0.18349381577E+02  0.30010122512E+02  0.00000000000E+00 0.  1.
         12    1    4    4    0    0 -0.94376656837E+02  0.56147434590E+02  0.26153014365E+03  0.28365031960E+03  0.00000000000E+00 0. -1.
         -5    1    5    5    0  502  0.21426650107E+02 -0.13023253436E+03  0.19741272012E+03  0.23751523405E+03  0.47000000000E+01 0.  1.
         11    1    6    6    0    0 -0.10597544556E+02 -0.21728685046E+02  0.30614946946E+02  0.39009212771E+02  0.00000000000E+00 0. -1.
        -12    1    6    6    0    0  0.88394788302E+02  0.61913768041E+01  0.10078228966E+03  0.13419777068E+03  0.00000000000E+00 0.  1.
</event>
<event>
12    1  0.1050869E+000  0.2017570E+03  0.7818608E-02  0.1148731E+00
         21   -1    0    0  501  502  0.00000000000E+00  0.00000000000E+00  0.10983474044E+03  0.10983474044E+03  0.00000000000E+00 0.  1.
         21   -1    0    0  502  503 -0.00000000000E+00 -0.00000000000E+00 -0.36701788468E+03  0.36701788468E+03  0.00000000000E+00 0. -1.
         -6    2    1    2    0  503  0.44834455462E+02 -0.91366334320E+02 -0.13792846682E+03  0.24439756030E+03  0.17420668781E+03 0.  0.
        -24    2    3    3    0    0  0.93452158137E+02 -0.36608953388E+02 -0.81415581789E+02  0.15178088818E+03  0.79595349928E+02 0.  0.
          6    2    1    2  501    0 -0.44834455462E+02  0.91366334320E+02 -0.11925467742E+03  0.23245506482E+03  0.17162675674E+03 0.  0.
         24    2    5    5    0    0  0.42488284756E+02  0.39896634627E+02 -0.60003616105E+02  0.11495115334E+03  0.78843756336E+02 0.  0.
          5    1    5    5  501    0 -0.87322740217E+02  0.51469699692E+02 -0.59251061313E+02  0.11750391148E+03  0.47000000000E+01 0. -1.
        -11    1    6    6    0    0  0.14663312763E+02  0.80107713255E+01  0.19015318069E+02  0.25313386176E+02  0.00000000000E+00 0.  1.
         12    1    6    6    0    0  0.27824971993E+02  0.31885863302E+02 -0.79018934173E+02  0.89637767168E+02  0.00000000000E+00 0. -1.
         -5    1    3    3    0  503 -0.48617702675E+02 -0.54757380932E+02 -0.56512885030E+02  0.92616672119E+02  0.47000000000E+01 0.  1.
         11    1    4    4    0    0  0.22330631484E+02 -0.32680012691E+02 -0.68900005097E+02  0.79459744741E+02  0.00000000000E+00 0. -1.
        -12    1    4    4    0    0  0.71121526653E+02 -0.39289406968E+01 -0.12515576692E+02  0.72321143439E+02  0.00000000000E+00 0.  1.
</event>
<event>
12    1  0.1050869E+000  0.2587748E+03  0.7818608E-02  0.1108726E+00
         21   -1    0    0  501  502  0.00000000000E+00  0.00000000000E+00  0.22116992784E+04  0.22116992784E+04  0.00000000000E+00 0.  1.
         21   -1    0    0  502  503 -0.00000000000E+00 -0.00000000000E+00 -0.34923905233E+02  0.34923905233E+02  0.00000000000E+00 0. -1.
         -6    2    1    2    0  503 -0.18227882375E+03 -0.28588876646E+02  0.15155612453E+04  0.15365749317E+04  0.17347547059E+03 0.  0.
        -24    2    3    3    0    0 -0.19088041499E+03  0.11588480955E+02  0.11315686847E+04  0.11503617988E+04  0.79466685561E+02 0.  0.
          6    2    1    2  501    0  0.18227882375E+03  0.28588876646E+02  0.66121412780E+03  0.71004825191E+03  0.18144283887E+03 0.  0.
         24    2    5    5    0    0  0.21115652306E+03  0.16108862930E+02  0.60374243459E+03  0.64436143603E+03  0.76486340085E+02 0.  0.
          5    1    5    5  501    0 -0.28877699310E+02  0.12480013716E+02  0.57471693212E+02  0.65686815880E+02  0.47000000000E+01 0. -1.
        -13    1    6    6    0    0  0.13862154977E+03  0.41997081600E+02  0.44387419890E+03  0.46690897761E+03  0.00000000000E+00 0.  1.
         14    1    6    6    0    0  0.72534973288E+02 -0.25888218670E+02  0.15986823569E+03  0.17745245842E+03  0.00000000000E+00 0. -1.
         -5    1    3    3    0  503  0.86015912369E+01 -0.40177357601E+02  0.38399256061E+03  0.38621313292E+03  0.47000000000E+01 0.  1.
         13    1    4    4    0    0 -0.18542647075E+02 -0.16289881790E+02  0.63656110677E+02  0.68273643786E+02  0.00000000000E+00 0. -1.
        -14    1    4    4    0    0 -0.17233776791E+03  0.27878362745E+02  0.10679125740E+04  0.10820881550E+04  0.00000000000E+00 0.  1.
</event>
<event>
12    1  0.1050869E+000  0.2888477E+03  0.7818608E-02  0.1092146E+00
         21   -1    0    0  503  502  0.00000000000E+00  0.00000000000E+00  0.56834620469E+03  0.56834620469E+03  0.00000000000E+00 0.  1.
         21   -1    0    0  501  503 -0.00000000000E+00 -0.00000000000E+00 -0.50028499734E+03  0.50028499734E+03  0.00000000000E+00 0.  1.
          6    2    1    2  501    0 -0.64837522077E+02 -0.22250897053E+03  0.48615807774E+03  0.56549331249E+03  0.17239159982E+03 0.  0.
         24    2    3    3    0    0 -0.76936379579E+01 -0.19900620827E+03  0.29954486518E+03  0.36886069966E+03  0.81660434159E+02 0.  0.
         -6    2    1    2    0  502  0.64837522077E+02  0.22250897053E+03 -0.41809687039E+03  0.50313788954E+03  0.15693500763E+03 0.  0.
        -24    2    5    5    0    0  0.71755331491E+01  0.75115987903E+02 -0.24686171243E+03  0.26991446529E+03  0.78861990810E+02 0.  0.
          5    1    3    3  501    0 -0.57143884119E+02 -0.23502762265E+02  0.18661321256E+03  0.19663261283E+03  0.47000000000E+01 0. -1.
        -13    1    4    4    0    0 -0.40480118960E+02 -0.15019638422E+03  0.23179773119E+03  0.27915548006E+03  0.00000000000E+00 0.  1.
         14    1    4    4    0    0  0.32786481002E+02 -0.48809824042E+02  0.67747133992E+02  0.89705219601E+02  0.00000000000E+00 0. -1.
         -5    1    5    5    0  502  0.57661988928E+02  0.14739298263E+03 -0.17123515796E+03  0.23322342424E+03  0.47000000000E+01 0.  1.
         13    1    6    6    0    0  0.27795307252E+02  0.70352098789E+02 -0.12406131937E+03  0.14530384672E+03  0.00000000000E+00 0. -1.
        -14    1    6    6    0    0 -0.20619774103E+02  0.47638891147E+01 -0.12280039306E+03  0.12461061857E+03  0.00000000000E+00 0.  1.
</event>
<event>
12    1  0.1117131E+000  0.6775556E+03  0.7818608E-02  0.9756678E-01
         21   -1    0    0  503  502  0.00000000000E+00  0.00000000000E+00  0.11570433684E+04  0.11570433684E+04  0.00000000000E+00 0.  1.
         21   -1    0    0  501  503 -0.00000000000E+00 -0.00000000000E+00 -0.54648532238E+03  0.54648532238E+03  0.00000000000E+00 0.  1.
          6    2    1    2  501    0  0.63807185257E+03 -0.14977914772E+03  0.75153550726E+03  0.10114620440E+04  0.16935278481E+03 0.  0.
         24    2    3    3    0    0  0.16735765104E+03 -0.51308474007E+02  0.17142089587E+03  0.25792147747E+03  0.80605348066E+02 0.  0.
         -6    2    1    2    0  502 -0.63807185257E+03  0.14977914772E+03 -0.14097746129E+03  0.69206664669E+03  0.17179090994E+03 0.  0.
        -24    2    5    5    0    0 -0.62719349310E+03  0.11716535228E+03 -0.13689738732E+03  0.65712762322E+03  0.77307315166E+02 0.  0.
          5    1    3    3  501    0  0.47071420153E+03 -0.98470673715E+02  0.58011461140E+03  0.75354056657E+03  0.47000000000E+01 0. -1.
        -11    1    4    4    0    0  0.88757145809E+02 -0.66990678386E+02  0.84313060103E+02  0.13955025628E+03  0.00000000000E+00 0.  1.
         12    1    4    4    0    0  0.78600505228E+02  0.15682204380E+02  0.87107835764E+02  0.11837122120E+03  0.00000000000E+00 0. -1.
         -5    1    5    5    0  502 -0.10878359468E+02  0.32613795438E+02 -0.40800739737E+01  0.34939023473E+02  0.47000000000E+01 0.  1.
         11    1    6    6    0    0 -0.36799392451E+03  0.10656012140E+03 -0.73954625174E+02  0.39018441093E+03  0.00000000000E+00 0. -1.
        -12    1    6    6    0    0 -0.25919956859E+03  0.10605230883E+02 -0.62942762143E+02  0.26694321228E+03  0.00000000000E+00 0.  1.
</event>
<event>
12    1  0.1050869E+000  0.1934403E+03  0.7818608E-02  0.1155680E+00
         21   -1    0    0  503  502  0.00000000000E+00  0.00000000000E+00  0.24185345430E+02  0.24185345430E+02  0.00000000000E+00 0. -1.
         21   -1    0    0  501  503 -0.00000000000E+00 -0.00000000000E+00 -0.15971502713E+04  0.15971502713E+04  0.00000000000E+00 0. -1.
          6    2    1    2  501    0 -0.42369287189E+02 -0.76770652784E+02 -0.94648134333E+03  0.96604661847E+03  0.17242461007E+03 0.  0.
         24    2    3    3    0    0  0.20568176851E+02 -0.58354855782E+01 -0.24970005968E+03  0.26282604882E+03  0.79185284905E+02 0.  0.
         -6    2    1    2    0  502  0.42369287189E+02  0.76770652784E+02 -0.62648358249E+03  0.65528899821E+03  0.17097690610E+03 0.  0.
        -24    2    5    5    0    0  0.17988913703E+01  0.86771732560E+01 -0.12656104153E+03  0.14909998615E+03  0.78323555148E+02 0.  0.
          5    1    3    3  501    0 -0.62937464040E+02 -0.70935167206E+02 -0.69678128366E+03  0.70322056965E+03  0.47000000000E+01 0. -1.
        -11    1    4    4    0    0  0.17593493813E+02 -0.32531574600E+02 -0.54979260658E+02  0.66261251671E+02  0.00000000000E+00 0.  1.
         12    1    4    4    0    0  0.29746830388E+01  0.26696089022E+02 -0.19472079902E+03  0.19656479715E+03  0.00000000000E+00 0. -1.
         -5    1    5    5    0  502  0.40570395818E+02  0.68093479528E+02 -0.49992254096E+03  0.50618901206E+03  0.47000000000E+01 0.  1.
         13    1    6    6    0    0  0.19501419247E+02 -0.24184848924E+02 -0.21979183466E+02  0.38056494531E+02  0.00000000000E+00 0. -1.
        -14    1    6    6    0    0 -0.17702527877E+02  0.32862022180E+02 -0.10458185807E+03  0.11104349162E+03  0.00000000000E+00 0.  1.
</event>
<event>
12    1  0.1050869E+000  0.1708648E+03  0.7818608E-02  0.1177428E+00
         21   -1    0    0  503  502  0.00000000000E+00  0.00000000000E+00  0.43326088655E+03  0.43326088655E+03  0.00000000000E+00 0.  1.
         21   -1    0    0  501  503 -0.00000000000E+00 -0.00000000000E+00 -0.70245320058E+02  0.70245320058E+02  0.00000000000E+00 0.  1.
          6    2    1    2  501    0  0.15600074439E+02  0.55700515760E+01  0.12370201873E+03  0.20945558379E+03  0.16821136806E+03 0.  0.
         24    2    3    3    0    0 -0.68369731877E+00 -0.14101332789E+02  0.15135028322E+03  0.17152616098E+03  0.79466978322E+02 0.  0.
         -6    2    1    2    0  502 -0.15600074439E+02 -0.55700515760E+01  0.23931354777E+03  0.29405062282E+03  0.17006000953E+03 0.  0.
        -24    2    5    5    0    0 -0.50899212347E+02  0.19664705724E+02  0.23177288261E+03  0.24975870771E+03  0.75387747654E+02 0.  0.
          5    1    3    3  501    0  0.16283771758E+02  0.19671384365E+02 -0.27648264485E+02  0.37929422808E+02  0.47000000000E+01 0. -1.
        -11    1    4    4    0    0  0.21093444164E+02  0.25271941846E+02  0.86881799200E+02  0.92908834153E+02  0.00000000000E+00 0.  1.
         12    1    4    4    0    0 -0.21777141483E+02 -0.39373274635E+02  0.64468484016E+02  0.78617326831E+02  0.00000000000E+00 0. -1.
         -5    1    5    5    0  502  0.35299137908E+02 -0.25234757300E+02  0.75406651568E+01  0.44291915109E+02  0.47000000000E+01 0.  1.
         13    1    6    6    0    0 -0.38550534842E+02  0.46323726038E+02  0.18456185082E+03  0.19415228072E+03  0.00000000000E+00 0. -1.
        -14    1    6    6    0    0 -0.12348677506E+02 -0.26659020314E+02  0.47211031786E+02  0.55606426990E+02  0.00000000000E+00 0.  1.
</event>
<event>
12    1  0.1050869E+000  0.3152660E+03  0.7818608E-02  0.1077935E+00
         21   -1    0    0  501  502  0.00000000000E+00  0.00000000000E+00  0.49553696124E+03  0.49553696124E+03  0.00000000000E+00 0. -1.
         21   -1    0    0  502  503 -0.00000000000E+00 -0.00000000000E+00 -0.20034590293E+03  0.20034590293E+03  0.00000000000E+00 0. -1.
         -6    2    1    2    0  503  0.86475501080E+02  0.24937419890E+03  0.13546934834E+03  0.34246572248E+03  0.17107110618E+03 0.  0.
        -24    2    3    3    0    0  0.84066386982E+02  0.13745593051E+03  0.19645096454E+02  0.18131718865E+03  0.80800388811E+02 0.  0.
          6    2    1    2  501    0 -0.86475501080E+02 -0.24937419890E+03  0.15972170998E+03  0.35341714169E+03  0.17241562586E+03 0.  0.
         24    2    5    5    0    0 -0.84721688472E+02 -0.26830562956E+03  0.16129424490E+03  0.33376929724E+03  0.78869734333E+02 0.  0.
          5    1    5    5  501    0 -0.17538126079E+01  0.18931430659E+02 -0.15725349218E+01  0.19647844450E+02  0.47000000000E+01 0. -1.
        -11    1    6    6    0    0 -0.99037978329E+02 -0.22916171763E+03  0.12876777998E+03  0.28089990235E+03  0.00000000000E+00 0.  1.
         12    1    6    6    0    0  0.14316289857E+02 -0.39143911932E+02  0.32526464917E+02  0.52869394896E+02  0.00000000000E+00 0. -1.
         -5    1    3    3    0  503  0.24091140977E+01  0.11191826839E+03  0.11582425189E+03  0.16114853383E+03  0.47000000000E+01 0.  1.
         13    1    4    4    0    0  0.16033931693E+02  0.82303146355E+02 -0.18375752658E+02  0.85840335223E+02  0.00000000000E+00 0. -1.
        -14    1    4    4    0    0  0.68032455289E+02  0.55152784152E+02  0.38020849111E+02  0.95476853423E+02  0.00000000000E+00 0.  1.
</event>
<event>
12    1  0.1050869E+000  0.1974887E+03  0.7818608E-02  0.1152238E+00
         21   -1    0    0  501  502  0.00000000000E+00  0.00000000000E+00  0.14399555910E+03  0.14399555910E+03  0.00000000000E+00 0.  1.
         21   -1    0    0  502  503 -0.00000000000E+00 -0.00000000000E+00 -0.28058075249E+03  0.28058075249E+03  0.00000000000E+00 0.  1.
         -6    2    1    2    0  503  0.87831085599E+02  0.39804651039E+02 -0.11197353898E+03  0.22555995172E+03  0.17041275934E+03 0.  0.
        -24    2    3    3    0    0  0.92487571698E+02 -0.27899473038E+02 -0.85729366252E+02  0.15264645584E+03  0.81357757633E+02 0.  0.
          6    2    1    2  501    0 -0.87831085599E+02 -0.39804651039E+02 -0.24611654411E+02  0.19901635987E+03  0.17234578069E+03 0.  0.
         24    2    5    5    0    0 -0.58690015248E+00 -0.77068870890E+01  0.38947213348E+02  0.86305960993E+02  0.76629582505E+02 0.  0.
          5    1    5    5  501    0 -0.87244185446E+02 -0.32097763950E+02 -0.63558867759E+02  0.11271039888E+03  0.47000000000E+01 0. -1.
        -13    1    6    6    0    0  0.76255052253E+01  0.21366831059E+02 -0.13047654118E+02  0.26171187925E+02  0.00000000000E+00 0.  1.
         14    1    6    6    0    0 -0.82124053778E+01 -0.29073718148E+02  0.51994867466E+02  0.60134773067E+02  0.00000000000E+00 0. -1.
         -5    1    3    3    0  503 -0.46564860997E+01  0.67704124077E+02 -0.26244172733E+02  0.72913495885E+02  0.47000000000E+01 0.  1.
         13    1    4    4    0    0  0.62525699785E+02  0.21133710059E+02 -0.29652473242E+02  0.72355829094E+02  0.00000000000E+00 0. -1.
        -14    1    4    4    0    0  0.29961871913E+02 -0.49033183096E+02 -0.56076893010E+02  0.80290626743E+02  0.00000000000E+00 0.  1.
</event>
<event>
12    1  0.1050869E+000  0.1858700E+03  0.7818608E-02  0.1162328E+00
         21   -1    0    0  501  502  0.00000000000E+00  0.00000000000E+00  0.46585879425E+03  0.46585879425E+03  0.00000000000E+00 0. -1.
         21   -1    0    0  502  503 -0.00000000000E+00 -0.00000000000E+00 -0.75596679450E+02  0.75596679450E+02  0.00000000000E+00 0. -1.
         -6    2    1    2    0  503  0.60996807128E+02 -0.35083916541E+02  0.15607668381E+03  0.24270886033E+03  0.17203536837E+03 0.  0.
        -24    2    3    3    0    0  0.92712926202E+02 -0.45378197056E+02  0.16353264386E+03  0.20821877826E+03  0.77183330854E+02 0.  0.
          6    2    1    2  501    0 -0.60996807128E+02  0.35083916541E+02  0.23418543099E+03  0.29874661337E+03  0.17162526398E+03 0.  0.
         24    2    5    5    0    0 -0.85619102322E+02 -0.24849568722E+02  0.17894486914E+03  0.21347123738E+03  0.74836964471E+02 0.  0.
          5    1    5    5  501    0  0.24622295193E+02  0.59933485263E+02  0.55240561846E+02  0.85275375985E+02  0.47000000000E+01 0. -1.
        -11    1    6    6    0    0 -0.43586690195E+02  0.75830759362E+01  0.25416401465E+02  0.51022505487E+02  0.00000000000E+00 0.  1.
         12    1    6    6    0    0 -0.42032412127E+02 -0.32432644658E+02  0.15352846767E+03  0.16244873190E+03  0.00000000000E+00 0. -1.
         -5    1    3    3    0  503 -0.31716119073E+02  0.10294280515E+02 -0.74559600471E+01  0.34490082062E+02  0.47000000000E+01 0.  1.
         13    1    4    4    0    0  0.34900055081E+02  0.21096508691E+02  0.50576456785E+02  0.64969642946E+02  0.00000000000E+00 0. -1.
        -14    1    4    4    0    0  0.57812871121E+02 -0.66474705747E+02  0.11295618707E+03  0.14324913532E+03  0.00000000000E+00 0.  1.
</event>
<event>
12    1  0.1050869E+000  0.1942196E+03  0.7818608E-02  0.1155682E+00
         21   -1    0    0  503  502  0.00000000000E+00  0.00000000000E+00  0.21487982311E+03  0.21487982311E+03  0.00000000000E+00 0.  1.
         21   -1    0    0  501  503 -0.00000000000E+00 -0.00000000000E+00 -0.18253020814E+03  0.18253020814E+03  0.00000000000E+00 0.  1.
          6    2    1    2  501    0 -0.40857994039E+02 -0.69324778149E+02  0.64607567907E+02  0.20052979661E+03  0.17193824751E+03 0.  0.
         24    2    3    3    0    0  0.11548553898E+02 -0.10111041714E+03  0.52715632937E+02  0.13791764739E+03  0.76718015841E+02 0.  0.
         -6    2    1    2    0  502  0.40857994039E+02  0.69324778149E+02 -0.32257952930E+02  0.19688023464E+03  0.17676524184E+03 0.  0.
        -24    2    5    5    0    0  0.17114012725E+02  0.56811432602E+01 -0.76763051821E+02  0.11553478155E+03  0.84442612486E+02 0.  0.
          5    1    3    3  501    0 -0.52406547937E+02  0.31785638989E+02  0.11891934970E+02  0.62612149220E+02  0.47000000000E+01 0. -1.
        -13    1    4    4    0    0 -0.10289253916E+02 -0.73914836989E+02  0.66939550737E+02  0.10025056272E+03  0.00000000000E+00 0.  1.
         14    1    4    4    0    0  0.21837807814E+02 -0.27195580150E+02 -0.14223917800E+02  0.37667084668E+02  0.00000000000E+00 0. -1.
         -5    1    5    5    0  502  0.23743981314E+02  0.63643634889E+02  0.44505098892E+02  0.81345453087E+02  0.47000000000E+01 0.  1.
         11    1    6    6    0    0  0.14540297878E+02 -0.19268126896E+02  0.93174587227E+01  0.25874621031E+02  0.00000000000E+00 0. -1.
        -12    1    6    6    0    0  0.25737148469E+01  0.24949270156E+02 -0.86080510544E+02  0.89660160523E+02  0.00000000000E+00 0.  1.
</event>
<event>
12    1  0.1050869E+000  0.2131731E+03  0.7818608E-02  0.1139250E+00
         21   -1    0    0  503  502  0.00000000000E+00  0.00000000000E+00  0.80858447443E+02  0.80858447443E+02  0.00000000000E+00 0. -1.
         21   -1    0    0  501  503 -0.00000000000E+00 -0.00000000000E+00 -0.80010901240E+03  0.80010901240E+03  0.00000000000E+00 0. -1.
          6    2    1    2  501    0  0.11412191145E+03 -0.54096465790E+02 -0.11868458167E+03  0.24398523721E+03  0.17173388648E+03 0.  0.
         24    2    3    3    0    0  0.11872064577E+03 -0.33055184753E+02 -0.14615417399E+03  0.20876376127E+03  0.83869115140E+02 0.  0.
         -6    2    1    2    0  502 -0.11412191145E+03  0.54096465790E+02 -0.60056598329E+03  0.63698222264E+03  0.17063590884E+03 0.  0.
        -24    2    5    5    0    0 -0.23987771579E+02 -0.23994120584E+02 -0.32986298169E+03  0.34113681043E+03  0.80084990674E+02 0.  0.
          5    1    3    3  501    0 -0.45987343184E+01 -0.21041281036E+02  0.27469592322E+02  0.35221475939E+02  0.47000000000E+01 0. -1.
        -11    1    4    4    0    0  0.15440896040E+02  0.13493744161E+02 -0.68283472993E+02  0.71296108491E+02  0.00000000000E+00 0.  1.
         12    1    4    4    0    0  0.10327974973E+03 -0.46548928914E+02 -0.77870700997E+02  0.13746765278E+03  0.00000000000E+00 0. -1.
         -5    1    5    5    0  502 -0.90134139869E+02  0.78090586373E+02 -0.27070300160E+03  0.29584541221E+03  0.47000000000E+01 0.  1.
         11    1    6    6    0    0 -0.53085411110E+02 -0.91166441623E+01 -0.22137670191E+03  0.22783506803E+03  0.00000000000E+00 0. -1.
        -12    1    6    6    0    0  0.29097639531E+02 -0.14877476421E+02 -0.10848627978E+03  0.11330174240E+03  0.00000000000E+00 0.  1.
</event>
<event>
12    1  0.1050869E+000  0.2780174E+03  0.7818608E-02  0.1097484E+00
         21   -1    0    0  503  502  0.00000000000E+00  0.00000000000E+00  0.10886821948E+04  0.10886821948E+04  0.00000000000E+00 0. -1.
         21   -1    0    0  501  503 -0.00000000000E+00 -0.00000000000E+00 -0.81841060876E+02  0.81841060876E+02  0.00000000000E+00 0. -1.
          6    2    1    2  501    0 -0.90857156002E+02 -0.19995850699E+03  0.73273403316E+03  0.78370456502E+03  0.17045601942E+03 0.  0.
         24    2    3    3    0    0 -0.89307014117E+02 -0.15510643190E+03  0.37179138813E+03  0.41995218415E+03  0.78084906989E+02 0.  0.
         -6    2    1    2    0  502  0.90857156002E+02  0.19995850699E+03  0.27410710080E+03  0.38681869070E+03  0.16203570425E+03 0.  0.
        -24    2    5    5    0    0  0.62519967118E+02  0.16700627434E+03  0.28131718021E+03  0.34251382465E+03  0.79853129170E+02 0.  0.
          5    1    3    3  501    0 -0.15501418851E+01 -0.44852075091E+02  0.36094264503E+03  0.36375238086E+03  0.47000000000E+01 0. -1.
        -11    1    4    4    0    0 -0.13747199437E+02 -0.10021673061E+03  0.21130693038E+03  0.23427120484E+03  0.00000000000E+00 0.  1.
         12    1    4    4    0    0 -0.75559814680E+02 -0.54889701289E+02  0.16048445775E+03  0.18568097932E+03  0.00000000000E+00 0. -1.
         -5    1    5    5    0  502  0.28337188884E+02  0.32952232647E+02 -0.72100794107E+01  0.44304866046E+02  0.47000000000E+01 0.  1.
         13    1    6    6    0    0  0.65305534789E+02  0.63050793607E+02  0.11758048417E+03  0.14854422138E+03  0.00000000000E+00 0. -1.
        -14    1    6    6    0    0 -0.27855676712E+01  0.10395548074E+03  0.16373669604E+03  0.19396960327E+03  0.00000000000E+00 0.  1.
</event>
<event>
12    1  0.1050869E+000  0.4100312E+03  0.7818608E-02  0.1040439E+00
         21   -1    0    0  501  502  0.00000000000E+00  0.00000000000E+00  0.63440432792E+03  0.63440432792E+03  0.00000000000E+00 0.  1.
         21   -1    0    0  502  503 -0.00000000000E+00 -0.00000000000E+00 -0.27081489627E+03  0.27081489627E+03  0.00000000000E+00 0.  1.
         -6    2    1    2    0  503 -0.35153505042E+03  0.12196412973E+03  0.25158915945E+03  0.48106411509E+03  0.17225979525E+03 0.  0.
        -24    2    3    3    0    0 -0.32090261670E+03  0.53328172411E+02  0.20447512643E+03  0.39223246116E+03  0.78827932124E+02 0.  0.
          6    2    1    2  501    0  0.35153505042E+03 -0.12196412973E+03  0.11200027219E+03  0.42415510910E+03  0.17003339376E+03 0.  0.
         24    2    5    5    0    0  0.19765547603E+03 -0.89227275158E+02  0.13092783599E+03  0.26562761075E+03  0.79917053995E+02 0.  0.
          5    1    5    5  501    0  0.15387957439E+03 -0.32736854568E+02 -0.18927563800E+02  0.15852749835E+03  0.47000000000E+01 0. -1.
        -13    1    6    6    0    0  0.39024157128E+02  0.10290110784E+02  0.42252499182E+02  0.58429828912E+02  0.00000000000E+00 0.  1.
         14    1    6    6    0    0  0.15863131890E+03 -0.99517385941E+02  0.88675336812E+02  0.20719778184E+03  0.00000000000E+00 0. -1.
         -5    1    3    3    0  503 -0.30632433723E+02  0.68635957314E+02  0.47114033026E+02  0.88831653932E+02  0.47000000000E+01 0.  1.
         11    1    4    4    0    0 -0.23596775289E+03  0.29850818509E+02  0.10693288899E+03  0.26078054858E+03  0.00000000000E+00 0. -1.
        -12    1    4    4    0    0 -0.84934863811E+02  0.23477353903E+02  0.97542237441E+02  0.13145191258E+03  0.00000000000E+00 0.  1.
</event>
<event>
12    1  0.1050869E+000  0.2350382E+03  0.7818608E-02  0.1123382E+00
         21   -1    0    0  503  502  0.00000000000E+00  0.00000000000E+00  0.37382916528E+03  0.37382916528E+03  0.00000000000E+00 0. -1.
         21   -1    0    0  501  503 -0.00000000000E+00 -0.00000000000E+00 -0.20875083873E+03  0.20875083873E+03  0.00000000000E+00 0. -1.
          6    2    1    2  501    0 -0.13955263413E+03  0.74417296123E+02  0.24126667059E+03  0.33682722924E+03  0.17386806597E+03 0.  0.
         24    2    3    3    0    0 -0.64322819797E+02  0.37164498345E+02  0.22659305435E+03  0.25147676984E+03  0.79859429028E+02 0.  0.
         -6    2    1    2    0  502  0.13955263413E+03 -0.74417296123E+02 -0.76188344034E+02  0.24575277477E+03  0.17197933273E+03 0.  0.
        -24    2    5    5    0    0  0.25184130273E+02 -0.79685502035E+02 -0.59706930483E+02  0.12998734099E+03  0.79672903905E+02 0.  0.
          5    1    3    3  501    0 -0.75229814331E+02  0.37252797778E+02  0.14673616245E+02  0.85350459402E+02  0.47000000000E+01 0. -1.
        -11    1    4    4    0    0  0.70664209497E+01 -0.51860630585E+01  0.98188863044E+02  0.98579320250E+02  0.00000000000E+00 0.  1.
         12    1    4    4    0    0 -0.71389240747E+02  0.42350561404E+02  0.12840419130E+03  0.15289744959E+03  0.00000000000E+00 0. -1.
         -5    1    5    5    0  502  0.11436850385E+03  0.52682059114E+01 -0.16481413552E+02  0.11576543379E+03  0.47000000000E+01 0.  1.
         11    1    6    6    0    0 -0.14179916612E+02  0.89978341329E+01 -0.15485615216E+01  0.16865025852E+02  0.00000000000E+00 0. -1.
        -12    1    6    6    0    0  0.39364046885E+02 -0.88683336167E+02 -0.58158368961E+02  0.11312231513E+03  0.00000000000E+00 0.  1.
</event>
<event>
12    1  0.1050869E+000  0.1865436E+03  0.7818608E-02  0.1161952E+00
         21   -1    0    0  503  502  0.00000000000E+00  0.00000000000E+00  0.32457402939E+02  0.32457402939E+02  0.00000000000E+00 0. -1.
         21   -1    0    0  501  503 -0.00000000000E+00 -0.00000000000E+00 -0.13178098283E+04  0.13178098283E+04  0.00000000000E+00 0. -1.
          6    2    1    2  501    0  0.18102292937E+02 -0.70031035299E+02 -0.34830543067E+03  0.39511415182E+03  0.17194906518E+03 0.  0.
         24    2    3    3    0    0  0.41770714912E+02 -0.10541977796E+03 -0.23236765486E+03  0.27151716493E+03  0.82877751053E+02 0.  0.
         -6    2    1    2    0  502 -0.18102292937E+02  0.70031035299E+02 -0.93704699471E+03  0.95515307944E+03  0.17037692320E+03 0.  0.
        -24    2    5    5    0    0  0.15450178376E+02 -0.10945791831E+02 -0.25783848908E+03  0.27029594179E+03  0.78871359383E+02 0.  0.
          5    1    3    3  501    0 -0.23668421974E+02  0.35388742663E+02 -0.11593777582E+03  0.12359698689E+03  0.47000000000E+01 0. -1.
        -13    1    4    4    0    0 -0.13751553195E+02 -0.23832459497E+02 -0.11916862164E+02  0.29985045352E+02  0.00000000000E+00 0.  1.
         14    1    4    4    0    0  0.55522268106E+02 -0.81587318464E+02 -0.22045079269E+03  0.24153211958E+03  0.00000000000E+00 0. -1.
         -5    1    5    5    0  502 -0.33552471313E+02  0.80976827130E+02 -0.67920850563E+03  0.68485713765E+03  0.47000000000E+01 0.  1.
         13    1    6    6    0    0  0.32221003635E+02  0.11537429392E+02 -0.50108830376E+02  0.60681135733E+02  0.00000000000E+00 0. -1.
        -14    1    6    6    0    0 -0.16770825259E+02 -0.22483221223E+02 -0.20772965870E+03  0.20961480606E+03  0.00000000000E+00 0.  1.
</event>
<event>
12    1  0.1050869E+000  0.2588639E+03  0.7818608E-02  0.1107837E+00
         21   -1    0    0  503  502  0.00000000000E+00  0.00000000000E+00  0.18711014576E+03  0.18711014576E+03  0.00000000000E+00 0.  1.
         21   -1    0    0  501  503 -0.00000000000E+00 -0.00000000000E+00 -0.35886116914E+03  0.35886116914E+03  0.00000000000E+00 0.  1.
          6    2    1    2  501    0 -0.13633058345E+03  0.13777404893E+03 -0.98815429907E+02  0.27702875171E+03  0.17150138060E+03 0.  0.
         24    2    3    3    0    0 -0.73388163143E+02  0.15163792047E+02 -0.84661466268E+02  0.13840174117E+03  0.79823023048E+02 0.  0.
         -6    2    1    2    0  502  0.13633058345E+03 -0.13777404893E+03 -0.72935593473E+02  0.26894256318E+03  0.17158900009E+03 0.  0.
        -24    2    5    5    0    0  0.41237589328E+01 -0.65129974074E+02 -0.38530650209E+01  0.10295975745E+03  0.79542106045E+02 0.  0.
          5    1    3    3  501    0 -0.62942420303E+02  0.12261025688E+03 -0.14153963639E+02  0.13862701055E+03  0.47000000000E+01 0. -1.
        -11    1    4    4    0    0 -0.22554225699E+02 -0.32337359298E+02 -0.24451815364E+02  0.46392770750E+02  0.00000000000E+00 0.  1.
         12    1    4    4    0    0 -0.50833937444E+02  0.47501151345E+02 -0.60209650904E+02  0.92008970417E+02  0.00000000000E+00 0. -1.
         -5    1    5    5    0  502  0.13220682451E+03 -0.72644074856E+02 -0.69082528452E+02  0.16598280573E+03  0.47000000000E+01 0.  1.
         11    1    6    6    0    0 -0.64278187283E+01 -0.97130445131E+01 -0.36133542448E+02  0.37964364570E+02  0.00000000000E+00 0. -1.
        -12    1    6    6    0    0  0.10551577661E+02 -0.55416929561E+02  0.32280477427E+02  0.64995392883E+02  0.00000000000E+00 0.  1.
</event>
<event>
12    1  0.1050869E+000  0.2181980E+03  0.7818608E-02  0.1135250E+00
         21   -1    0    0  501  502  0.00000000000E+00  0.00000000000E+00  0.57782206714E+03  0.57782206714E+03  0.00000000000E+00 0. -1.
         21   -1    0    0  502  503 -0.00000000000E+00 -0.00000000000E+00 -0.89159841212E+02  0.89159841212E+02  0.00000000000E+00 0. -1.
         -6    2    1    2    0  503 -0.31445330277E+02  0.13005768058E+03  0.33644235526E+03  0.40100352756E+03  0.17235591557E+03 0.  0.
        -24    2    3    3    0    0  0.42081300666E+02  0.38371269303E+02  0.18638991134E+03  0.21034574672E+03  0.79126126782E+02 0.  0.
          6    2    1    2  501    0  0.31445330277E+02 -0.13005768058E+03  0.15221987068E+03  0.26597838079E+03  0.17224924077E+03 0.  0.
         24    2    5    5    0    0  0.26278728273E+01 -0.12905385744E+03  0.51651259008E+02  0.16125212254E+03  0.81685926771E+02 0.  0.
          5    1    5    5  501    0  0.28817457450E+02 -0.10038231442E+01  0.10056861167E+03  0.10472625825E+03  0.47000000000E+01 0. -1.
        -11    1    6    6    0    0  0.25432938333E+02 -0.97816654393E+02  0.65196610106E+02  0.12027273256E+03  0.00000000000E+00 0.  1.
         12    1    6    6    0    0 -0.22805065505E+02 -0.31237203042E+02 -0.13545351098E+02  0.40979389978E+02  0.00000000000E+00 0. -1.
         -5    1    3    3    0  503 -0.73526630943E+02  0.91686411277E+02  0.15005244391E+03  0.19065778084E+03  0.47000000000E+01 0.  1.
         13    1    4    4    0    0  0.26560187212E+02  0.51839519778E+02  0.17943262957E+03  0.18865006735E+03  0.00000000000E+00 0. -1.
        -14    1    4    4    0    0  0.15521113454E+02 -0.13468250475E+02  0.69572817674E+01  0.21695679369E+02  0.00000000000E+00 0.  1.
</event>
<event>
12    1  0.1050869E+000  0.2096757E+03  0.7818608E-02  0.1141874E+00
         21   -1    0    0  501  502  0.00000000000E+00  0.00000000000E+00  0.51371573904E+03  0.51371573904E+03  0.00000000000E+00 0.  1.
         21   -1    0    0  502  503 -0.00000000000E+00 -0.00000000000E+00 -0.10717182356E+03  0.10717182356E+03  0.00000000000E+00 0.  1.
         -6    2    1    2    0  503  0.32581517269E+02 -0.11536653869E+03  0.63692207804E+02  0.21913605370E+03  0.17202592589E+03 0.  0.
        -24    2    3    3    0    0 -0.30473039114E+01 -0.61650453190E+02 -0.35744782817E+02  0.10054163628E+03  0.70858074257E+02 0.  0.
          6    2    1    2  501    0 -0.32581517269E+02  0.11536653869E+03  0.34285170768E+03  0.40175150890E+03  0.17171484481E+03 0.  0.
         24    2    5    5    0    0 -0.88534127358E+01  0.32857143935E+02  0.56544741150E+02  0.10281239763E+03  0.78835946936E+02 0.  0.
          5    1    5    5  501    0 -0.23728104533E+02  0.82509394760E+02  0.28630696652E+03  0.29893911127E+03  0.47000000000E+01 0. -1.
        -13    1    6    6    0    0  0.31438629453E+02  0.22245460804E+02  0.45688627183E+02  0.59755322794E+02  0.00000000000E+00 0.  1.
         14    1    6    6    0    0 -0.40292042189E+02  0.10611683131E+02  0.10856113967E+02  0.43057074832E+02  0.00000000000E+00 0. -1.
         -5    1    3    3    0  503  0.35628821181E+02 -0.53716085505E+02  0.99436990620E+02  0.11859441742E+03  0.47000000000E+01 0.  1.
         11    1    4    4    0    0 -0.27279023799E+02 -0.36944693814E+02  0.60038763056E+01  0.46315246638E+02  0.00000000000E+00 0. -1.
        -12    1    4    4    0    0  0.24231719887E+02 -0.24705759376E+02 -0.41748659122E+02  0.54226389641E+02  0.00000000000E+00 0.  1.
</event>
<event>
12    1  0.1050869E+000  0.2295290E+03  0.7818608E-02  0.1127740E+00
         21   -1    0    0  501  502  0.00000000000E+00  0.00000000000E+00  0.26977460207E+03  0.26977460207E+03  0.00000000000E+00 0.  1.
         21   -1    0    0  502  503 -0.00000000000E+00 -0.00000000000E+00 -0.29559817996E+03  0.29559817996E+03  0.00000000000E+00 0.  1.
         -6    2    1    2    0  503 -0.11791666894E+03 -0.88033501669E+02 -0.18047369559E+03  0.28860529282E+03  0.17049346618E+03 0.  0.
        -24    2    3    3    0    0 -0.65059943941E+02  0.20392732621E+02 -0.76176504039E+02  0.12907449383E+03  0.78795338314E+02 0.  0.
          6    2    1    2  501    0  0.11791666894E+03  0.88033501669E+02  0.15465011771E+03  0.27676748921E+03  0.17615148579E+03 0.  0.
         24    2    5    5    0    0  0.30239569606E+02  0.10118139117E+03  0.12598952555E+03  0.18347407953E+03  0.81469453297E+02 0.  0.
          5    1    5    5  501    0  0.87677099336E+02 -0.13147889505E+02  0.28660592153E+02  0.93293409676E+02  0.47000000000E+01 0. -1.
        -13    1    6    6    0    0 -0.12955124596E+02 -0.61690194671E+01  0.29514996016E+02  0.32818090199E+02  0.00000000000E+00 0.  1.
         14    1    6    6    0    0  0.43194694202E+02  0.10735041064E+03  0.96474529537E+02  0.15065598933E+03  0.00000000000E+00 0. -1.
         -5    1    3    3    0  503 -0.52856725001E+02 -0.10842623429E+03 -0.10429719155E+03  0.15953079899E+03  0.47000000000E+01 0.  1.
         11    1    4    4    0    0 -0.29466899877E+02  0.51076660541E+01 -0.84341783049E+02  0.89486997987E+02  0.00000000000E+00 0. -1.
        -12    1    4    4    0    0 -0.35593044063E+02  0.15285066567E+02  0.81652790098E+01  0.39587495841E+02  0.00000000000E+00 0.  1.
</event>
<event>
12    1  0.1050869E+000  0.2261164E+03  0.7818608E-02  0.1129776E+00
         21   -1    0    0  501  502  0.00000000000E+00  0.00000000000E+00  0.61447561527E+02  0.61447561527E+02  0.00000000000E+00 0.  1.
         21   -1    0    0  502  503 -0.00000000000E+00 -0.00000000000E+00 -0.12667081423E+04  0.12667081423E+04  0.00000000000E+00 0.  1.
         -6    2    1    2    0  503 -0.12747462607E+03 -0.66613658757E+02 -0.20846437850E+03  0.30603472204E+03  0.17179259054E+03 0.  0.
        -24    2    3    3    0    0 -0.64704633173E+02  0.93943266816E+01 -0.17145686060E+03  0.20063580250E+03  0.81131543007E+02 0.  0.
          6    2    1    2  501    0  0.12747462607E+03  0.66613658757E+02 -0.99679620223E+03  0.10221209817E+04  0.17447484838E+03 0.  0.
         24    2    5    5    0    0  0.97218500420E+02 -0.11383233683E+02 -0.55197882220E+03  0.56948035172E+03  0.10023091344E+03 0.  0.
          5    1    5    5  501    0  0.30256125652E+02  0.77996892440E+02 -0.44481738003E+03  0.45264063002E+03  0.47000000000E+01 0. -1.
        -13    1    6    6    0    0 -0.16474994590E+02 -0.16221934019E+02 -0.55431071262E+02  0.60059805622E+02  0.00000000000E+00 0.  1.
         14    1    6    6    0    0  0.11369349501E+03  0.48387003359E+01 -0.49654775094E+03  0.50942054610E+03  0.00000000000E+00 0. -1.
         -5    1    3    3    0  503 -0.62769992899E+02 -0.76007985438E+02 -0.37007517902E+02  0.10539891954E+03  0.47000000000E+01 0.  1.
         11    1    4    4    0    0 -0.69468674114E+02 -0.99145253322E+01 -0.77296230542E+02  0.10439780530E+03  0.00000000000E+00 0. -1.
        -12    1    4    4    0    0  0.47640409412E+01  0.19308852014E+02 -0.94160630057E+02  0.96237997199E+02  0.00000000000E+00 0.  1.
</event>
<event>
12    1  0.1050869E+000  0.1729694E+03  0.7818608E-02  0.1174899E+00
         21   -1    0    0  501  502  0.00000000000E+00  0.00000000000E+00  0.23172408757E+04  0.23172408757E+04  0.00000000000E+00 0.  1.
         21   -1    0    0  502  503 -0.00000000000E+00 -0.00000000000E+00 -0.13109438168E+02  0.13109438168E+02  0.00000000000E+00 0.  1.
         -6    2    1    2    0  503  0.17879897562E+02 -0.25004835004E+01  0.13053230232E+04  0.13166754806E+04  0.17158141866E+03 0.  0.
        -24    2    3    3    0    0 -0.18041882036E+02 -0.31035606007E+02  0.11786211840E+04  0.11818419776E+04  0.79459715784E+02 0.  0.
          6    2    1    2  501    0 -0.17879897562E+02  0.25004835004E+01  0.99880841433E+03  0.10136748332E+04  0.17202463734E+03 0.  0.
         24    2    5    5    0    0  0.23753757477E+02  0.35012688801E+02  0.31737832991E+03  0.33018419345E+03  0.80637881530E+02 0.  0.
          5    1    5    5  501    0 -0.41633655038E+02 -0.32512205300E+02  0.68143008442E+03  0.68349063979E+03  0.47000000000E+01 0. -1.
        -13    1    6    6    0    0 -0.23044039191E+02  0.77606598154E+01  0.34738456545E+02  0.42403018125E+02  0.00000000000E+00 0.  1.
         14    1    6    6    0    0  0.46797796667E+02  0.27252028985E+02  0.28263987336E+03  0.28778117533E+03  0.00000000000E+00 0. -1.
         -5    1    3    3    0  503  0.35921779598E+02  0.28535122507E+02  0.12670183920E+03  0.13483350297E+03  0.47000000000E+01 0.  1.
         13    1    4    4    0    0  0.21112182088E+02 -0.39812937880E+02  0.49620688731E+03  0.49824900328E+03  0.00000000000E+00 0. -1.
        -14    1    4    4    0    0 -0.39154064124E+02  0.87773318729E+01  0.68241429668E+03  0.68359297437E+03  0.00000000000E+00 0.  1.
</event>
<event>
12    1  0.1050869E+000  0.2329815E+03  0.7818608E-02  0.1127163E+00
         21   -1    0    0  503  502  0.00000000000E+00  0.00000000000E+00  0.27661176043E+03  0.27661176043E+03  0.00000000000E+00 0. -1.
         21   -1    0    0  501  503 -0.00000000000E+00 -0.00000000000E+00 -0.19002118531E+03  0.19002118531E+03  0.00000000000E+00 0. -1.
          6    2    1    2  501    0  0.38558319807E+02 -0.12954241282E+03  0.37564725415E+01  0.23301178981E+03  0.18976933989E+03 0.  0.
         24    2    3    3    0    0  0.59700289178E+02 -0.29940559667E+02  0.55338555826E+02  0.11877382180E+03  0.81143720291E+02 0.  0.
         -6    2    1    2    0  502 -0.38558319807E+02  0.12954241282E+03  0.82834102581E+02  0.23362115594E+03  0.17160820262E+03 0.  0.
        -24    2    5    5    0    0 -0.28217302732E+02  0.12532445326E+03  0.18332132808E+01  0.15171900771E+03  0.80702303993E+02 0.  0.
          5    1    3    3  501    0 -0.21141969371E+02 -0.99601853150E+02 -0.51582083285E+02  0.11423796801E+03  0.47000000000E+01 0. -1.
        -11    1    4    4    0    0  0.80104486688E+02 -0.26565337333E+02  0.43554734596E+02  0.94970842057E+02  0.00000000000E+00 0.  1.
         12    1    4    4    0    0 -0.20404197510E+02 -0.33752223340E+01  0.11783821230E+02  0.23802979742E+02  0.00000000000E+00 0. -1.
         -5    1    5    5    0  502 -0.10341017075E+02  0.42179595552E+01  0.81000889300E+02  0.81902148228E+02  0.47000000000E+01 0.  1.
         11    1    6    6    0    0 -0.23493594297E+02  0.12611801992E+02  0.25002047211E+02  0.36552823246E+02  0.00000000000E+00 0. -1.
        -12    1    6    6    0    0 -0.47237084347E+01  0.11271265127E+03 -0.23168833931E+02  0.11516618446E+03  0.00000000000E+00 0.  1.
</event>
<event>
12    1  0.1050869E+000  0.1886698E+03  0.7818608E-02  0.1159816E+00
         21   -1    0    0  501  502  0.00000000000E+00  0.00000000000E+00  0.15847070550E+03  0.15847070550E+03  0.00000000000E+00 0. -1.
         21   -1    0    0  502  503 -0.00000000000E+00 -0.00000000000E+00 -0.25438539992E+03  0.25438539992E+03  0.00000000000E+00 0. -1.
         -6    2    1    2    0  503 -0.13592204184E+02  0.77011621841E+02  0.23641690469E+02  0.18949532626E+03  0.17097956379E+03 0.  0.
        -24    2    3    3    0    0 -0.33474910034E+02  0.16746835444E+02  0.68690927027E+02  0.11152937096E+03  0.79494220114E+02 0.  0.
          6    2    1    2  501    0  0.13592204184E+02 -0.77011621841E+02 -0.11955638489E+03  0.22336077916E+03  0.17169965227E+03 0.  0.
         24    2    5    5    0    0  0.68067333726E+02 -0.46594007432E+02 -0.10966133115E+03  0.16001432628E+03  0.82309255951E+02 0.  0.
          5    1    5    5  501    0 -0.54475129542E+02 -0.30417614408E+02 -0.98950537354E+01  0.63346452887E+02  0.47000000000E+01 0. -1.
        -13    1    6    6    0    0  0.27063844637E+02 -0.65869575589E+02 -0.67928921051E+02  0.98415400167E+02  0.00000000000E+00 0.  1.
         14    1    6    6    0    0  0.41003489089E+02  0.19275568157E+02 -0.41732410099E+02  0.61598926110E+02  0.00000000000E+00 0. -1.
         -5    1    3    3    0  503  0.19882705850E+02  0.60264786396E+02 -0.45049236558E+02  0.77965955300E+02  0.47000000000E+01 0.  1.
         13    1    4    4    0    0 -0.44882217109E+02  0.24925222953E+02  0.11460033302E+02  0.52602400279E+02  0.00000000000E+00 0. -1.
        -14    1    4    4    0    0  0.11407307075E+02 -0.81783875086E+01  0.57230893725E+02  0.58926970680E+02  0.00000000000E+00 0.  1.
</event>
<event>
12    1  0.1050869E+000  0.1798115E+03  0.7818608E-02  0.1168168E+00
         21   -1    0    0  501  502  0.00000000000E+00  0.00000000000E+00  0.97682042528E+02  0.97682042528E+02  0.00000000000E+00 0. -1.
         21   -1    0    0  502  503 -0.00000000000E+00 -0.00000000000E+00 -0.33886539282E+03  0.33886539282E+03  0.00000000000E+00 0. -1.
         -6    2    1    2    0  503 -0.42634257135E+02  0.23119208858E+02 -0.84770674839E+02  0.19879193815E+03  0.17314730625E+03 0.  0.
        -24    2    3    3    0    0 -0.24723846615E+02  0.23650311040E+02 -0.12608295573E+03  0.15351656486E+03  0.80621449734E+02 0.  0.
          6    2    1    2  501    0  0.42634257135E+02 -0.23119208858E+02 -0.15641267546E+03  0.23775549720E+03  0.17236755410E+03 0.  0.
         24    2    5    5    0    0  0.30393816275E+02 -0.27917148432E+02 -0.10166767371E+02  0.90844625417E+02  0.80288427336E+02 0.  0.
          5    1    5    5  501    0  0.12240440860E+02  0.47979395734E+01 -0.14624590809E+03  0.14691087179E+03  0.47000000000E+01 0. -1.
        -11    1    6    6    0    0 -0.75845140762E+01 -0.42450312381E+02  0.11689755825E+02  0.44678901802E+02  0.00000000000E+00 0.  1.
         12    1    6    6    0    0  0.37978330351E+02  0.14533163949E+02 -0.21856523196E+02  0.46165723615E+02  0.00000000000E+00 0. -1.
         -5    1    3    3    0  503 -0.17910410520E+02 -0.53110218171E+00  0.41312280889E+02  0.45275373293E+02  0.47000000000E+01 0.  1.
         11    1    4    4    0    0 -0.10100844538E+02 -0.23431904819E+02 -0.10013638065E+02  0.27410840394E+02  0.00000000000E+00 0. -1.
        -12    1    4    4    0    0 -0.14623002077E+02  0.47082215859E+02 -0.11606931766E+03  0.12610572446E+03  0.00000000000E+00 0.  1.
</event>
<event>
12    1  0.1050869E+000  0.5811844E+03  0.7818608E-02  0.9945590E-01
         21   -1    0    0  501  502  0.00000000000E+00  0.00000000000E+00  0.10107698825E+04  0.10107698825E+04  0.00000000000E+00 0.  1.
         21   -1    0    0  502  503 -0.00000000000E+00 -0.00000000000E+00 -0.41526461417E+03  0.41526461417E+03  0.00000000000E+00 0.  1.
         -6    2    1    2    0  503 -0.10492078903E+01  0.55435018059E+03  0.61343596633E+03  0.84457351605E+03  0.17232386853E+03 0.  0.
        -24    2    3    3    0    0 -0.18743319922E+02  0.54939455110E+03  0.56359386750E+03  0.79124468069E+03  0.79021594650E+02 0.  0.
          6    2    1    2  501    0  0.10492078903E+01 -0.55435018059E+03 -0.17930697983E+02  0.58146098064E+03  0.17455697787E+03 0.  0.
         24    2    5    5    0    0  0.29468431756E-01 -0.14195419706E+03  0.34699406067E+02  0.16569240925E+03  0.78095651434E+02 0.  0.
          5    1    5    5  501    0  0.10197394586E+01 -0.41239598353E+03 -0.52630104049E+02  0.41576857139E+03  0.47000000000E+01 0. -1.
        -11    1    6    6    0    0 -0.98565777873E+01 -0.64835517894E+02 -0.22320820663E+02  0.69274927220E+02  0.00000000000E+00 0.  1.
         12    1    6    6    0    0  0.98860462190E+01 -0.77118679162E+02  0.57020226730E+02  0.96417482035E+02  0.00000000000E+00 0. -1.
         -5    1    3    3    0  503  0.17694112032E+02  0.49556294862E+01  0.49842098833E+02  0.53328835355E+02  0.47000000000E+01 0.  1.
         13    1    4    4    0    0 -0.44093411459E+01  0.46838253762E+03  0.43918820895E+03  0.64209650888E+03  0.00000000000E+00 0. -1.
        -14    1    4    4    0    0 -0.14333978777E+02  0.81012013483E+02  0.12440565855E+03  0.14914817181E+03  0.00000000000E+00 0.  1.
</event>
<event>
12    1  0.1050869E+000  0.1801628E+03  0.7818608E-02  0.1167796E+00
         21   -1    0    0  501  502  0.00000000000E+00  0.00000000000E+00  0.43411602287E+02  0.43411602287E+02  0.00000000000E+00 0. -1.
         21   -1    0    0  502  503 -0.00000000000E+00 -0.00000000000E+00 -0.79273129515E+03  0.79273129515E+03  0.00000000000E+00 0. -1.
         -6    2    1    2    0  503 -0.49580129878E+02  0.31462621160E+01 -0.27280948740E+03  0.32693063753E+03  0.17317776156E+03 0.  0.
        -24    2    3    3    0    0  0.11927598664E+02  0.55373087815E+02 -0.16717739938E+03  0.19392285576E+03  0.80307811942E+02 0.  0.
          6    2    1    2  501    0  0.49580129878E+02 -0.31462621160E+01 -0.47651020547E+03  0.50921225991E+03  0.17253133478E+03 0.  0.
         24    2    5    5    0    0 -0.15612568695E+02  0.44220828091E+02 -0.31721336868E+03  0.33063090199E+03  0.80580631348E+02 0.  0.
          5    1    5    5  501    0  0.65192698573E+02 -0.47367090207E+02 -0.15929683679E+03  0.17858135791E+03  0.47000000000E+01 0. -1.
        -11    1    6    6    0    0  0.19383696916E+02 -0.34494832172E+01 -0.18186016937E+03  0.18292279203E+03  0.00000000000E+00 0.  1.
         12    1    6    6    0    0 -0.34996265611E+02  0.47670311308E+02 -0.13535319930E+03  0.14770810996E+03  0.00000000000E+00 0. -1.
         -5    1    3    3    0  503 -0.61507728542E+02 -0.52226825699E+02 -0.10563208802E+03  0.13300778177E+03  0.47000000000E+01 0.  1.
         13    1    4    4    0    0  0.80161892947E+01  0.67480402664E+02 -0.76361788319E+02  0.10222028541E+03  0.00000000000E+00 0. -1.
        -14    1    4    4    0    0  0.39114093690E+01 -0.12107314849E+02 -0.90815611060E+02  0.91702570347E+02  0.00000000000E+00 0.  1.
</event>
<event>
12    1  0.1050869E+000  0.2550810E+03  0.7818608E-02  0.1110228E+00
         21   -1    0    0  501  502  0.00000000000E+00  0.00000000000E+00  0.48872488745E+03  0.48872488745E+03  0.00000000000E+00 0.  1.
         21   -1    0    0  502  503 -0.00000000000E+00 -0.00000000000E+00 -0.14469216736E+03  0.14469216736E+03  0.00000000000E+00 0.  1.
         -6    2    1    2    0  503  0.22675425210E+01 -0.18852777568E+03  0.81119167522E+02  0.26709771168E+03  0.17091812160E+03 0.  0.
        -24    2    3    3    0    0  0.34867457504E+02 -0.16383903056E+03  0.11067280388E+03  0.21642428655E+03  0.80821004459E+02 0.  0.
          6    2    1    2  501    0 -0.22675425210E+01  0.18852777568E+03  0.26291355257E+03  0.36631934313E+03  0.17180937423E+03 0.  0.
         24    2    5    5    0    0  0.48784251725E+01  0.12730394457E+02  0.79551591074E+02  0.11215505960E+03  0.77874513004E+02 0.  0.
          5    1    5    5  501    0 -0.71459676935E+01  0.17579738123E+03  0.18336196149E+03  0.25416428353E+03  0.47000000000E+01 0. -1.
        -11    1    6    6    0    0 -0.50802717768E+01  0.40804779163E+02  0.69431958163E+02  0.80694708490E+02  0.00000000000E+00 0.  1.
         12    1    6    6    0    0  0.99586969493E+01 -0.28074384706E+02  0.10119632910E+02  0.31460351107E+02  0.00000000000E+00 0. -1.
         -5    1    3    3    0  503 -0.32599914983E+02 -0.24688745129E+02 -0.29553636356E+02  0.50673425134E+02  0.47000000000E+01 0.  1.
         13    1    4    4    0    0 -0.53094638814E+01 -0.10239884127E+03  0.28894325337E+02  0.10652978521E+03  0.00000000000E+00 0. -1.
        -14    1    4    4    0    0  0.40176921386E+02 -0.61440189290E+02  0.81778478541E+02  0.10989450134E+03  0.00000000000E+00 0.  1.
</event>
<event>
12    1  0.1050869E+000  0.2430125E+03  0.7818608E-02  0.1117962E+00
         21   -1    0    0  503  502  0.00000000000E+00  0.00000000000E+00  0.62177327860E+02  0.62177327860E+02  0.00000000000E+00 0.  1.
         21   -1    0    0  501  503 -0.00000000000E+00 -0.00000000000E+00 -0.96496127623E+03  0.96496127623E+03  0.00000000000E+00 0. -1.
          6    2    1    2  501    0  0.14959431142E+03 -0.80680345397E+02 -0.38025783575E+03  0.45127716755E+03  0.17368731721E+03 0.  0.
         24    2    3    3    0    0  0.92402703671E+02 -0.18699473594E+02 -0.99309660636E+02  0.15790628357E+03  0.78638767397E+02 0.  0.
         -6    2    1    2    0  502 -0.14959431142E+03  0.80680345397E+02 -0.52252611263E+03  0.57586143654E+03  0.17232260322E+03 0.  0.
        -24    2    5    5    0    0 -0.86357390842E+02 -0.34163550604E+01 -0.38607739623E+03  0.40349117995E+03  0.79247119710E+02 0.  0.
          5    1    3    3  501    0  0.57191607751E+02 -0.61980871803E+02 -0.28094817511E+03  0.29337088398E+03  0.47000000000E+01 0. -1.
        -11    1    4    4    0    0  0.70096269622E+02 -0.33798252262E+02 -0.10468349924E+03  0.13043942611E+03  0.00000000000E+00 0.  1.
         12    1    4    4    0    0  0.22306434049E+02  0.15098778668E+02  0.53738386091E+01  0.27466857458E+02  0.00000000000E+00 0. -1.
         -5    1    5    5    0  502 -0.63236920580E+02  0.84096700458E+02 -0.13644871639E+03  0.17237025659E+03  0.47000000000E+01 0.  1.
         13    1    6    6    0    0  0.14814480353E+02 -0.35705340993E+01 -0.36121468922E+02  0.39204311739E+02  0.00000000000E+00 0. -1.
        -14    1    6    6    0    0 -0.10117187120E+03  0.15417903885E+00 -0.34995592731E+03  0.36428686821E+03  0.00000000000E+00 0.  1.
</event>
<event>
12    1  0.1050869E+000  0.2575654E+03  0.7818608E-02  0.1108807E+00
         21   -1    0    0  503  502  0.00000000000E+00  0.00000000000E+00  0.57867162995E+03  0.57867162995E+03  0.00000000000E+00 0.  1.
         21   -1    0    0  501  503 -0.00000000000E+00 -0.00000000000E+00 -0.11425969404E+03  0.11425969404E+03  0.00000000000E+00 0.  1.
          6    2    1    2  501    0 -0.19193054831E+03  0.11498430783E+02  0.21908394969E+03  0.33813858714E+03  0.17137788017E+03 0.  0.
         24    2    3    3    0    0 -0.40283033977E+02  0.70437950054E+00  0.25839360037E+02  0.92213717352E+02  0.78819275333E+02 0.  0.
         -6    2    1    2    0  502  0.19193054831E+03 -0.11498430783E+02  0.24532798622E+03  0.35479273686E+03  0.16947718437E+03 0.  0.
        -24    2    5    5    0    0  0.20886753669E+03  0.55065235174E+01  0.24230253095E+03  0.33014981850E+03  0.81439649216E+02 0.  0.
          5    1    3    3  501    0 -0.15164751434E+03  0.10794051282E+02  0.19324458966E+03  0.24592486978E+03  0.47000000000E+01 0. -1.
        -11    1    4    4    0    0 -0.28222155535E+02 -0.37198273118E+02  0.40671620801E+01  0.46869429198E+02  0.00000000000E+00 0.  1.
         12    1    4    4    0    0 -0.12060878442E+02  0.37902652618E+02  0.21772197957E+02  0.45344288154E+02  0.00000000000E+00 0. -1.
         -5    1    5    5    0  502 -0.16936988378E+02 -0.17004954300E+02  0.30254552691E+01  0.24642918367E+02  0.47000000000E+01 0.  1.
         13    1    6    6    0    0  0.15686250246E+03 -0.31682651576E+02  0.18053901470E+03  0.24125499149E+03  0.00000000000E+00 0. -1.
        -14    1    6    6    0    0  0.52005034228E+02  0.37189175094E+02  0.61763516253E+02  0.88894827010E+02  0.00000000000E+00 0.  1.
</event>
<event>
12    1  0.1050869E+000  0.3187891E+03  0.7818608E-02  0.1076670E+00
         21   -1    0    0  501  502  0.00000000000E+00  0.00000000000E+00  0.10509933557E+03  0.10509933557E+03  0.00000000000E+00 0. -1.
         21   -1    0    0  502  503 -0.00000000000E+00 -0.00000000000E+00 -0.13194247470E+04  0.13194247470E+04  0.00000000000E+00 0. -1.
         -6    2    1    2    0  503 -0.18926155094E+03 -0.18319268385E+03 -0.98426204704E+03  0.10346005481E+04  0.17957456063E+03 0.  0.
        -24    2    3    3    0    0 -0.86884790805E+02 -0.17438403867E+03 -0.74630059428E+03  0.77535869917E+03  0.79106102981E+02 0.  0.
          6    2    1    2  501    0  0.18926155094E+03  0.18319268385E+03 -0.23006336440E+03  0.38992353446E+03  0.17242887521E+03 0.  0.
         24    2    5    5    0    0  0.15397957530E+03  0.60778328156E+02 -0.16468510612E+03  0.24665281540E+03  0.79452579468E+02 0.  0.
          5    1    5    5  501    0  0.35281975643E+02  0.12241435569E+03 -0.65378258282E+02  0.14327071906E+03  0.47000000000E+01 0. -1.
        -13    1    6    6    0    0  0.13250997425E+03  0.65797842236E+02 -0.16854714536E+03  0.22426856563E+03  0.00000000000E+00 0.  1.
         14    1    6    6    0    0  0.21469601048E+02 -0.50195140795E+01  0.38620392424E+01  0.22384249772E+02  0.00000000000E+00 0. -1.
         -5    1    3    3    0  503 -0.10237676014E+03 -0.88086451810E+01 -0.23796145276E+03  0.25924184895E+03  0.47000000000E+01 0.  1.
         11    1    4    4    0    0 -0.65437607128E+02 -0.60574095495E+02 -0.41280821091E+03  0.42232916128E+03  0.00000000000E+00 0. -1.
        -12    1    4    4    0    0 -0.21447183677E+02 -0.11380994317E+03 -0.33349238337E+03  0.35302953789E+03  0.00000000000E+00 0.  1.
</event>
<event>
12    1  0.1050869E+000  0.1748141E+03  0.7818608E-02  0.1173053E+00
         21   -1    0    0  501  502  0.00000000000E+00  0.00000000000E+00  0.93081195050E+02  0.93081195050E+02  0.00000000000E+00 0.  1.
         21   -1    0    0  502  503 -0.00000000000E+00 -0.00000000000E+00 -0.32860582709E+03  0.32860582709E+03  0.00000000000E+00 0.  1.
         -6    2    1    2    0  503  0.24850559164E+02 -0.84308336411E+01 -0.13082384066E+03  0.21791697251E+03  0.17229132415E+03 0.  0.
        -24    2    3    3    0    0  0.55998381070E+02  0.28294234595E+02 -0.58006257258E+02  0.13049038674E+03  0.98623692677E+02 0.  0.
          6    2    1    2  501    0 -0.24850559164E+02  0.84308336411E+01 -0.10470079138E+03  0.20377004963E+03  0.17283329588E+03 0.  0.
         24    2    5    5    0    0  0.11024662492E+02  0.35384597647E+01  0.95713156019E+01  0.83806841583E+02  0.82449455627E+02 0.  0.
          5    1    5    5  501    0 -0.35875221656E+02  0.48923738764E+01 -0.11427210698E+03  0.11996320804E+03  0.47000000000E+01 0. -1.
        -11    1    6    6    0    0 -0.27637039815E+02  0.31412120256E+01 -0.20724930576E+02  0.34687114756E+02  0.00000000000E+00 0.  1.
         12    1    6    6    0    0  0.38661702308E+02  0.39724773905E+00  0.30296246178E+02  0.49119726827E+02  0.00000000000E+00 0. -1.
         -5    1    3    3    0  503 -0.31147821906E+02 -0.36725068236E+02 -0.72817583405E+02  0.87426585770E+02  0.47000000000E+01 0.  1.
         13    1    4    4    0    0  0.49877917280E+02 -0.24430866189E+02 -0.53670113504E+02  0.77234415506E+02  0.00000000000E+00 0. -1.
        -14    1    4    4    0    0  0.61204637907E+01  0.52725100784E+02 -0.43361437535E+01  0.53255971237E+02  0.00000000000E+00 0.  1.
</event>
<event>
12    1  0.1050869E+000  0.2324687E+03  0.7818608E-02  0.1125709E+00
         21   -1    0    0  501  502  0.00000000000E+00  0.00000000000E+00  0.89277649026E+02  0.89277649026E+02  0.00000000000E+00 0. -1.
         21   -1    0    0  502  503 -0.00000000000E+00 -0.00000000000E+00 -0.60698859435E+03  0.60698859435E+03  0.00000000000E+00 0. -1.
         -6    2    1    2    0  503  0.12704982728E+03  0.78905994699E+02 -0.30810891757E+03  0.38325712911E+03  0.17200903267E+03 0.  0.
        -24    2    3    3    0    0 -0.25346906220E+01  0.34654421334E+02 -0.90183880447E+02  0.12583964558E+03  0.80592372670E+02 0.  0.
          6    2    1    2  501    0 -0.12704982728E+03 -0.78905994699E+02 -0.20960202776E+03  0.31300911426E+03  0.17797157346E+03 0.  0.
         24    2    5    5    0    0 -0.38928567333E+02 -0.77976688718E+02 -0.18629752145E+03  0.22173255605E+03  0.82841792462E+02 0.  0.
          5    1    5    5  501    0 -0.88121259948E+02 -0.92930598091E+00 -0.23304506313E+02  0.91276558211E+02  0.47000000000E+01 0. -1.
        -11    1    6    6    0    0 -0.55233472875E+02 -0.38797029496E+02 -0.15482544012E+03  0.16889897256E+03  0.00000000000E+00 0.  1.
         12    1    6    6    0    0  0.16304905542E+02 -0.39179659222E+02 -0.31472081322E+02  0.52833583488E+02  0.00000000000E+00 0. -1.
         -5    1    3    3    0  503  0.12958451790E+03  0.44251573366E+02 -0.21792503712E+03  0.25741748353E+03  0.47000000000E+01 0.  1.
         11    1    4    4    0    0  0.26446915565E+02  0.23303177579E+02 -0.55745567964E+01  0.35686875902E+02  0.00000000000E+00 0. -1.
        -12    1    4    4    0    0 -0.28981606187E+02  0.11351243755E+02 -0.84609323651E+02  0.90152769678E+02  0.00000000000E+00 0.  1.
</event>
<event>
12    1  0.1050869E+000  0.2121083E+03  0.7818608E-02  0.1141154E+00
         21   -1    0    0  501  502  0.00000000000E+00  0.00000000000E+00  0.36041894686E+03  0.36041894686E+03  0.00000000000E+00 0. -1.
         21   -1    0    0  502  503 -0.00000000000E+00 -0.00000000000E+00 -0.23417932245E+03  0.23417932245E+03  0.00000000000E+00 0. -1.
         -6    2    1    2    0  503 -0.11044908571E+03  0.22152980295E+02  0.26915439794E+03  0.33883554032E+03  0.17226630078E+03 0.  0.
        -24    2    3    3    0    0 -0.31879184204E+02  0.62089748477E+02  0.20225602594E+03  0.22808511345E+03  0.79018350380E+02 0.  0.
          6    2    1    2  501    0  0.11044908571E+03 -0.22152980295E+02 -0.14291477353E+03  0.25576272899E+03  0.17972252496E+03 0.  0.
         24    2    5    5    0    0  0.11711644091E+03 -0.33259273253E+02 -0.38673926303E+02  0.15061498722E+03  0.79791990901E+02 0.  0.
          5    1    5    5  501    0 -0.66673551947E+01  0.11106292958E+02 -0.10424084723E+03  0.10514774177E+03  0.47000000000E+01 0. -1.
        -13    1    6    6    0    0  0.68867942099E+02  0.19339893488E+02 -0.33679374705E+02  0.79064057634E+02  0.00000000000E+00 0.  1.
         14    1    6    6    0    0  0.48248498807E+02 -0.52599166741E+02 -0.49945515979E+01  0.71550929586E+02  0.00000000000E+00 0. -1.
         -5    1    3    3    0  503 -0.78569901507E+02 -0.39936768182E+02  0.66898371999E+02  0.11075042687E+03  0.47000000000E+01 0.  1.
         11    1    4    4    0    0 -0.13597509032E+02  0.52602071863E+02  0.48113552118E+02  0.72572612696E+02  0.00000000000E+00 0. -1.
        -12    1    4    4    0    0 -0.18281675173E+02  0.94876766143E+01  0.15414247382E+03  0.15551250075E+03  0.00000000000E+00 0.  1.
</event>
<event>
12    1  0.1050869E+000  0.2354893E+03  0.7818608E-02  0.1122925E+00
         21   -1    0    0  503  502  0.00000000000E+00  0.00000000000E+00  0.44127278884E+02  0.44127278884E+02  0.00000000000E+00 0. -1.
         21   -1    0    0  501  503 -0.00000000000E+00 -0.00000000000E+00 -0.16856219568E+04  0.16856219568E+04  0.00000000000E+00 0. -1.
          6    2    1    2  501    0  0.34484494305E+02 -0.15774783586E+03 -0.38373061393E+03  0.45022707041E+03  0.17141082461E+03 0.  0.
         24    2    3    3    0    0  0.47985525919E+02 -0.18153782220E+03 -0.36167716761E+03  0.41477730596E+03  0.77273853190E+02 0.  0.
         -6    2    1    2    0  502 -0.34484494305E+02  0.15774783586E+03 -0.12577640639E+04  0.12795221652E+04  0.17068383260E+03 0.  0.
        -24    2    5    5    0    0  0.17646715389E+02  0.11963537796E+03 -0.10924433321E+04  0.11019742651E+04  0.79314669703E+02 0.  0.
          5    1    3    3  501    0 -0.13501031614E+02  0.23789986335E+02 -0.22053446325E+02  0.35449764446E+02  0.47000000000E+01 0. -1.
        -13    1    4    4    0    0  0.30555681749E+02 -0.11318022942E+03 -0.29609037066E+03  0.31845395525E+03  0.00000000000E+00 0.  1.
         14    1    4    4    0    0  0.17429844170E+02 -0.68357592778E+02 -0.65586796949E+02  0.96323350712E+02  0.00000000000E+00 0. -1.
         -5    1    5    5    0  502 -0.52131209694E+02  0.38112457901E+02 -0.16532073186E+03  0.17754790016E+03  0.47000000000E+01 0.  1.
         13    1    6    6    0    0  0.13092043053E+02  0.25285877330E+02 -0.59261034438E+03  0.59329402277E+03  0.00000000000E+00 0. -1.
        -14    1    6    6    0    0  0.45546723366E+01  0.94349500634E+02 -0.49983298770E+03  0.50868024230E+03  0.00000000000E+00 0.  1.
</event>
<event>
12    1  0.1050869E+000  0.5278089E+03  0.7818608E-02  0.1006768E+00
         21   -1    0    0  503  502  0.00000000000E+00  0.00000000000E+00  0.47998051035E+03  0.47998051035E+03  0.00000000000E+00 0.  1.
         21   -1    0    0  501  503 -0.00000000000E+00 -0.00000000000E+00 -0.66206501910E+03  0.66206501910E+03  0.00000000000E+00 0.  1.
          6    2    1    2  501    0 -0.12151781486E+03  0.48397352605E+03 -0.29164629336E+03  0.60298524144E+03  0.17186240927E+03 0.  0.
         24    2    3    3    0    0 -0.11533021357E+03  0.44670544167E+03 -0.30922078106E+03  0.56105495238E+03  0.79488102061E+02 0.  0.
         -6    2    1    2    0  502  0.12151781486E+03 -0.48397352605E+03  0.10956178461E+03  0.53906028801E+03  0.17200365176E+03 0.  0.
        -24    2    5    5    0    0  0.11498445579E+03 -0.27684913674E+03  0.12081838414E+03  0.33147416502E+03  0.73560658913E+02 0.  0.
          5    1    3    3  501    0 -0.61876012848E+01  0.37268084381E+02  0.17574487698E+02  0.41930289063E+02  0.47000000000E+01 0. -1.
        -13    1    4    4    0    0 -0.86099322471E+02  0.22778978177E+03 -0.19753904656E+03  0.31356491023E+03  0.00000000000E+00 0.  1.
         14    1    4    4    0    0 -0.29230891103E+02  0.21891565990E+03 -0.11168173449E+03  0.24749004215E+03  0.00000000000E+00 0. -1.
         -5    1    5    5    0  502  0.65333590664E+01 -0.20712438931E+03 -0.11256599529E+02  0.20758612299E+03  0.47000000000E+01 0.  1.
         11    1    6    6    0    0  0.48737061053E+02 -0.20439788379E+03  0.89859075122E+02  0.22853544451E+03  0.00000000000E+00 0. -1.
        -12    1    6    6    0    0  0.66247394739E+02 -0.72451252956E+02  0.30959309014E+02  0.10293872051E+03  0.00000000000E+00 0.  1.
</event>
<event>
12    1  0.1050869E+000  0.2089827E+03  0.7818608E-02  0.1143436E+00
         21   -1    0    0  503  502  0.00000000000E+00  0.00000000000E+00  0.20954130282E+03  0.20954130282E+03  0.00000000000E+00 0. -1.
         21   -1    0    0  501  503 -0.00000000000E+00 -0.00000000000E+00 -0.26033127697E+03  0.26033127697E+03  0.00000000000E+00 0. -1.
          6    2    1    2  501    0 -0.93218252013E+02  0.53059858699E+02  0.84388582508E+02  0.22537787691E+03  0.17935652602E+03 0.  0.
         24    2    3    3    0    0 -0.22123614224E+02  0.68183350386E+02  0.10331128004E+03  0.15012280395E+03  0.82007390568E+02 0.  0.
         -6    2    1    2    0  502  0.93218252013E+02 -0.53059858699E+02 -0.13517855667E+03  0.24449470288E+03  0.17320342503E+03 0.  0.
        -24    2    5    5    0    0  0.74198534051E+02  0.35418335583E+01 -0.14792828509E+03  0.18325626060E+03  0.78626410829E+02 0.  0.
          5    1    3    3  501    0 -0.71094637789E+02 -0.15123491687E+02 -0.18922697529E+02  0.75255072952E+02  0.47000000000E+01 0. -1.
        -13    1    4    4    0    0 -0.25523609072E+02  0.63460413528E+02  0.26915883501E+02  0.73506077911E+02  0.00000000000E+00 0.  1.
         14    1    4    4    0    0  0.33999948486E+01  0.47229368579E+01  0.76395396536E+02  0.76616726042E+02  0.00000000000E+00 0. -1.
         -5    1    5    5    0  502  0.19019717962E+02 -0.56601692257E+02  0.12749728428E+02  0.61238442279E+02  0.47000000000E+01 0.  1.
         13    1    6    6    0    0  0.69076628315E+02  0.25496330590E+02 -0.68065042260E+02  0.10027209697E+03  0.00000000000E+00 0. -1.
        -14    1    6    6    0    0  0.51219057359E+01 -0.21954497032E+02 -0.79863242833E+02  0.82984163634E+02  0.00000000000E+00 0.  1.
</event>
<event>
12    1  0.1050869E+000  0.1961310E+03  0.7818608E-02  0.1156273E+00
         21   -1    0    0  503  502  0.00000000000E+00  0.00000000000E+00  0.20401706734E+03  0.20401706734E+03  0.00000000000E+00 0.  1.
         21   -1    0    0  501  503 -0.00000000000E+00 -0.00000000000E+00 -0.19763203300E+03  0.19763203300E+03  0.00000000000E+00 0.  1.
          6    2    1    2  501    0 -0.71177177504E+02  0.51247493993E+00 -0.64574195527E+02  0.20648775694E+03  0.18275916888E+03 0.  0.
         24    2    3    3    0    0 -0.98964491614E+01 -0.49032122090E+02 -0.83218217395E+02  0.12537250367E+03  0.79315220905E+02 0.  0.
         -6    2    1    2    0  502  0.71177177504E+02 -0.51247493993E+00  0.70959229869E+02  0.19516134341E+03  0.16729101718E+03 0.  0.
        -24    2    5    5    0    0  0.13015513233E+02  0.49437998743E+01 -0.23024477692E+02  0.84402247111E+02  0.79998550002E+02 0.  0.
          5    1    3    3  501    0 -0.61280728343E+02  0.49544597030E+02  0.18644021868E+02  0.81115253267E+02  0.47000000000E+01 0. -1.
        -13    1    4    4    0    0 -0.25797746267E+02 -0.45615617176E+02 -0.13963515105E+02  0.54233642667E+02  0.00000000000E+00 0.  1.
         14    1    4    4    0    0  0.15901297106E+02 -0.34165049141E+01 -0.69254702290E+02  0.71138861002E+02  0.00000000000E+00 0. -1.
         -5    1    5    5    0  502  0.58161664272E+02 -0.54562748143E+01  0.93983707561E+02  0.11075909630E+03  0.47000000000E+01 0.  1.
         11    1    6    6    0    0  0.46004045764E+02  0.26547484287E+01 -0.40036457171E+01  0.46254179216E+02  0.00000000000E+00 0. -1.
        -12    1    6    6    0    0 -0.32988532532E+02  0.22890514456E+01 -0.19020831975E+02  0.38148067895E+02  0.00000000000E+00 0.  1.
</event>
<event>
12    1  0.1050869E+000  0.1927911E+03  0.7818608E-02  0.1156136E+00
         21   -1    0    0  503  502  0.00000000000E+00  0.00000000000E+00  0.39353750844E+03  0.39353750844E+03  0.00000000000E+00 0. -1.
         21   -1    0    0  501  503 -0.00000000000E+00 -0.00000000000E+00 -0.94216656979E+02  0.94216656979E+02  0.00000000000E+00 0. -1.
          6    2    1    2  501    0 -0.80838830881E+02 -0.32843821524E+02  0.14050005558E+03  0.23855538782E+03  0.17191502043E+03 0.  0.
         24    2    3    3    0    0 -0.12192674970E+03 -0.35560859219E+02  0.95461689069E+02  0.17734963789E+03  0.78798813294E+02 0.  0.
         -6    2    1    2    0  502  0.80838830881E+02  0.32843821524E+02  0.15882079588E+03  0.24919877760E+03  0.17106242241E+03 0.  0.
        -24    2    5    5    0    0  0.45840444131E+02  0.40460327925E+02  0.21714129813E+02  0.10741293160E+03  0.85601693839E+02 0.  0.
          5    1    3    3  501    0  0.41087918823E+02  0.27170376950E+01  0.45038366513E+02  0.61205749936E+02  0.47000000000E+01 0. -1.
        -13    1    4    4    0    0  0.11406821547E+02  0.22235756744E+00  0.69096995495E+01  0.13338252080E+02  0.00000000000E+00 0.  1.
         14    1    4    4    0    0 -0.13333357125E+03 -0.35783216786E+02  0.88551989519E+02  0.16401138581E+03  0.00000000000E+00 0. -1.
         -5    1    5    5    0  502  0.34998386750E+02 -0.76165064011E+01  0.13710666607E+03  0.14178584599E+03  0.47000000000E+01 0.  1.
         11    1    6    6    0    0  0.14602146932E+02  0.60360542219E+02  0.30735914238E+02  0.69291515902E+02  0.00000000000E+00 0. -1.
        -12    1    6    6    0    0  0.31238297199E+02 -0.19900214294E+02 -0.90217844250E+01  0.38121415700E+02  0.00000000000E+00 0.  1.
</event>
<event>
12    1  0.1050869E+000  0.2822957E+03  0.7818608E-02  0.1094627E+00
         21   -1    0    0  501  502  0.00000000000E+00  0.00000000000E+00  0.27414702944E+03  0.27414702944E+03  0.00000000000E+00 0.  1.
         21   -1    0    0  502  503 -0.00000000000E+00 -0.00000000000E+00 -0.35800789697E+03  0.35800789697E+03  0.00000000000E+00 0.  1.
         -6    2    1    2    0  503  0.17442758049E+03 -0.13836170393E+03  0.96476403851E+02  0.29832623250E+03  0.17355662635E+03 0.  0.
        -24    2    3    3    0    0  0.14714678545E+03 -0.12434346507E+03  0.13519937384E+03  0.24870455172E+03  0.80384137643E+02 0.  0.
          6    2    1    2  501    0 -0.17442758049E+03  0.13836170393E+03 -0.18033727138E+03  0.33382869390E+03  0.17132169587E+03 0.  0.
         24    2    5    5    0    0 -0.13113645169E+03  0.49409784917E+02 -0.16996944676E+03  0.23424883893E+03  0.79654315034E+02 0.  0.
          5    1    5    5  501    0 -0.43291128796E+02  0.88951919009E+02 -0.10367824623E+02  0.99579854967E+02  0.47000000000E+01 0. -1.
        -11    1    6    6    0    0 -0.83702164927E+02  0.69698744231E+02 -0.12512110679E+03  0.16588929660E+03  0.00000000000E+00 0.  1.
         12    1    6    6    0    0 -0.47434286764E+02 -0.20288959314E+02 -0.44848339967E+02  0.68359542338E+02  0.00000000000E+00 0. -1.
         -5    1    3    3    0  503  0.27280795038E+02 -0.14018238856E+02 -0.38722969992E+02  0.49621680781E+02  0.47000000000E+01 0.  1.
         13    1    4    4    0    0  0.22345491402E+02 -0.68094618916E+02  0.51504085563E+02  0.88254568952E+02  0.00000000000E+00 0. -1.
        -14    1    4    4    0    0  0.12480129405E+03 -0.56248846154E+02  0.83695288281E+02  0.16044998277E+03  0.00000000000E+00 0.  1.
</event>
<event>
12    1  0.1050869E+000  0.3049862E+03  0.7818608E-02  0.1082797E+00
         21   -1    0    0  501  502  0.00000000000E+00  0.00000000000E+00  0.79595956457E+02  0.79595956457E+02  0.00000000000E+00 0.  1.
         21   -1    0    0  502  503 -0.00000000000E+00 -0.00000000000E+00 -0.14991794887E+04  0.14991794887E+04  0.00000000000E+00 0.  1.
         -6    2    1    2    0  503 -0.14419730335E+03  0.20546855563E+03 -0.10810405500E+04  0.11232387383E+04  0.17322356336E+03 0.  0.
        -24    2    3    3    0    0 -0.16369461991E+03  0.16632247272E+03 -0.10106646938E+04  0.10402483033E+04  0.78830932123E+02 0.  0.
          6    2    1    2  501    0  0.14419730335E+03 -0.20546855563E+03 -0.33854298226E+03  0.45553670684E+03  0.17289346661E+03 0.  0.
         24    2    5    5    0    0  0.12152637220E+03 -0.21075145292E+03 -0.22927550978E+03  0.34371832434E+03  0.79938683091E+02 0.  0.
          5    1    5    5  501    0  0.22670931153E+02  0.52828972895E+01 -0.10926747249E+03  0.11181838251E+03  0.47000000000E+01 0. -1.
        -11    1    6    6    0    0 -0.13474481573E+01 -0.65414061288E+02 -0.51182424195E+02  0.83068980836E+02  0.00000000000E+00 0.  1.
         12    1    6    6    0    0  0.12287382036E+03 -0.14533739163E+03 -0.17809308558E+03  0.26064934350E+03  0.00000000000E+00 0. -1.
         -5    1    3    3    0  503  0.19497316561E+02  0.39146082907E+02 -0.70375856260E+02  0.82990435018E+02  0.47000000000E+01 0.  1.
         13    1    4    4    0    0 -0.16107780217E+03  0.14161797327E+03 -0.80477421810E+03  0.83286448527E+03  0.00000000000E+00 0. -1.
        -14    1    4    4    0    0 -0.26168177430E+01  0.24704499451E+02 -0.20589047565E+03  0.20738381806E+03  0.00000000000E+00 0.  1.
</event>
<event>
12    1  0.1050869E+000  0.2540254E+03  0.7818608E-02  0.1110909E+00
         21   -1    0    0  501  502  0.00000000000E+00  0.00000000000E+00  0.15483769368E+04  0.15483769368E+04  0.00000000000E+00 0. -1.
         21   -1    0    0  502  503 -0.00000000000E+00 -0.00000000000E+00 -0.41634281715E+02  0.41634281715E+02  0.00000000000E+00 0. -1.
         -6    2    1    2    0  503  0.18530164269E+03  0.24336418393E+02  0.79107873923E+03  0.83086370393E+03  0.17204639724E+03 0.  0.
        -24    2    3    3    0    0  0.99115975785E+02  0.97944111826E+01  0.20401960665E+03  0.23731509235E+03  0.69098089817E+02 0.  0.
          6    2    1    2  501    0 -0.18530164269E+03 -0.24336418393E+02  0.71566391585E+03  0.75914751458E+03  0.17088343512E+03 0.  0.
         24    2    5    5    0    0 -0.20820765772E+03 -0.37914791744E+02  0.63068123168E+03  0.66996677475E+03  0.79427344886E+02 0.  0.
          5    1    5    5  501    0  0.22906015027E+02  0.13578373351E+02  0.84982684171E+02  0.89180739827E+02  0.47000000000E+01 0. -1.
        -11    1    6    6    0    0 -0.13243542699E+03  0.31656505190E+00  0.46930745038E+03  0.48763585340E+03  0.00000000000E+00 0.  1.
         12    1    6    6    0    0 -0.75772230730E+02 -0.38231356796E+02  0.16137378130E+03  0.18233092136E+03  0.00000000000E+00 0. -1.
         -5    1    3    3    0  503  0.86185666907E+02  0.14542007211E+02  0.58705913259E+03  0.59354861158E+03  0.47000000000E+01 0.  1.
         11    1    4    4    0    0  0.66253860061E+02 -0.26577684221E+02  0.10719741460E+03  0.12879143205E+03  0.00000000000E+00 0. -1.
        -12    1    4    4    0    0  0.32862115724E+02  0.36372095404E+02  0.96822192045E+02  0.10852366031E+03  0.00000000000E+00 0.  1.
</event>
<event>
12    1  0.1050869E+000  0.1978017E+03  0.7818608E-02  0.1152719E+00
         21   -1    0    0  501  502  0.00000000000E+00  0.00000000000E+00  0.10547368623E+03  0.10547368623E+03  0.00000000000E+00 0. -1.
         21   -1    0    0  502  503 -0.00000000000E+00 -0.00000000000E+00 -0.54714206106E+03  0.54714206106E+03  0.00000000000E+00 0.  1.
         -6    2    1    2    0  503 -0.50933251822E+02 -0.69749981271E+02 -0.41285814194E+03  0.45779619372E+03  0.17795014356E+03 0.  0.
        -24    2    3    3    0    0 -0.76702114202E+02 -0.10541402543E+03 -0.30826807201E+03  0.34423065739E+03  0.80437616736E+02 0.  0.
          6    2    1    2  501    0  0.50933251822E+02  0.69749981271E+02 -0.28810232891E+02  0.19481955356E+03  0.17223638670E+03 0.  0.
         24    2    5    5    0    0  0.47044603565E+02  0.10150527694E+03  0.18058230514E+02  0.13787867852E+03  0.78536070255E+02 0.  0.
          5    1    5    5  501    0  0.38886482570E+01 -0.31755295667E+02 -0.46868463404E+02  0.56940875038E+02  0.47000000000E+01 0. -1.
        -13    1    6    6    0    0 -0.15242168590E+02  0.17174730587E+02 -0.15609498193E+02  0.27766013540E+02  0.00000000000E+00 0.  1.
         14    1    6    6    0    0  0.62286772155E+02  0.84330546351E+02  0.33667728707E+02  0.11011266498E+03  0.00000000000E+00 0. -1.
         -5    1    3    3    0  503  0.25768862380E+02  0.35664044162E+02 -0.10459006993E+03  0.11356553633E+03  0.47000000000E+01 0.  1.
         11    1    4    4    0    0 -0.66334690474E+02 -0.26258137462E+02 -0.11795634293E+03  0.13785310943E+03  0.00000000000E+00 0. -1.
        -12    1    4    4    0    0 -0.10367423728E+02 -0.79155887971E+02 -0.19031172909E+03  0.20637754796E+03  0.00000000000E+00 0.  1.
</event>
<event>
12    1  0.1050869E+000  0.1996071E+03  0.7818608E-02  0.1151703E+00
         21   -1    0    0  501  502  0.00000000000E+00  0.00000000000E+00  0.15191886543E+03  0.15191886543E+03  0.00000000000E+00 0. -1.
         21   -1    0    0  502  503 -0.00000000000E+00 -0.00000000000E+00 -0.52162507433E+03  0.52162507433E+03  0.00000000000E+00 0. -1.
         -6    2    1    2    0  503  0.37705315871E+02  0.76873150847E+02  0.58785218332E+02  0.20084117141E+03  0.17190201299E+03 0.  0.
        -24    2    3    3    0    0 -0.93270314724E+01 -0.58301563120E+00  0.75514755461E+02  0.10857272157E+03  0.77448203038E+02 0.  0.
          6    2    1    2  501    0 -0.37705315871E+02 -0.76873150847E+02 -0.42849142723E+03  0.47270276835E+03  0.18031037638E+03 0.  0.
         24    2    5    5    0    0  0.74539055275E+00 -0.25329465628E+02 -0.73837776688E+02  0.11223569613E+03  0.80639300491E+02 0.  0.
          5    1    5    5  501    0 -0.38450706424E+02 -0.51543685219E+02 -0.35465365055E+03  0.36046707222E+03  0.47000000000E+01 0. -1.
        -11    1    6    6    0    0  0.35847696155E+02  0.33649867134E+00 -0.53076636014E+02  0.64049198602E+02  0.00000000000E+00 0.  1.
         12    1    6    6    0    0 -0.35102305603E+02 -0.25665964299E+02 -0.20761140674E+02  0.48186497529E+02  0.00000000000E+00 0. -1.
         -5    1    3    3    0  503  0.47032347343E+02  0.77456166478E+02 -0.16729537130E+02  0.92268449834E+02  0.47000000000E+01 0.  1.
         13    1    4    4    0    0  0.76411050813E+01 -0.75414934656E+01 -0.13749232330E+02  0.17444254075E+02  0.00000000000E+00 0. -1.
        -14    1    4    4    0    0 -0.16968136554E+02  0.69584778344E+01  0.89263987792E+02  0.91128467497E+02  0.00000000000E+00 0.  1.
</event>
<event>
12    1  0.1050869E+000  0.2533473E+03  0.7818608E-02  0.1111232E+00
         21   -1    0    0  501  502  0.00000000000E+00  0.00000000000E+00  0.62382594401E+03  0.62382594401E+03  0.00000000000E+00 0. -1.
         21   -1    0    0  502  503 -0.00000000000E+00 -0.00000000000E+00 -0.17020307214E+03  0.17020307214E+03  0.00000000000E+00 0. -1.
         -6    2    1    2    0  503  0.10545909879E+03  0.15301299624E+03  0.47656143286E+03  0.53964537302E+03  0.17196433001E+03 0.  0.
        -24    2    3    3    0    0  0.13090122715E+03  0.14028744079E+03  0.32690272834E+03  0.38723454829E+03  0.79180201308E+02 0.  0.
          6    2    1    2  501    0 -0.10545909879E+03 -0.15301299624E+03 -0.22938560985E+02  0.25438364314E+03  0.17219251371E+03 0.  0.
         24    2    5    5    0    0 -0.28517047393E+02 -0.32747027068E+02 -0.52785761904E+02  0.10844897276E+03  0.84197703407E+02 0.  0.
          5    1    5    5  501    0 -0.76942051399E+02 -0.12026596918E+03  0.29847200919E+02  0.14593467038E+03  0.47000000000E+01 0. -1.
        -11    1    6    6    0    0 -0.41411247027E+02 -0.15186343647E+02 -0.68580125843E+02  0.81539868006E+02  0.00000000000E+00 0.  1.
         12    1    6    6    0    0  0.12894199634E+02 -0.17560683421E+02  0.15794363939E+02  0.26909104754E+02  0.00000000000E+00 0. -1.
         -5    1    3    3    0  503 -0.25442128361E+02  0.12725555452E+02  0.14965870451E+03  0.15241082473E+03  0.47000000000E+01 0.  1.
         13    1    4    4    0    0  0.11335947265E+03  0.84910284995E+02  0.17847883086E+03  0.22784823809E+03  0.00000000000E+00 0. -1.
        -14    1    4    4    0    0  0.17541754508E+02  0.55377155796E+02  0.14842389748E+03  0.15938631020E+03  0.00000000000E+00 0.  1.
</event>
<event>
12    1  0.1050869E+000  0.2099624E+03  0.7818608E-02  0.1142705E+00
         21   -1    0    0  501  502  0.00000000000E+00  0.00000000000E+00  0.13413891718E+04  0.13413891718E+04  0.00000000000E+00 0.  1.
         21   -1    0    0  502  503 -0.00000000000E+00 -0.00000000000E+00 -0.34456192883E+02  0.34456192883E+02  0.00000000000E+00 0.  1.
         -6    2    1    2    0  503  0.30374913545E+02 -0.10609730463E+03  0.84498633075E+03  0.87068141551E+03  0.17861958109E+03 0.  0.
        -24    2    3    3    0    0  0.63879891779E+02 -0.12650369468E+02  0.32163725386E+03  0.33797956688E+03  0.80864034878E+02 0.  0.
          6    2    1    2  501    0 -0.30374913545E+02  0.10609730463E+03  0.46194664819E+03  0.50516394919E+03  0.17209484701E+03 0.  0.
         24    2    5    5    0    0 -0.76455672892E+02  0.51975914028E+02  0.36341052352E+03  0.38357439715E+03  0.80716441832E+02 0.  0.
          5    1    5    5  501    0  0.46080759347E+02  0.54121390598E+02  0.98536124668E+02  0.12158955205E+03  0.47000000000E+01 0. -1.
        -13    1    6    6    0    0 -0.27685689283E+01 -0.19418736391E+02  0.46464203817E+02  0.50434854349E+02  0.00000000000E+00 0.  1.
         14    1    6    6    0    0 -0.73687103964E+02  0.71394650419E+02  0.31694631971E+03  0.33313954280E+03  0.00000000000E+00 0. -1.
         -5    1    3    3    0  503 -0.33504978234E+02 -0.93446935158E+02  0.52334907689E+03  0.53270184863E+03  0.47000000000E+01 0.  1.
         11    1    4    4    0    0  0.23350765605E+02 -0.33462566548E+02  0.24838663227E+03  0.25171595242E+03  0.00000000000E+00 0. -1.
        -12    1    4    4    0    0  0.40529126174E+02  0.20812197080E+02  0.73250621588E+02  0.86263614454E+02  0.00000000000E+00 0.  1.
</event>
<event>
12    1  0.1050869E+000  0.4993084E+03  0.7818608E-02  0.1013981E+00
         21   -1    0    0  503  502  0.00000000000E+00  0.00000000000E+00  0.75614071974E+03  0.75614071974E+03  0.00000000000E+00 0.  1.
         21   -1    0    0  501  503 -0.00000000000E+00 -0.00000000000E+00 -0.83393206685E+03  0.83393206685E+03  0.00000000000E+00 0. -1.
          6    2    1    2  501    0  0.37683925537E+03 -0.27905392535E+03 -0.65722904649E+03  0.82518266876E+03  0.17057989222E+03 0.  0.
         24    2    3    3    0    0  0.30723132462E+03 -0.27384717540E+03 -0.49590414030E+03  0.64934129244E+03  0.79623083341E+02 0.  0.
         -6    2    1    2    0  502 -0.37683925537E+03  0.27905392535E+03  0.57943769939E+03  0.76489011782E+03  0.17155152935E+03 0.  0.
        -24    2    5    5    0    0 -0.33463346304E+03  0.18179167091E+03  0.41324310231E+03  0.56769983119E+03  0.80532419079E+02 0.  0.
          5    1    3    3  501    0  0.69607930759E+02 -0.52067499515E+01 -0.16132490619E+03  0.17584137632E+03  0.47000000000E+01 0. -1.
        -11    1    4    4    0    0  0.54877786525E+02 -0.95235376717E+02 -0.12355525884E+03  0.16537004088E+03  0.00000000000E+00 0.  1.
         12    1    4    4    0    0  0.25235353809E+03 -0.17861179869E+03 -0.37234888146E+03  0.48397125156E+03  0.00000000000E+00 0. -1.
         -5    1    5    5    0  502 -0.42205792336E+02  0.97262254442E+02  0.16619459707E+03  0.19719028663E+03  0.47000000000E+01 0.  1.
         13    1    6    6    0    0 -0.37538367067E+02  0.31155985619E+02  0.96079954945E+02  0.10775519563E+03  0.00000000000E+00 0. -1.
        -14    1    6    6    0    0 -0.29709509597E+03  0.15063568529E+03  0.31716314737E+03  0.45994463556E+03  0.00000000000E+00 0.  1.
</event>
<event>
12    1  0.1050869E+000  0.2287316E+03  0.7818608E-02  0.1127598E+00
         21   -1    0    0  501  502  0.00000000000E+00  0.00000000000E+00  0.10237484694E+04  0.10237484694E+04  0.00000000000E+00 0.  1.
         21   -1    0    0  502  503 -0.00000000000E+00 -0.00000000000E+00 -0.59313517890E+02  0.59313517890E+02  0.00000000000E+00 0.  1.
         -6    2    1    2    0  503  0.11426780948E+03 -0.98849265013E+02  0.68496064805E+03  0.72214212850E+03  0.17172610432E+03 0.  0.
        -24    2    3    3    0    0  0.14433618950E+03 -0.58826706642E+02  0.47035526165E+03  0.50172553537E+03  0.78745943819E+02 0.  0.
          6    2    1    2  501    0 -0.11426780948E+03  0.98849265013E+02  0.27947430350E+03  0.36091985883E+03  0.17125696687E+03 0.  0.
         24    2    5    5    0    0 -0.10438611657E+03  0.13559540227E+03  0.21860539510E+03  0.28898210471E+03  0.80248137811E+02 0.  0.
          5    1    5    5  501    0 -0.98816929103E+01 -0.36746137261E+02  0.60868908396E+02  0.71937754119E+02  0.47000000000E+01 0. -1.
        -13    1    6    6    0    0 -0.29969773120E+02  0.25860428370E+02  0.11219717814E+03  0.11897544217E+03  0.00000000000E+00 0.  1.
         14    1    6    6    0    0 -0.74416343452E+02  0.10973497390E+03  0.10640821696E+03  0.17000666254E+03  0.00000000000E+00 0. -1.
         -5    1    3    3    0  503 -0.30068380021E+02 -0.40022558371E+02  0.21460538640E+03  0.22041659313E+03  0.47000000000E+01 0.  1.
         11    1    4    4    0    0  0.85385194003E+02 -0.73060107529E+02  0.27179099795E+03  0.29410671063E+03  0.00000000000E+00 0. -1.
        -12    1    4    4    0    0  0.58950995500E+02  0.14233400887E+02  0.19856426370E+03  0.20761882475E+03  0.00000000000E+00 0.  1.
</event>
<event>
12    1  0.1050869E+000  0.4381608E+03  0.7818608E-02  0.1031384E+00
         21   -1    0    0  503  502  0.00000000000E+00  0.00000000000E+00  0.23399969145E+03  0.23399969145E+03  0.00000000000E+00 0. -1.
         21   -1    0    0  501  503 -0.00000000000E+00 -0.00000000000E+00 -0.10726716254E+04  0.10726716254E+04  0.00000000000E+00 0.  1.
          6    2    1    2  501    0  0.11609777901E+03  0.38533247045E+03 -0.73756546138E+03  0.85789725304E+03  0.17327746500E+03 0.  0.
         24    2    3    3    0    0  0.33479226633E+02  0.16357248934E+03 -0.21323897773E+03  0.28262021901E+03  0.80786810110E+02 0.  0.
         -6    2    1    2    0  502 -0.11609777901E+03 -0.38533247045E+03 -0.10110647255E+03  0.44877406378E+03  0.17092640070E+03 0.  0.
        -24    2    5    5    0    0 -0.48548671687E+02 -0.24399555507E+03 -0.12663198092E+03  0.28998915541E+03  0.78531823140E+02 0.  0.
          5    1    3    3  501    0  0.82618552381E+02  0.22175998111E+03 -0.52432648365E+03  0.57527703403E+03  0.47000000000E+01 0. -1.
        -13    1    4    4    0    0 -0.41139770038E+01  0.86246166675E+02 -0.15908613351E+03  0.18100752456E+03  0.00000000000E+00 0.  1.
         14    1    4    4    0    0  0.37593203637E+02  0.77326322667E+02 -0.54152844217E+02  0.10161269445E+03  0.00000000000E+00 0. -1.
         -5    1    5    5    0  502 -0.67549107326E+02 -0.14133691538E+03  0.25525508370E+02  0.15878490837E+03  0.47000000000E+01 0. -1.
         13    1    6    6    0    0 -0.18806033742E+02 -0.13645751168E+03 -0.11184897101E+03  0.17743875483E+03  0.00000000000E+00 0. -1.
        -14    1    6    6    0    0 -0.29742637946E+02 -0.10753804339E+03 -0.14783009906E+02  0.11255040058E+03  0.00000000000E+00 0.  1.
</event>
<event>
12    1  0.1050869E+000  0.2965950E+03  0.7818608E-02  0.1086974E+00
         21   -1    0    0  501  502  0.00000000000E+00  0.00000000000E+00  0.19516868910E+03  0.19516868910E+03  0.00000000000E+00 0.  1.
         21   -1    0    0  502  503 -0.00000000000E+00 -0.00000000000E+00 -0.10848227343E+04  0.10848227343E+04  0.00000000000E+00 0. -1.
         -6    2    1    2    0  503 -0.17315848864E+03 -0.16786907792E+03  0.44604342509E+02  0.29978361212E+03  0.17238554816E+03 0.  0.
        -24    2    3    3    0    0 -0.16999048037E+03 -0.75558866489E+02  0.52430605708E+02  0.20696900224E+03  0.74035759956E+02 0.  0.
          6    2    1    2  501    0  0.17315848864E+03  0.16786907792E+03 -0.93425838768E+03  0.98020781126E+03  0.17264046104E+03 0.  0.
         24    2    5    5    0    0  0.18994968859E+03  0.14225488138E+03 -0.89958910204E+03  0.93370963036E+03  0.78966992088E+02 0.  0.
          5    1    5    5  501    0 -0.16791199950E+02  0.25614196541E+02 -0.34669285639E+02  0.46498180899E+02  0.47000000000E+01 0. -1.
        -11    1    6    6    0    0  0.56970213969E+02  0.51077047217E+02 -0.44131506194E+03  0.44789893272E+03  0.00000000000E+00 0.  1.
         12    1    6    6    0    0  0.13297947462E+03  0.91177834164E+02 -0.45827404010E+03  0.48581069764E+03  0.00000000000E+00 0. -1.
         -5    1    3    3    0  503 -0.31680082725E+01 -0.92310211433E+02 -0.78262631982E+01  0.92814609879E+02  0.47000000000E+01 0.  1.
         11    1    4    4    0    0 -0.27142622349E+02 -0.71392371699E+01  0.38950148091E+02  0.48008381474E+02  0.00000000000E+00 0. -1.
        -12    1    4    4    0    0 -0.14284785802E+03 -0.68419629319E+02  0.13480457616E+02  0.15896062077E+03  0.00000000000E+00 0.  1.
</event>
<event>
12    1  0.1050869E+000  0.2636978E+03  0.7818608E-02  0.1105016E+00
         21   -1    0    0  503  502  0.00000000000E+00  0.00000000000E+00  0.30471730508E+03  0.30471730508E+03  0.00000000000E+00 0.  1.
         21   -1    0    0  501  503 -0.00000000000E+00 -0.00000000000E+00 -0.25521417980E+03  0.25521417980E+03  0.00000000000E+00 0.  1.
          6    2    1    2  501    0  0.15850503817E+03  0.12220133567E+03  0.11654988431E+03  0.28784363865E+03  0.17091831738E+03 0.  0.
         24    2    3    3    0    0  0.13655869958E+03  0.14365927396E+03  0.57785064232E+02  0.22137952072E+03  0.79896890550E+02 0.  0.
         -6    2    1    2    0  502 -0.15850503817E+03 -0.12220133567E+03 -0.67046759029E+02  0.27208784623E+03  0.17169599473E+03 0.  0.
        -24    2    5    5    0    0 -0.15641900877E+03 -0.54686252827E+02 -0.91929604155E+01  0.18302724920E+03  0.77181415346E+02 0.  0.
          5    1    3    3  501    0  0.21946338590E+02 -0.21457938297E+02  0.58764820075E+02  0.66464117928E+02  0.47000000000E+01 0. -1.
        -11    1    4    4    0    0  0.57564035465E+02  0.10336059004E+03  0.60037847625E+02  0.13267091957E+03  0.00000000000E+00 0.  1.
         12    1    4    4    0    0  0.78994664118E+02  0.40298683921E+02 -0.22527833926E+01  0.88708601150E+02  0.00000000000E+00 0. -1.
         -5    1    5    5    0  502 -0.20860294001E+01 -0.67515082840E+02 -0.57853798613E+02  0.89060597031E+02  0.47000000000E+01 0.  1.
         13    1    6    6    0    0 -0.97790061765E+02 -0.48308895127E+02 -0.40389287584E+02  0.11630967320E+03  0.00000000000E+00 0. -1.
        -14    1    6    6    0    0 -0.58628947009E+02 -0.63773576992E+01  0.31196327168E+02  0.66717576000E+02  0.00000000000E+00 0.  1.
</event>
<event>
12    1  0.1050869E+000  0.1942446E+03  0.7818608E-02  0.1154749E+00
         21   -1    0    0  501  502  0.00000000000E+00  0.00000000000E+00  0.42494998393E+03  0.42494998393E+03  0.00000000000E+00 0.  1.
         21   -1    0    0  502  503 -0.00000000000E+00 -0.00000000000E+00 -0.14563940789E+03  0.14563940789E+03  0.00000000000E+00 0.  1.
         -6    2    1    2    0  503  0.42574656381E+02 -0.79347964302E+02  0.31803961422E+03  0.37252149345E+03  0.17179745651E+03 0.  0.
        -24    2    3    3    0    0  0.10664500588E+02 -0.11788321488E+03  0.21996926662E+03  0.26232572829E+03  0.80113204548E+02 0.  0.
          6    2    1    2  501    0 -0.42574656381E+02  0.79347964302E+02 -0.38729038180E+02  0.19806789837E+03  0.17211116513E+03 0.  0.
         24    2    5    5    0    0  0.26567081606E+02 -0.66455576911E+01 -0.17116688492E+02  0.85530573829E+02  0.79199272550E+02 0.  0.
          5    1    5    5  501    0 -0.69141737987E+02  0.85993521993E+02 -0.21612349688E+02  0.11253732454E+03  0.47000000000E+01 0. -1.
        -11    1    6    6    0    0  0.14971149388E+02  0.15460961815E+02  0.27189234486E+02  0.34676088681E+02  0.00000000000E+00 0.  1.
         12    1    6    6    0    0  0.11595932219E+02 -0.22106519507E+02 -0.44305922978E+02  0.50854485148E+02  0.00000000000E+00 0. -1.
         -5    1    3    3    0  503  0.31910155793E+02  0.38535250580E+02  0.98070347602E+02  0.11019576516E+03  0.47000000000E+01 0.  1.
         13    1    4    4    0    0  0.17795129929E+02 -0.20270919257E+02  0.11777445772E+03  0.12082383750E+03  0.00000000000E+00 0. -1.
        -14    1    4    4    0    0 -0.71306293406E+01 -0.97612295625E+02  0.10219480890E+03  0.14150189079E+03  0.00000000000E+00 0.  1.
</event>
<event>
12    1  0.1050869E+000  0.2054824E+03  0.7818608E-02  0.1145201E+00
         21   -1    0    0  503  502  0.00000000000E+00  0.00000000000E+00  0.31492526069E+03  0.31492526069E+03  0.00000000000E+00 0.  1.
         21   -1    0    0  501  503 -0.00000000000E+00 -0.00000000000E+00 -0.14663440576E+03  0.14663440576E+03  0.00000000000E+00 0.  1.
          6    2    1    2  501    0  0.10615970825E+03 -0.39778918769E+02  0.15175295354E+03  0.25544469530E+03  0.17137907519E+03 0.  0.
         24    2    3    3    0    0  0.82325316092E+02 -0.44779007108E+02  0.23909255875E+02  0.12521727819E+03  0.79530479027E+02 0.  0.
         -6    2    1    2    0  502 -0.10615970825E+03  0.39778918769E+02  0.16537901383E+02  0.20611497115E+03  0.17134069312E+03 0.  0.
        -24    2    5    5    0    0 -0.10292295624E+03 -0.46807640359E+01  0.59383426510E+02  0.14410715727E+03  0.81396787165E+02 0.  0.
          5    1    3    3  501    0  0.23834392158E+02  0.50000883392E+01  0.12784369766E+03  0.13022741710E+03  0.47000000000E+01 0. -1.
        -11    1    4    4    0    0  0.15177408967E+02 -0.47863629805E+02 -0.79377659612E+01  0.50835901974E+02  0.00000000000E+00 0.  1.
         12    1    4    4    0    0  0.67147907125E+02  0.30846226963E+01  0.31847021836E+02  0.74381376219E+02  0.00000000000E+00 0. -1.
         -5    1    5    5    0  502 -0.32367520120E+01  0.44459682805E+02 -0.42845525127E+02  0.62007813879E+02  0.47000000000E+01 0.  1.
         11    1    6    6    0    0 -0.82358082211E+02  0.24029885045E+02  0.14521500382E+02  0.87012430457E+02  0.00000000000E+00 0. -1.
        -12    1    6    6    0    0 -0.20564874027E+02 -0.28710649080E+02  0.44861926129E+02  0.57094726817E+02  0.00000000000E+00 0.  1.
</event>
<event>
12    1  0.1050869E+000  0.3574082E+03  0.7818608E-02  0.1059621E+00
         21   -1    0    0  501  502  0.00000000000E+00  0.00000000000E+00  0.67492701129E+02  0.67492701129E+02  0.00000000000E+00 0. -1.
         21   -1    0    0  502  503 -0.00000000000E+00 -0.00000000000E+00 -0.23215775564E+04  0.23215775564E+04  0.00000000000E+00 0. -1.
         -6    2    1    2    0  503  0.15265121431E+03  0.27361723467E+03 -0.16407564373E+04  0.16792326522E+04  0.17196461590E+03 0.  0.
        -24    2    3    3    0    0  0.82074369174E+02  0.21679313838E+03 -0.14116541185E+04  0.14328183030E+04  0.80408159807E+02 0.  0.
          6    2    1    2  501    0 -0.15265121431E+03 -0.27361723467E+03 -0.61332841796E+03  0.70983760538E+03  0.17183973172E+03 0.  0.
         24    2    5    5    0    0 -0.17560197233E+03 -0.23441652297E+03 -0.57609150336E+03  0.65091298489E+03  0.77583082692E+02 0.  0.
          5    1    5    5  501    0  0.22950758022E+02 -0.39200711699E+02 -0.37236914597E+02  0.58924620493E+02  0.47000000000E+01 0. -1.
        -13    1    6    6    0    0 -0.65657316043E+02 -0.15193568800E+03 -0.31971982044E+03  0.36002236044E+03  0.00000000000E+00 0.  1.
         14    1    6    6    0    0 -0.10994465629E+03 -0.82480834971E+02 -0.25637168293E+03  0.29089062445E+03  0.00000000000E+00 0. -1.
         -5    1    3    3    0  503  0.70576845138E+02  0.56824096297E+02 -0.22910231880E+03  0.24641434915E+03  0.47000000000E+01 0.  1.
         11    1    4    4    0    0  0.18745232017E+00  0.91677914992E+02 -0.66973255640E+03  0.67597823362E+03  0.00000000000E+00 0. -1.
        -12    1    4    4    0    0  0.81886916854E+02  0.12511522338E+03 -0.74192156213E+03  0.75684006938E+03  0.00000000000E+00 0.  1.
</event>
<event>
12    1  0.1050869E+000  0.2193229E+03  0.7818608E-02  0.1134550E+00
         21   -1    0    0  503  502  0.00000000000E+00  0.00000000000E+00  0.94725129197E+02  0.94725129197E+02  0.00000000000E+00 0.  1.
         21   -1    0    0  501  503 -0.00000000000E+00 -0.00000000000E+00 -0.73465769600E+03  0.73465769600E+03  0.00000000000E+00 0.  1.
          6    2    1    2  501    0  0.13527827325E+03 -0.21342784424E+02 -0.55184071520E+03  0.59382716710E+03  0.17130908842E+03 0.  0.
         24    2    3    3    0    0  0.13811662693E+03 -0.57979481833E+02 -0.35765157369E+03  0.39613595199E+03  0.81063070224E+02 0.  0.
         -6    2    1    2    0  502 -0.13527827325E+03  0.21342784424E+02 -0.88091851606E+02  0.23555565810E+03  0.17020742663E+03 0.  0.
        -24    2    5    5    0    0 -0.17050011300E+02  0.42732631208E+02 -0.22227464339E+01  0.87802347839E+02  0.74749789491E+02 0.  0.
          5    1    3    3  501    0 -0.28383536824E+01  0.36636697409E+02 -0.19418914151E+03  0.19769121511E+03  0.47000000000E+01 0. -1.
        -13    1    4    4    0    0  0.41136574981E+02 -0.19401901481E+02 -0.21275806785E+03  0.21756527071E+03  0.00000000000E+00 0.  1.
         14    1    4    4    0    0  0.96980051952E+02 -0.38577580352E+02 -0.14489350583E+03  0.17857068129E+03  0.00000000000E+00 0. -1.
         -5    1    5    5    0  502 -0.11822826195E+03 -0.21389846785E+02 -0.85869105172E+02  0.14775331026E+03  0.47000000000E+01 0.  1.
         13    1    6    6    0    0 -0.28548133605E+02 -0.12502920685E+02 -0.35470764129E+01  0.31367191603E+02  0.00000000000E+00 0. -1.
        -14    1    6    6    0    0  0.11498122305E+02  0.55235551893E+02  0.13243299790E+01  0.56435156236E+02  0.00000000000E+00 0.  1.
</event>
<event>
12    1  0.1050869E+000  0.1960761E+03  0.7818608E-02  0.1153868E+00
         21   -1    0    0  503  502  0.00000000000E+00  0.00000000000E+00  0.23834688968E+03  0.23834688968E+03  0.00000000000E+00 0.  1.
         21   -1    0    0  501  503 -0.00000000000E+00 -0.00000000000E+00 -0.20648499683E+03  0.20648499683E+03  0.00000000000E+00 0.  1.
          6    2    1    2  501    0 -0.80548926655E+02 -0.27987010195E+02 -0.91288968476E+02  0.21628575771E+03  0.17656288086E+03 0.  0.
         24    2    3    3    0    0 -0.53814131712E+02  0.56371767775E+02 -0.70787944022E+02  0.12532678517E+03  0.67986271318E+02 0.  0.
         -6    2    1    2    0  502  0.80548926655E+02  0.27987010195E+02  0.12315086133E+03  0.22854612880E+03  0.17261458809E+03 0.  0.
        -24    2    5    5    0    0  0.73544814935E+02  0.12614721822E+02  0.48427171739E+01  0.10894566140E+03  0.79232153935E+02 0.  0.
          5    1    3    3  501    0 -0.26734794943E+02 -0.84358777971E+02 -0.20501024454E+02  0.90958972537E+02  0.47000000000E+01 0. -1.
        -13    1    4    4    0    0  0.11872354056E+02  0.24198304672E+02 -0.34195788559E+02  0.43541505429E+02  0.00000000000E+00 0.  1.
         14    1    4    4    0    0 -0.65686485768E+02  0.32173463103E+02 -0.36592155463E+02  0.81785279739E+02  0.00000000000E+00 0. -1.
         -5    1    5    5    0  502  0.70041117194E+01  0.15372288373E+02  0.11830814415E+03  0.11960046741E+03  0.47000000000E+01 0.  1.
         11    1    6    6    0    0  0.82468173786E+01  0.26112387711E+02 -0.23889941086E+02  0.36340006521E+02  0.00000000000E+00 0. -1.
        -12    1    6    6    0    0  0.65297997557E+02 -0.13497665889E+02  0.28732658260E+02  0.72605654876E+02  0.00000000000E+00 0.  1.
</event>
<event>
12    1  0.1050869E+000  0.2153257E+03  0.7818608E-02  0.1137500E+00
         21   -1    0    0  501  502  0.00000000000E+00  0.00000000000E+00  0.38631443857E+04  0.38631443857E+04  0.00000000000E+00 0. -1.
         21   -1    0    0  502  503 -0.00000000000E+00 -0.00000000000E+00 -0.13171142951E+02  0.13171142951E+02  0.00000000000E+00 0. -1.
         -6    2    1    2    0  503 -0.94817088650E+02 -0.87719846884E+02  0.13433378725E+04  0.13604858612E+04  0.17227909572E+03 0.  0.
        -24    2    3    3    0    0 -0.42451032852E+02 -0.13075145812E+02  0.31512209550E+03  0.32822435877E+03  0.80350762215E+02 0.  0.
          6    2    1    2  501    0  0.94817088650E+02  0.87719846884E+02  0.25066353702E+04  0.25158296675E+04  0.17173521693E+03 0.  0.
         24    2    5    5    0    0  0.95651310300E+02  0.88288007324E+02  0.25063737733E+04  0.25110154007E+04  0.79654914681E+02 0.  0.
          5    1    5    5  501    0 -0.83422164975E+00 -0.56816044032E+00  0.26159690323E+00  0.48142668171E+01  0.47000000000E+01 0. -1.
        -11    1    6    6    0    0  0.92732851957E+02  0.68440296890E+02  0.14926005330E+04  0.14970436891E+04  0.00000000000E+00 0.  1.
         12    1    6    6    0    0  0.29184583432E+01  0.19847710434E+02  0.10137732403E+04  0.10139717116E+04  0.00000000000E+00 0. -1.
         -5    1    3    3    0  503 -0.52366055798E+02 -0.74644701072E+02  0.10282157770E+04  0.10322615024E+04  0.47000000000E+01 0.  1.
         11    1    4    4    0    0 -0.19118001518E+02 -0.25464797997E+02  0.36853712792E+02  0.48704723237E+02  0.00000000000E+00 0. -1.
        -12    1    4    4    0    0 -0.23333031334E+02  0.12389652185E+02  0.27826838271E+03  0.27951963553E+03  0.00000000000E+00 0.  1.
</event>
<event>
12    1  0.1050869E+000  0.2163617E+03  0.7818608E-02  0.1137516E+00
         21   -1    0    0  503  502  0.00000000000E+00  0.00000000000E+00  0.66815469455E+03  0.66815469455E+03  0.00000000000E+00 0. -1.
         21   -1    0    0  501  503 -0.00000000000E+00 -0.00000000000E+00 -0.77478577506E+02  0.77478577506E+02  0.00000000000E+00 0. -1.
          6    2    1    2  501    0 -0.12179411303E+03  0.23731009129E+02  0.42455909435E+03  0.47651108200E+03  0.17724395591E+03 0.  0.
         24    2    3    3    0    0 -0.13580957914E+03  0.28691196477E+02  0.42976444422E+03  0.46007263877E+03  0.87760634003E+02 0.  0.
         -6    2    1    2    0  502  0.12179411303E+03 -0.23731009129E+02  0.16611702269E+03  0.26912219005E+03  0.17156608403E+03 0.  0.
        -24    2    5    5    0    0  0.10137693778E+02  0.29174631288E+02  0.60165100207E+02  0.10629079681E+03  0.81999769859E+02 0.  0.
          5    1    3    3  501    0  0.14015466107E+02 -0.49601873476E+01 -0.52053498706E+01  0.16438443235E+02  0.47000000000E+01 0. -1.
        -11    1    4    4    0    0 -0.54303485589E+02  0.44010256364E+02  0.28292766593E+03  0.29143410123E+03  0.00000000000E+00 0.  1.
         12    1    4    4    0    0 -0.81506093553E+02 -0.15319059887E+02  0.14683677829E+03  0.16863853753E+03  0.00000000000E+00 0. -1.
         -5    1    5    5    0  502  0.11165641926E+03 -0.52905640418E+02  0.10595192248E+03  0.16283139325E+03  0.47000000000E+01 0.  1.
         11    1    6    6    0    0 -0.49319962800E+01  0.17988240578E+02  0.78121024200E+02  0.80316846356E+02  0.00000000000E+00 0. -1.
        -12    1    6    6    0    0  0.15069690058E+02  0.11186390710E+02 -0.17955923993E+02  0.25973950451E+02  0.00000000000E+00 0.  1.
</event>
<event>
12    1  0.1050869E+000  0.3590458E+03  0.7818608E-02  0.1058982E+00
         21   -1    0    0  501  502  0.00000000000E+00  0.00000000000E+00  0.10972320802E+04  0.10972320802E+04  0.00000000000E+00 0.  1.
         21   -1    0    0  502  503 -0.00000000000E+00 -0.00000000000E+00 -0.12407578367E+03  0.12407578367E+03  0.00000000000E+00 0.  1.
         -6    2    1    2    0  503  0.25320681016E+03 -0.18786804754E+03  0.62809487308E+03  0.72347568507E+03  0.17177253944E+03 0.  0.
        -24    2    3    3    0    0  0.11007546686E+03 -0.16420987808E+03  0.37170025083E+03  0.42884611640E+03  0.81648163614E+02 0.  0.
          6    2    1    2  501    0 -0.25320681016E+03  0.18786804754E+03  0.34506142343E+03  0.49783217877E+03  0.17135168595E+03 0.  0.
         24    2    5    5    0    0 -0.20925743448E+03  0.19228457080E+03  0.34410475760E+03  0.45340180053E+03  0.80019238116E+02 0.  0.
          5    1    5    5  501    0 -0.43949375685E+02 -0.44165232643E+01  0.95666583251E+00  0.44430378238E+02  0.47000000000E+01 0. -1.
        -11    1    6    6    0    0  0.25532590685E+01  0.20747007038E+02  0.13302825343E+02  0.24777461432E+02  0.00000000000E+00 0.  1.
         12    1    6    6    0    0 -0.21181069355E+03  0.17153756376E+03  0.33080193225E+03  0.42862433910E+03  0.00000000000E+00 0. -1.
         -5    1    3    3    0  503  0.14313134331E+03 -0.23658169457E+02  0.25639462225E+03  0.29462956867E+03  0.47000000000E+01 0.  1.
         11    1    4    4    0    0  0.75921277830E+02 -0.15695673331E+03  0.27079266514E+03  0.32206850832E+03  0.00000000000E+00 0. -1.
        -12    1    4    4    0    0  0.34154189028E+02 -0.72531447682E+01  0.10090758569E+03  0.10677760808E+03  0.00000000000E+00 0.  1.
</event>
<event>
12    1  0.1050869E+000  0.2020387E+03  0.7818608E-02  0.1148038E+00
         21   -1    0    0  501  502  0.00000000000E+00  0.00000000000E+00  0.13544002675E+03  0.13544002675E+03  0.00000000000E+00 0. -1.
         21   -1    0    0  502  503 -0.00000000000E+00 -0.00000000000E+00 -0.72770583233E+03  0.72770583233E+03  0.00000000000E+00 0. -1.
         -6    2    1    2    0  503  0.21406288814E+01 -0.10576350774E+03 -0.62649294637E+03  0.65826517724E+03  0.17213114145E+03 0.  0.
        -24    2    3    3    0    0 -0.58839403686E+02 -0.26197918938E+02 -0.31392018251E+03  0.32997708729E+03  0.78680307386E+02 0.  0.
          6    2    1    2  501    0 -0.21406288814E+01  0.10576350774E+03  0.34227140783E+02  0.20488068184E+03  0.17208746254E+03 0.  0.
         24    2    5    5    0    0  0.62498622138E+01 -0.14665691526E+02  0.28728282311E+02  0.83943012679E+02  0.77246177171E+02 0.  0.
          5    1    5    5  501    0 -0.83904910953E+01  0.12042919927E+03  0.54988584722E+01  0.12093766916E+03  0.47000000000E+01 0. -1.
        -11    1    6    6    0    0  0.28206508425E+02  0.64778546224E+01  0.41746961949E+02  0.50797426608E+02  0.00000000000E+00 0.  1.
         12    1    6    6    0    0 -0.21956646211E+02 -0.21143546148E+02 -0.13018679638E+02  0.33145586072E+02  0.00000000000E+00 0. -1.
         -5    1    3    3    0  503  0.60980032568E+02 -0.79565588807E+02 -0.31257276386E+03  0.32828808995E+03  0.47000000000E+01 0.  1.
         13    1    4    4    0    0  0.16109247829E+02  0.57512539074E+01 -0.29323098350E+02  0.33947442967E+02  0.00000000000E+00 0. -1.
        -14    1    4    4    0    0 -0.74948651515E+02 -0.31949172845E+02 -0.28459708416E+03  0.29602964432E+03  0.00000000000E+00 0.  1.
</event>
<event>
12    1  0.1050869E+000  0.2487350E+03  0.7818608E-02  0.1114110E+00
         21   -1    0    0  503  502  0.00000000000E+00  0.00000000000E+00  0.21783737881E+03  0.21783737881E+03  0.00000000000E+00 0.  1.
         21   -1    0    0  501  503 -0.00000000000E+00 -0.00000000000E+00 -0.31494137754E+03  0.31494137754E+03  0.00000000000E+00 0.  1.
          6    2    1    2  501    0 -0.74805146953E+02 -0.16224889411E+03  0.34959459745E+02  0.25115868301E+03  0.17302602861E+03 0.  0.
         24    2    3    3    0    0 -0.30606724624E+02 -0.14549677905E+02 -0.18291091232E+02  0.87983102172E+02  0.79107506155E+02 0.  0.
         -6    2    1    2    0  502  0.74805146953E+02  0.16224889411E+03 -0.13206345848E+03  0.28162007335E+03  0.17305662368E+03 0.  0.
        -24    2    5    5    0    0  0.67207224880E+02  0.16431448193E+03 -0.50401933497E+02  0.19944532215E+03  0.75644045236E+02 0.  0.
          5    1    3    3  501    0 -0.44198422329E+02 -0.14769921620E+03  0.53250550977E+02  0.16317558084E+03  0.47000000000E+01 0. -1.
        -11    1    4    4    0    0 -0.34001162609E+01 -0.42553712122E+01  0.30606373783E+02  0.31087281818E+02  0.00000000000E+00 0.  1.
         12    1    4    4    0    0 -0.27206608363E+02 -0.10294306693E+02 -0.48897465014E+02  0.56895820354E+02  0.00000000000E+00 0. -1.
         -5    1    5    5    0  502  0.75979220729E+01 -0.20655878207E+01 -0.81661524978E+02  0.82174751199E+02  0.47000000000E+01 0.  1.
         13    1    6    6    0    0  0.12290095644E+02  0.80712527246E+02  0.10534386971E+02  0.82319692749E+02  0.00000000000E+00 0. -1.
        -14    1    6    6    0    0  0.54917129237E+02  0.83601954680E+02 -0.60936320468E+02  0.11712562940E+03  0.00000000000E+00 0.  1.
</event>
<event>
12    1  0.1050869E+000  0.2107216E+03  0.7818608E-02  0.1141077E+00
         21   -1    0    0  503  502  0.00000000000E+00  0.00000000000E+00  0.48623198681E+03  0.48623198681E+03  0.00000000000E+00 0. -1.
         21   -1    0    0  501  503 -0.00000000000E+00 -0.00000000000E+00 -0.10439300018E+03  0.10439300018E+03  0.00000000000E+00 0.  1.
          6    2    1    2  501    0  0.86737147620E+02 -0.85265055535E+02  0.29629252218E+03  0.36358332874E+03  0.17207590118E+03 0.  0.
         24    2    3    3    0    0  0.74702687963E+02  0.56960520224E+01  0.10786949097E+03  0.15395489556E+03  0.80332721779E+02 0.  0.
         -6    2    1    2    0  502 -0.86737147620E+02  0.85265055535E+02  0.85546464453E+02  0.22704165825E+03  0.17156996977E+03 0.  0.
        -24    2    5    5    0    0 -0.46599009685E+01  0.60695725943E+02  0.98642063212E+02  0.14024355296E+03  0.78944991531E+02 0.  0.
          5    1    3    3  501    0  0.12034459657E+02 -0.90961107557E+02  0.18842303121E+03  0.20962843318E+03  0.47000000000E+01 0. -1.
        -13    1    4    4    0    0  0.47624260480E+02  0.40724925681E+02  0.80074419302E+02  0.10167842635E+03  0.00000000000E+00 0.  1.
         14    1    4    4    0    0  0.27078427483E+02 -0.35028873658E+02  0.27795071668E+02  0.52276469216E+02  0.00000000000E+00 0. -1.
         -5    1    5    5    0  502 -0.82077246652E+02  0.24569329592E+02 -0.13095598759E+02  0.86798105287E+02  0.47000000000E+01 0.  1.
         11    1    6    6    0    0 -0.16662826100E+02  0.74243043827E+02  0.57745635410E+02  0.95520875934E+02  0.00000000000E+00 0. -1.
        -12    1    6    6    0    0  0.12002925132E+02 -0.13547317884E+02  0.40896427802E+02  0.44722677028E+02  0.00000000000E+00 0.  1.
</event>
<event>
12    1  0.1050869E+000  0.1724403E+03  0.7818608E-02  0.1175642E+00
         21   -1    0    0  501  502  0.00000000000E+00  0.00000000000E+00  0.32884061479E+03  0.32884061479E+03  0.00000000000E+00 0.  1.
         21   -1    0    0  502  503 -0.00000000000E+00 -0.00000000000E+00 -0.10062545147E+03  0.10062545147E+03  0.00000000000E+00 0.  1.
         -6    2    1    2    0  503  0.12508588095E+02  0.61768245345E+00  0.18495535844E+03  0.25287180308E+03  0.17198493501E+03 0.  0.
        -24    2    3    3    0    0 -0.11088336736E+02 -0.46781259723E+02  0.17599070774E+03  0.19896512870E+03  0.79391156643E+02 0.  0.
          6    2    1    2  501    0 -0.12508588095E+02 -0.61768245345E+00  0.43259804879E+02  0.17659426318E+03  0.17075501973E+03 0.  0.
         24    2    5    5    0    0 -0.66411891374E+02 -0.60378311443E+01  0.59770455184E+02  0.11976437941E+03  0.79523609958E+02 0.  0.
          5    1    5    5  501    0  0.53903303280E+02  0.54201486908E+01 -0.16510650305E+02  0.56829883774E+02  0.47000000000E+01 0. -1.
        -11    1    6    6    0    0 -0.16236620329E+02  0.20084743133E+02  0.57633772013E+02  0.63155969020E+02  0.00000000000E+00 0.  1.
         12    1    6    6    0    0 -0.50175271046E+02 -0.26122574277E+02  0.21366831704E+01  0.56608410385E+02  0.00000000000E+00 0. -1.
         -5    1    3    3    0  503  0.23596924830E+02  0.47398942177E+02  0.89646506973E+01  0.53906674383E+02  0.47000000000E+01 0.  1.
         11    1    4    4    0    0 -0.28354100738E+02 -0.49265885678E+02  0.63893318858E+02  0.85518645423E+02  0.00000000000E+00 0. -1.
        -12    1    4    4    0    0  0.17265764002E+02  0.24846259545E+01  0.11209738888E+03  0.11344648327E+03  0.00000000000E+00 0.  1.
</event>
<event>
12    1  0.1050869E+000  0.3518110E+03  0.7818608E-02  0.1061918E+00
         21   -1    0    0  503  502  0.00000000000E+00  0.00000000000E+00  0.29728541064E+03  0.29728541064E+03  0.00000000000E+00 0.  1.
         21   -1    0    0  501  503 -0.00000000000E+00 -0.00000000000E+00 -0.41864358762E+03  0.41864358762E+03  0.00000000000E+00 0.  1.
          6    2    1    2  501    0 -0.45811218677E+02  0.30315933693E+03 -0.90008113419E+02  0.36272392754E+03  0.17164770842E+03 0.  0.
         24    2    3    3    0    0 -0.96340022040E+02  0.19268525304E+03 -0.45145715571E+02  0.23313840396E+03  0.76852932160E+02 0.  0.
         -6    2    1    2    0  502  0.45811218677E+02 -0.30315933693E+03 -0.31350063557E+02  0.35320507072E+03  0.17253041520E+03 0.  0.
        -24    2    5    5    0    0 -0.39227653398E+02 -0.13504072159E+03 -0.52208581772E+01  0.16294129602E+03  0.82145013906E+02 0.  0.
          5    1    3    3  501    0  0.50528803363E+02  0.11047408390E+03 -0.44862397848E+02  0.12958552359E+03  0.47000000000E+01 0. -1.
        -11    1    4    4    0    0  0.88049657124E+01  0.29517773398E+01  0.49292363457E+01  0.10513694955E+02  0.00000000000E+00 0.  1.
         12    1    4    4    0    0 -0.10514498775E+03  0.18973347570E+03 -0.50074951916E+02  0.22262470900E+03  0.00000000000E+00 0. -1.
         -5    1    5    5    0  502  0.85038872075E+02 -0.16811861534E+03 -0.26129205380E+02  0.19026377470E+03  0.47000000000E+01 0.  1.
         13    1    6    6    0    0  0.20894770316E+02 -0.75007048335E+02 -0.40950427534E+01  0.77970623325E+02  0.00000000000E+00 0. -1.
        -14    1    6    6    0    0 -0.60122423714E+02 -0.60033673255E+02 -0.11258154238E+01  0.84970672694E+02  0.00000000000E+00 0.  1.
</event>
<event>
12    1  0.1050869E+000  0.2502303E+03  0.7818608E-02  0.1113988E+00
         21   -1    0    0  503  502  0.00000000000E+00  0.00000000000E+00  0.61237472598E+03  0.61237472598E+03  0.00000000000E+00 0. -1.
         21   -1    0    0  501  503 -0.00000000000E+00 -0.00000000000E+00 -0.26942236522E+03  0.26942236522E+03  0.00000000000E+00 0.  1.
          6    2    1    2  501    0  0.54293038196E+02  0.16558537176E+03  0.52028645781E+03  0.57510081555E+03  0.17226926750E+03 0.  0.
         24    2    3    3    0    0  0.96616625663E+02  0.15835384869E+03  0.44497489429E+03  0.48828202390E+03  0.77498158526E+02 0.  0.
         -6    2    1    2    0  502 -0.54293038196E+02 -0.16558537176E+03 -0.17733409706E+03  0.30669627565E+03  0.17957999381E+03 0.  0.
        -24    2    5    5    0    0 -0.53271386645E+02 -0.12293108356E+02 -0.66944231387E+02  0.11773179688E+03  0.79939256518E+02 0.  0.
          5    1    3    3  501    0 -0.42323587467E+02  0.72315230761E+01  0.75311563529E+02  0.86818791648E+02  0.47000000000E+01 0. -1.
        -13    1    4    4    0    0  0.31963747198E+02  0.82094394591E+02  0.12408671724E+03  0.15217977577E+03  0.00000000000E+00 0.  1.
         14    1    4    4    0    0  0.64652878465E+02  0.76259454097E+02  0.32088817705E+03  0.33610224813E+03  0.00000000000E+00 0. -1.
         -5    1    5    5    0  502 -0.10216515508E+01 -0.15329226341E+03 -0.11038986567E+03  0.18896447877E+03  0.47000000000E+01 0.  1.
         11    1    6    6    0    0 -0.35517840603E+02 -0.33146231688E+02 -0.35932393292E+01  0.48714484962E+02  0.00000000000E+00 0. -1.
        -12    1    6    6    0    0 -0.17753546042E+02  0.20853123333E+02 -0.63350992058E+02  0.69017311918E+02  0.00000000000E+00 0.  1.
</event>
<event>
12    1  0.1050869E+000  0.1798578E+03  0.7818608E-02  0.1171025E+00
         21   -1    0    0  503  502  0.00000000000E+00  0.00000000000E+00  0.35237217566E+02  0.35237217566E+02  0.00000000000E+00 0.  1.
         21   -1    0    0  501  503 -0.00000000000E+00 -0.00000000000E+00 -0.89732456981E+03  0.89732456981E+03  0.00000000000E+00 0.  1.
          6    2    1    2  501    0  0.50906716946E+02 -0.14543882887E+02 -0.31712801146E+03  0.35868940956E+03  0.15901225903E+03 0.  0.
         24    2    3    3    0    0  0.15199044950E+02 -0.24794434949E+02 -0.30857594058E+03  0.32027926021E+03  0.80708849866E+02 0.  0.
         -6    2    1    2    0  502 -0.50906716946E+02  0.14543882887E+02 -0.54495934079E+03  0.57387237782E+03  0.17188893084E+03 0.  0.
        -24    2    5    5    0    0 -0.10405082271E+02 -0.12999537028E+02 -0.11457777909E+03  0.14068719680E+03  0.79922250872E+02 0.  0.
          5    1    3    3  501    0  0.35707671995E+02  0.10250552062E+02 -0.85520708797E+01  0.38410149352E+02  0.47000000000E+01 0. -1.
        -11    1    4    4    0    0  0.39610453207E+02  0.33319733869E+01 -0.87732953352E+02  0.96318020919E+02  0.00000000000E+00 0.  1.
         12    1    4    4    0    0 -0.24411408256E+02 -0.28126408336E+02 -0.22084298722E+03  0.22396123929E+03  0.00000000000E+00 0. -1.
         -5    1    5    5    0  502 -0.40501634675E+02  0.27543419915E+02 -0.43038156171E+03  0.43318518101E+03  0.47000000000E+01 0.  1.
         13    1    6    6    0    0 -0.21129254324E+02 -0.44011569453E+02 -0.67865320077E+02  0.83601227880E+02  0.00000000000E+00 0. -1.
        -14    1    6    6    0    0  0.10724172053E+02  0.31012032425E+02 -0.46712459009E+02  0.57085968924E+02  0.00000000000E+00 0.  1.
</event>
<event>
12    1  0.1050869E+000  0.2784271E+03  0.7818608E-02  0.1098179E+00
         21   -1    0    0  501  502  0.00000000000E+00  0.00000000000E+00  0.58536017435E+03  0.58536017435E+03  0.00000000000E+00 0. -1.
         21   -1    0    0  502  503 -0.00000000000E+00 -0.00000000000E+00 -0.13569827918E+03  0.13569827918E+03  0.00000000000E+00 0.  1.
         -6    2    1    2    0  503 -0.20484752267E+03 -0.41234735126E+02  0.31169497960E+03  0.41032298527E+03  0.16597704964E+03 0.  0.
        -24    2    3    3    0    0 -0.87732687292E+02  0.42333947429E-01  0.67260912930E+02  0.13611542876E+03  0.79412551448E+02 0.  0.
          6    2    1    2  501    0  0.20484752267E+03  0.41234735126E+02  0.13796691557E+03  0.31073546825E+03  0.18400774579E+03 0.  0.
         24    2    5    5    0    0  0.81954055742E+02  0.97154224889E+02  0.97057976561E+02  0.16957802126E+03  0.56400743040E+02 0.  0.
          5    1    5    5  501    0  0.12289346693E+03 -0.55919489763E+02  0.40908939008E+02  0.14115744699E+03  0.47000000000E+01 0. -1.
        -13    1    6    6    0    0  0.46286166448E+02  0.16932802573E+02  0.21595143987E+02  0.53809657602E+02  0.00000000000E+00 0.  1.
         14    1    6    6    0    0  0.35667889295E+02  0.80221422316E+02  0.75462832574E+02  0.11576836366E+03  0.00000000000E+00 0. -1.
         -5    1    3    3    0  503 -0.11711483538E+03 -0.41277069073E+02  0.24443406667E+03  0.27420755651E+03  0.47000000000E+01 0.  1.
         11    1    4    4    0    0 -0.25738525333E+02 -0.33629486688E+02  0.61765039683E+01  0.42796766963E+02  0.00000000000E+00 0. -1.
        -12    1    4    4    0    0 -0.61994161959E+02  0.33671820635E+02  0.61084408962E+02  0.93318661800E+02  0.00000000000E+00 0.  1.
</event>
<event>
12    1  0.1050869E+000  0.2852614E+03  0.7818608E-02  0.1092967E+00
         21   -1    0    0  503  502  0.00000000000E+00  0.00000000000E+00  0.23938401441E+03  0.23938401441E+03  0.00000000000E+00 0. -1.
         21   -1    0    0  501  503 -0.00000000000E+00 -0.00000000000E+00 -0.35031586794E+03  0.35031586794E+03  0.00000000000E+00 0. -1.
          6    2    1    2  501    0  0.13098657628E+03 -0.18643541680E+03 -0.21235229834E+01  0.28439131881E+03  0.17017128154E+03 0.  0.
         24    2    3    3    0    0  0.28119112661E+02 -0.96834890096E+02  0.50389915772E+02  0.13813906854E+03  0.79847217924E+02 0.  0.
         -6    2    1    2    0  502 -0.13098657628E+03  0.18643541680E+03 -0.10880833055E+03  0.30530856355E+03  0.17163454891E+03 0.  0.
        -24    2    5    5    0    0 -0.84914768920E+02  0.13984604304E+03 -0.46997313313E+01  0.18220750096E+03  0.80062801580E+02 0.  0.
          5    1    3    3  501    0  0.10286746362E+03 -0.89600526700E+02 -0.52513438756E+02  0.14625225026E+03  0.47000000000E+01 0. -1.
        -11    1    4    4    0    0  0.55871403895E+02 -0.58731855792E+02  0.26437420122E+02  0.85264188500E+02  0.00000000000E+00 0.  1.
         12    1    4    4    0    0 -0.27752291233E+02 -0.38103034304E+02  0.23952495650E+02  0.52874880044E+02  0.00000000000E+00 0. -1.
         -5    1    5    5    0  502 -0.46071807361E+02  0.46589373759E+02 -0.10410859922E+03  0.12310106259E+03  0.47000000000E+01 0.  1.
         13    1    6    6    0    0 -0.29376709554E+02  0.93009284095E+02 -0.34810445580E+02  0.10356391801E+03  0.00000000000E+00 0. -1.
        -14    1    6    6    0    0 -0.55538059366E+02  0.46836758941E+02  0.30110714248E+02  0.78643582947E+02  0.00000000000E+00 0.  1.
</event>
<event>
12    1  0.1050869E+000  0.3033460E+03  0.7818608E-02  0.1083653E+00
         21   -1    0    0  501  502  0.00000000000E+00  0.00000000000E+00  0.28991056986E+04  0.28991056986E+04  0.00000000000E+00 0. -1.
         21   -1    0    0  502  503 -0.00000000000E+00 -0.00000000000E+00 -0.69297605418E+02  0.69297605418E+02  0.00000000000E+00 0. -1.
         -6    2    1    2    0  503 -0.21615657311E+03 -0.12559342872E+03  0.25078200890E+04  0.25260289364E+04  0.17077240714E+03 0.  0.
        -24    2    3    3    0    0 -0.13369902646E+03 -0.75646284545E+02  0.20962685653E+04  0.21033106958E+04  0.77305855330E+02 0.  0.
          6    2    1    2  501    0  0.21615657311E+03  0.12559342872E+03  0.32198800414E+03  0.44237436762E+03  0.17181802259E+03 0.  0.
         24    2    5    5    0    0  0.29322151085E+02  0.57206997619E+02  0.13427550080E+03  0.16880192910E+03  0.79572306941E+02 0.  0.
          5    1    5    5  501    0  0.18683442202E+03  0.68386431103E+02  0.18771250334E+03  0.27357243852E+03  0.47000000000E+01 0. -1.
        -13    1    6    6    0    0  0.46067049681E+02  0.22176255409E+02  0.11413268281E+03  0.12506089979E+03  0.00000000000E+00 0.  1.
         14    1    6    6    0    0 -0.16744898597E+02  0.35030742210E+02  0.20142817992E+02  0.43741029314E+02  0.00000000000E+00 0. -1.
         -5    1    3    3    0  503 -0.82457546645E+02 -0.49947144177E+02  0.41155152368E+03  0.42271824050E+03  0.47000000000E+01 0.  1.
         13    1    4    4    0    0 -0.10590822970E+03 -0.22339033965E+02  0.11293120973E+04  0.11344872845E+04  0.00000000000E+00 0. -1.
        -14    1    4    4    0    0 -0.27790796760E+02 -0.53307250580E+02  0.96695646804E+03  0.96882341138E+03  0.00000000000E+00 0.  1.
</event>
<event>
12    1  0.1050869E+000  0.2932547E+03  0.7818608E-02  0.1089006E+00
         21   -1    0    0  503  502  0.00000000000E+00  0.00000000000E+00  0.58459878098E+03  0.58459878098E+03  0.00000000000E+00 0.  1.
         21   -1    0    0  501  503 -0.00000000000E+00 -0.00000000000E+00 -0.15400171133E+03  0.15400171133E+03  0.00000000000E+00 0.  1.
          6    2    1    2  501    0  0.15475495424E+03  0.17661911270E+03  0.30157342148E+03  0.42064813945E+03  0.17565569118E+03 0.  0.
         24    2    3    3    0    0  0.12865487559E+01  0.74455327078E+02  0.12086069512E+03  0.16244440198E+03  0.78965974773E+02 0.  0.
         -6    2    1    2    0  502 -0.15475495424E+03 -0.17661911270E+03  0.12902364816E+03  0.31795235286E+03  0.17118174573E+03 0.  0.
        -24    2    5    5    0    0 -0.15399048362E+03 -0.19349644592E+03  0.89429584479E+02  0.27464867322E+03  0.79248340624E+02 0.  0.
          5    1    3    3  501    0  0.15346840548E+03  0.10216378562E+03  0.18071272637E+03  0.25820373747E+03  0.47000000000E+01 0. -1.
        -11    1    4    4    0    0  0.27721582124E+01  0.45369112493E+02  0.83360181510E+01  0.46211799664E+02  0.00000000000E+00 0.  1.
         12    1    4    4    0    0 -0.14856094565E+01  0.29086214585E+02  0.11252467697E+03  0.11623260232E+03  0.00000000000E+00 0. -1.
         -5    1    5    5    0  502 -0.76447061391E+00  0.16877333213E+02  0.39594063683E+02  0.43303679643E+02  0.47000000000E+01 0.  1.
         13    1    6    6    0    0 -0.10787153023E+03 -0.77540851790E+02  0.28913823262E+02  0.13595903760E+03  0.00000000000E+00 0. -1.
        -14    1    6    6    0    0 -0.46118953394E+02 -0.11595559413E+03  0.60515761216E+02  0.13868963561E+03  0.00000000000E+00 0.  1.
</event>
<event>
12    1  0.1050869E+000  0.5859204E+03  0.7818608E-02  0.9935168E-01
         21   -1    0    0  503  502  0.00000000000E+00  0.00000000000E+00  0.82133221219E+03  0.82133221219E+03  0.00000000000E+00 0.  1.
         21   -1    0    0  501  503 -0.00000000000E+00 -0.00000000000E+00 -0.44061409726E+03  0.44061409726E+03  0.00000000000E+00 0.  1.
          6    2    1    2  501    0  0.43813488782E+03 -0.34870424355E+03  0.46852179903E+02  0.58758051799E+03  0.17175246421E+03 0.  0.
         24    2    3    3    0    0  0.17793808730E+03 -0.83902268167E+02 -0.16756346180E+01  0.21314828120E+03  0.82023341249E+02 0.  0.
         -6    2    1    2    0  502 -0.43813488782E+03  0.34870424355E+03  0.33386593503E+03  0.67436579145E+03  0.17247008061E+03 0.  0.
        -24    2    5    5    0    0 -0.35060881478E+03  0.34451188883E+03  0.29139254617E+03  0.57687493002E+03  0.79120707630E+02 0.  0.
          5    1    3    3  501    0  0.26019680052E+03 -0.26480197539E+03  0.48527814521E+02  0.37443223680E+03  0.47000000000E+01 0. -1.
        -13    1    4    4    0    0  0.51831540903E+02 -0.49926662930E+02 -0.32487669255E+02  0.78959666649E+02  0.00000000000E+00 0.  1.
         14    1    4    4    0    0  0.12610654640E+03 -0.33975605237E+02  0.30812034637E+02  0.13418861455E+03  0.00000000000E+00 0. -1.
         -5    1    5    5    0  502 -0.87526073047E+02  0.41923547187E+01  0.42473388861E+02  0.97490861430E+02  0.47000000000E+01 0.  1.
         11    1    6    6    0    0 -0.87208851258E+02  0.13574627274E+03  0.83433732820E+02  0.18164146573E+03  0.00000000000E+00 0. -1.
        -12    1    6    6    0    0 -0.26339996352E+03  0.20876561609E+03  0.20795881335E+03  0.39523346429E+03  0.00000000000E+00 0.  1.
</event>
<event>
12    1  0.1050869E+000  0.1881265E+03  0.7818608E-02  0.1161238E+00
         21   -1    0    0  501  502  0.00000000000E+00  0.00000000000E+00  0.73325592824E+02  0.73325592824E+02  0.00000000000E+00 0. -1.
         21   -1    0    0  502  503 -0.00000000000E+00 -0.00000000000E+00 -0.75011365273E+03  0.75011365273E+03  0.00000000000E+00 0. -1.
         -6    2    1    2    0  503  0.38576825002E+02  0.68570151229E+02 -0.84520534434E+02  0.20201152847E+03  0.16575554237E+03 0.  0.
        -24    2    3    3    0    0 -0.12475108556E+01  0.58224114663E+02  0.63824610512E+01  0.10211927258E+03  0.83642131797E+02 0.  0.
          6    2    1    2  501    0 -0.38576825002E+02 -0.68570151229E+02 -0.59226752547E+03  0.62142771708E+03  0.17088460656E+03 0.  0.
         24    2    5    5    0    0 -0.30685250690E+02 -0.68208307250E+02 -0.19084118594E+03  0.21989614429E+03  0.79624105870E+02 0.  0.
          5    1    5    5  501    0 -0.78915743119E+01 -0.36184397892E+00 -0.40142633953E+03  0.40153157279E+03  0.47000000000E+01 0. -1.
        -13    1    6    6    0    0  0.27208690405E+02 -0.23195700137E+02 -0.57148195187E+02  0.67411197523E+02  0.00000000000E+00 0.  1.
         14    1    6    6    0    0 -0.57893941094E+02 -0.45012607113E+02 -0.13369299075E+03  0.15248494677E+03  0.00000000000E+00 0. -1.
         -5    1    3    3    0  503  0.39824335857E+02  0.10346036566E+02 -0.90902995485E+02  0.99892255893E+02  0.47000000000E+01 0.  1.
         11    1    4    4    0    0 -0.41684077066E+02  0.24400554536E+02 -0.37151846866E+01  0.48443285807E+02  0.00000000000E+00 0. -1.
        -12    1    4    4    0    0  0.40436566211E+02  0.33823560127E+02  0.10097645738E+02  0.53675986773E+02  0.00000000000E+00 0.  1.
</event>
<event>
12    1  0.1050869E+000  0.1832068E+03  0.7818608E-02  0.1165351E+00
         21   -1    0    0  501  502  0.00000000000E+00  0.00000000000E+00  0.16106331896E+03  0.16106331896E+03  0.00000000000E+00 0.  1.
         21   -1    0    0  502  503 -0.00000000000E+00 -0.00000000000E+00 -0.22905455638E+03  0.22905455638E+03  0.00000000000E+00 0.  1.
         -6    2    1    2    0  503 -0.55501892627E+02 -0.13472311524E+02  0.28816467769E+02  0.18290668761E+03  0.17135490741E+03 0.  0.
        -24    2    3    3    0    0 -0.63524978301E+02 -0.48939129687E+02 -0.27278278331E+02  0.11589194569E+03  0.79097264960E+02 0.  0.
          6    2    1    2  501    0  0.55501892627E+02  0.13472311524E+02 -0.96807705181E+02  0.20721118773E+03  0.17407694068E+03 0.  0.
         24    2    5    5    0    0 -0.49771564777E+02 -0.98827749811E+01 -0.43196341909E+02  0.86694677779E+02  0.55454172966E+02 0.  0.
          5    1    5    5  501    0  0.10527345740E+03  0.23355086505E+02 -0.53611363272E+02  0.12051650995E+03  0.47000000000E+01 0. -1.
        -13    1    6    6    0    0 -0.75184927289E+01 -0.18663941255E+02  0.62446583561E+01  0.21068132192E+02  0.00000000000E+00 0.  1.
         14    1    6    6    0    0 -0.42253072048E+02  0.87811662735E+01 -0.49441000265E+02  0.65626545588E+02  0.00000000000E+00 0. -1.
         -5    1    3    3    0  503  0.80230856735E+01  0.35466818163E+02  0.56094746099E+02  0.67014741918E+02  0.47000000000E+01 0.  1.
         13    1    4    4    0    0 -0.84252661769E+01 -0.19343693357E+02 -0.45997632746E+02  0.50605788217E+02  0.00000000000E+00 0. -1.
        -14    1    4    4    0    0 -0.55099712124E+02 -0.29595436329E+02  0.18719354415E+02  0.65286157472E+02  0.00000000000E+00 0.  1.
</event>
<event>
12    1  0.1050869E+000  0.3257306E+03  0.7818608E-02  0.1074027E+00
         21   -1    0    0  501  502  0.00000000000E+00  0.00000000000E+00  0.60669126325E+03  0.60669126325E+03  0.00000000000E+00 0. -1.
         21   -1    0    0  502  503 -0.00000000000E+00 -0.00000000000E+00 -0.17276199190E+03  0.17276199190E+03  0.00000000000E+00 0. -1.
         -6    2    1    2    0  503 -0.26961285791E+03 -0.59239559171E+02  0.26655853865E+03  0.42089651955E+03  0.17291618525E+03 0.  0.
        -24    2    3    3    0    0 -0.96969654990E+02 -0.44762375804E+02  0.47317826830E+02  0.14142586980E+03  0.79721487917E+02 0.  0.
          6    2    1    2  501    0  0.26961285791E+03  0.59239559171E+02  0.16737073269E+03  0.35855673560E+03  0.15604342972E+03 0.  0.
         24    2    5    5    0    0  0.21228149570E+03 -0.70804070537E+01  0.13534705992E+03  0.26510713084E+03  0.82761093567E+02 0.  0.
          5    1    5    5  501    0  0.57331362209E+02  0.66319966224E+02  0.32023672768E+02  0.93449604762E+02  0.47000000000E+01 0. -1.
        -13    1    6    6    0    0  0.10866710937E+03 -0.13699260194E+02  0.11592062179E+03  0.15947978224E+03  0.00000000000E+00 0.  1.
         14    1    6    6    0    0  0.10361438633E+03  0.66188531403E+01  0.19426438135E+02  0.10562734859E+03  0.00000000000E+00 0. -1.
         -5    1    3    3    0  503 -0.17264320292E+03 -0.14477183367E+02  0.21924071182E+03  0.27947064975E+03  0.47000000000E+01 0.  1.
         13    1    4    4    0    0 -0.34891080258E+02  0.19018418222E+02 -0.17803585687E+01  0.39777599096E+02  0.00000000000E+00 0. -1.
        -14    1    4    4    0    0 -0.62078574732E+02 -0.63780794025E+02  0.49098185398E+02  0.10164827070E+03  0.00000000000E+00 0.  1.
</event>
<event>
12    1  0.1050869E+000  0.1741834E+03  0.7818608E-02  0.1175490E+00
         21   -1    0    0  501  502  0.00000000000E+00  0.00000000000E+00  0.15281332015E+04  0.15281332015E+04  0.00000000000E+00 0.  1.
         21   -1    0    0  502  503 -0.00000000000E+00 -0.00000000000E+00 -0.19555138828E+02  0.19555138828E+02  0.00000000000E+00 0.  1.
         -6    2    1    2    0  503 -0.29423930849E+02 -0.61262702154E+01  0.60899941761E+03  0.63140149002E+03  0.16396417919E+03 0.  0.
        -24    2    3    3    0    0 -0.32797351564E+02  0.54239601167E+02  0.45427862981E+03  0.46522077341E+03  0.77741198266E+02 0.  0.
          6    2    1    2  501    0  0.29423930849E+02  0.61262702154E+01  0.89957864501E+03  0.91628685025E+03  0.17157084396E+03 0.  0.
         24    2    5    5    0    0  0.36026469886E+01 -0.59741822237E+02  0.61991058826E+03  0.62777054869E+03  0.78896514331E+02 0.  0.
          5    1    5    5  501    0  0.25821283860E+02  0.65868092453E+02  0.27966805675E+03  0.28851630156E+03  0.47000000000E+01 0. -1.
        -13    1    6    6    0    0 -0.25133387873E+02 -0.12698739955E+02  0.40237045461E+03  0.40335459329E+03  0.00000000000E+00 0.  1.
         14    1    6    6    0    0  0.28736034862E+02 -0.47043082282E+02  0.21754013365E+03  0.22441595540E+03  0.00000000000E+00 0. -1.
         -5    1    3    3    0  503  0.33734207151E+01 -0.60365871383E+02  0.15472078781E+03  0.16618071662E+03  0.47000000000E+01 0.  1.
         11    1    4    4    0    0  0.70445344879E+01 -0.66475265574E+01  0.21272944164E+03  0.21294983075E+03  0.00000000000E+00 0. -1.
        -12    1    4    4    0    0 -0.39841886052E+02  0.60887127725E+02  0.24154918817E+03  0.25227094266E+03  0.00000000000E+00 0.  1.
</event>
<event>
12    1  0.1050869E+000  0.2558908E+03  0.7818608E-02  0.1109701E+00
         21   -1    0    0  501  502  0.00000000000E+00  0.00000000000E+00  0.15328152679E+03  0.15328152679E+03  0.00000000000E+00 0. -1.
         21   -1    0    0  502  503 -0.00000000000E+00 -0.00000000000E+00 -0.55732850746E+03  0.55732850746E+03  0.00000000000E+00 0. -1.
         -6    2    1    2    0  503  0.97541211930E+02 -0.16277793849E+03 -0.29750041673E+02  0.25720260598E+03  0.17104727493E+03 0.  0.
        -24    2    3    3    0    0  0.11252022711E+03 -0.66196472108E+02 -0.42601702134E+02  0.15851316521E+03  0.79175400794E+02 0.  0.
          6    2    1    2  501    0 -0.97541211930E+02  0.16277793849E+03 -0.37429693900E+03  0.45340742827E+03  0.17166581541E+03 0.  0.
         24    2    5    5    0    0 -0.44649489942E+02  0.15138832107E+03 -0.35327751541E+03  0.39517372834E+03  0.80282451157E+02 0.  0.
          5    1    5    5  501    0 -0.52891721988E+02  0.11389617415E+02 -0.21019423590E+02  0.58233699932E+02  0.47000000000E+01 0. -1.
        -11    1    6    6    0    0  0.86272560607E+01  0.54429898332E+02 -0.58741541948E+02  0.80545714535E+02  0.00000000000E+00 0.  1.
         12    1    6    6    0    0 -0.53276746003E+02  0.96958422737E+02 -0.29453597346E+03  0.31462801380E+03  0.00000000000E+00 0. -1.
         -5    1    3    3    0  503 -0.14979015180E+02 -0.96581466377E+02  0.12851660461E+02  0.98689440772E+02  0.47000000000E+01 0.  1.
         11    1    4    4    0    0  0.22077370089E+02 -0.14267820635E+01  0.20888995751E+02  0.30426897979E+02  0.00000000000E+00 0. -1.
        -12    1    4    4    0    0  0.90442857021E+02 -0.64769690045E+02 -0.63490697885E+02  0.12808626723E+03  0.00000000000E+00 0.  1.
</event>
<event>
12    1  0.1050869E+000  0.1780219E+03  0.7818608E-02  0.1169951E+00
         21   -1    0    0  501  502  0.00000000000E+00  0.00000000000E+00  0.25293519785E+03  0.25293519785E+03  0.00000000000E+00 0.  1.
         21   -1    0    0  502  503 -0.00000000000E+00 -0.00000000000E+00 -0.12822847907E+03  0.12822847907E+03  0.00000000000E+00 0.  1.
         -6    2    1    2    0  503 -0.37801892723E+02 -0.21931363192E+02  0.93951952206E+02  0.20050475258E+03  0.17165435823E+03 0.  0.
        -24    2    3    3    0    0  0.31980436088E+02 -0.30808357367E+02  0.92418799862E+02  0.12998656347E+03  0.79895988248E+02 0.  0.
          6    2    1    2  501    0  0.37801892723E+02  0.21931363192E+02  0.30754766568E+02  0.18065892434E+03  0.17257411014E+03 0.  0.
         24    2    5    5    0    0  0.41536269452E+02  0.71304844147E+02 -0.24717930393E+02  0.10615391579E+03  0.62032534003E+02 0.  0.
          5    1    5    5  501    0 -0.37343767293E+01 -0.49373480955E+02  0.55472696961E+02  0.74505008552E+02  0.47000000000E+01 0. -1.
        -13    1    6    6    0    0  0.13463514157E+01  0.60304938491E+02 -0.22657528763E+02  0.64434942990E+02  0.00000000000E+00 0.  1.
         14    1    6    6    0    0  0.40189918036E+02  0.10999905656E+02 -0.20604016300E+01  0.41718972795E+02  0.00000000000E+00 0. -1.
         -5    1    3    3    0  503 -0.69782328811E+02  0.88769941745E+01  0.15331523445E+01  0.70518189114E+02  0.47000000000E+01 0.  1.
         11    1    4    4    0    0  0.55658500258E+02 -0.89540624742E+01  0.73469211344E+02  0.92605447471E+02  0.00000000000E+00 0. -1.
        -12    1    4    4    0    0 -0.23678064170E+02 -0.21854294893E+02  0.18949588518E+02  0.37381115996E+02  0.00000000000E+00 0.  1.
</event>
<event>
12    1  0.1050869E+000  0.2040373E+03  0.7818608E-02  0.1146594E+00
         21   -1    0    0  501  502  0.00000000000E+00  0.00000000000E+00  0.64128277753E+02  0.64128277753E+02  0.00000000000E+00 0.  1.
         21   -1    0    0  502  503 -0.00000000000E+00 -0.00000000000E+00 -0.81788960418E+03  0.81788960418E+03  0.00000000000E+00 0. -1.
         -6    2    1    2    0  503 -0.10724888034E+03 -0.10636934472E+02 -0.57838015309E+03  0.61296441372E+03  0.17200669838E+03 0.  0.
        -24    2    3    3    0    0 -0.13647443869E+03 -0.37704845465E+01 -0.54679062129E+03  0.56913212066E+03  0.79321486765E+02 0.  0.
          6    2    1    2  501    0  0.10724888034E+03  0.10636934472E+02 -0.17538117333E+03  0.26905346821E+03  0.17325052983E+03 0.  0.
         24    2    5    5    0    0  0.65180195390E+02  0.58615320061E+02 -0.56110349777E+02  0.13370458906E+03  0.83930519869E+02 0.  0.
          5    1    5    5  501    0  0.42068684945E+02 -0.47978385589E+02 -0.11927082356E+03  0.13534887915E+03  0.47000000000E+01 0. -1.
        -11    1    6    6    0    0  0.28658242076E+02  0.70063481802E+02 -0.58030909024E+02  0.95382245325E+02  0.00000000000E+00 0.  1.
         12    1    6    6    0    0  0.36521953315E+02 -0.11448161741E+02  0.19205592477E+01  0.38322343730E+02  0.00000000000E+00 0. -1.
         -5    1    3    3    0  503  0.29225558356E+02 -0.68664499257E+01 -0.31589531804E+02  0.43832293066E+02  0.47000000000E+01 0.  1.
         11    1    4    4    0    0 -0.86974743264E+02  0.11697029739E+02 -0.45778017545E+03  0.46611598933E+03  0.00000000000E+00 0. -1.
        -12    1    4    4    0    0 -0.49499695427E+02 -0.15467514286E+02 -0.89010445837E+02  0.10301613133E+03  0.00000000000E+00 0.  1.
</event>
<event>
12    1  0.1050869E+000  0.2419275E+03  0.7818608E-02  0.1118522E+00
         21   -1    0    0  503  502  0.00000000000E+00  0.00000000000E+00  0.78409021312E+03  0.78409021312E+03  0.00000000000E+00 0. -1.
         21   -1    0    0  501  503 -0.00000000000E+00 -0.00000000000E+00 -0.74634551684E+02  0.74634551684E+02  0.00000000000E+00 0. -1.
          6    2    1    2  501    0 -0.16527218357E+03 -0.42692848116E+02  0.35280064073E+03  0.42778170217E+03  0.17143896486E+03 0.  0.
         24    2    3    3    0    0 -0.16541405497E+03 -0.85304970091E+00  0.33526770072E+03  0.38217377694E+03  0.79308431824E+02 0.  0.
         -6    2    1    2    0  502  0.16527218357E+03  0.42692848116E+02  0.35665502070E+03  0.43094306263E+03  0.17138128687E+03 0.  0.
        -24    2    5    5    0    0  0.12401539428E+03  0.65083256963E+01  0.11987640618E+03  0.18784299142E+03  0.74111135090E+02 0.  0.
          5    1    3    3  501    0  0.14187139629E+00 -0.41839798415E+02  0.17532940009E+02  0.45607925235E+02  0.47000000000E+01 0. -1.
        -13    1    4    4    0    0 -0.14912198451E+03 -0.24954570420E+02  0.25094177015E+03  0.29297076450E+03  0.00000000000E+00 0.  1.
         14    1    4    4    0    0 -0.16292070462E+02  0.24101520719E+02  0.84325930571E+02  0.89203012436E+02  0.00000000000E+00 0. -1.
         -5    1    5    5    0  502  0.41256789290E+02  0.36184522419E+02  0.23677861453E+03  0.24310007121E+03  0.47000000000E+01 0.  1.
         13    1    6    6    0    0 -0.45788444972E+01  0.59935544362E+01 -0.46296416854E+01  0.88499770533E+01  0.00000000000E+00 0. -1.
        -14    1    6    6    0    0  0.12859423878E+03  0.51477126016E+00  0.12450604787E+03  0.17899301437E+03  0.00000000000E+00 0.  1.
</event>
<event>
12    1  0.1050869E+000  0.2785913E+03  0.7818608E-02  0.1096823E+00
         21   -1    0    0  503  502  0.00000000000E+00  0.00000000000E+00  0.29886040781E+03  0.29886040781E+03  0.00000000000E+00 0. -1.
         21   -1    0    0  501  503 -0.00000000000E+00 -0.00000000000E+00 -0.31096324689E+03  0.31096324689E+03  0.00000000000E+00 0. -1.
          6    2    1    2  501    0 -0.14372060921E+03  0.16519778988E+03  0.12068354156E+03  0.30120521267E+03  0.16797065113E+03 0.  0.
         24    2    3    3    0    0 -0.81449836664E+02  0.43569439699E+02  0.23304452345E+01  0.12037200197E+03  0.77146716810E+02 0.  0.
         -6    2    1    2    0  502  0.14372060921E+03 -0.16519778988E+03 -0.13278638064E+03  0.30861844202E+03  0.17224168073E+03 0.  0.
        -24    2    5    5    0    0  0.98595001554E+02 -0.11672444875E+03 -0.14427771030E+02  0.17290979921E+03  0.79649650449E+02 0.  0.
          5    1    3    3  501    0 -0.62270772550E+02  0.12162835018E+03  0.11835309632E+03  0.18083321070E+03  0.47000000000E+01 0. -1.
        -13    1    4    4    0    0 -0.15585106811E+02  0.24775664579E+02  0.34040555463E+02  0.44894192563E+02  0.00000000000E+00 0.  1.
         14    1    4    4    0    0 -0.65864729854E+02  0.18793775120E+02 -0.31710110229E+02  0.75477809406E+02  0.00000000000E+00 0. -1.
         -5    1    5    5    0  502  0.45125607660E+02 -0.48473341130E+02 -0.11835860961E+03  0.13570864282E+03  0.47000000000E+01 0.  1.
         13    1    6    6    0    0  0.35193649321E+02 -0.99957700669E+02 -0.16749332487E+02  0.10728781391E+03  0.00000000000E+00 0. -1.
        -14    1    6    6    0    0  0.63401352233E+02 -0.16766748086E+02  0.23215614573E+01  0.65621985294E+02  0.00000000000E+00 0.  1.
</event>
<event>
12    1  0.1050869E+000  0.2014776E+03  0.7818608E-02  0.1148539E+00
         21   -1    0    0  501  502  0.00000000000E+00  0.00000000000E+00  0.46279385494E+02  0.46279385494E+02  0.00000000000E+00 0. -1.
         21   -1    0    0  502  503 -0.00000000000E+00 -0.00000000000E+00 -0.21088196500E+04  0.21088196500E+04  0.00000000000E+00 0. -1.
         -6    2    1    2    0  503 -0.79156101730E+02 -0.69712628069E+02 -0.18552662866E+04  0.18661742226E+04  0.17166157436E+03 0.  0.
        -24    2    3    3    0    0 -0.61960397797E+02 -0.19280695430E+02 -0.16738220733E+04  0.16770098375E+04  0.80441444056E+02 0.  0.
          6    2    1    2  501    0  0.79156101730E+02  0.69712628069E+02 -0.20727397791E+03  0.28892481285E+03  0.17143367992E+03 0.  0.
         24    2    5    5    0    0 -0.85598392003E+01  0.27684365712E+02 -0.15966550597E+03  0.18053146559E+03  0.79112839158E+02 0.  0.
          5    1    5    5  501    0  0.87715940931E+02  0.42028262357E+02 -0.47608471936E+02  0.10839334726E+03  0.47000000000E+01 0. -1.
        -11    1    6    6    0    0 -0.31918798034E+02  0.12794164705E+02 -0.23677562232E+02  0.41750775702E+02  0.00000000000E+00 0.  1.
         12    1    6    6    0    0  0.23358958834E+02  0.14890201007E+02 -0.13598794374E+03  0.13878068989E+03  0.00000000000E+00 0. -1.
         -5    1    3    3    0  503 -0.17195703933E+02 -0.50431932640E+02 -0.18144421328E+03  0.18916438512E+03  0.47000000000E+01 0.  1.
         13    1    4    4    0    0 -0.72816952980E+02 -0.37142143828E+02 -0.14053799939E+04  0.14077552255E+04  0.00000000000E+00 0. -1.
        -14    1    4    4    0    0  0.10856555183E+02  0.17861448398E+02 -0.26844207936E+03  0.26925461204E+03  0.00000000000E+00 0.  1.
</event>
<event>
12    1  0.1050869E+000  0.2548507E+03  0.7818608E-02  0.1110419E+00
         21   -1    0    0  501  502  0.00000000000E+00  0.00000000000E+00  0.22572136305E+03  0.22572136305E+03  0.00000000000E+00 0. -1.
         21   -1    0    0  502  503 -0.00000000000E+00 -0.00000000000E+00 -0.34216138072E+03  0.34216138072E+03  0.00000000000E+00 0.  1.
         -6    2    1    2    0  503  0.63663548780E+02  0.17542723363E+03  0.56006555262E+02  0.26093215879E+03  0.17355430136E+03 0.  0.
        -24    2    3    3    0    0 -0.20921716981E+02  0.68195810324E+02  0.61886434059E+02  0.12414799194E+03  0.80587879951E+02 0.  0.
          6    2    1    2  501    0 -0.63663548780E+02 -0.17542723363E+03 -0.17244657293E+03  0.30695058497E+03  0.17220069500E+03 0.  0.
         24    2    5    5    0    0 -0.66593872673E+02 -0.10782592563E+03 -0.36088778189E+02  0.15465461711E+03  0.80959721875E+02 0.  0.
          5    1    5    5  501    0  0.29303238933E+01 -0.67601307998E+02 -0.13635779475E+03  0.15229596787E+03  0.47000000000E+01 0. -1.
        -13    1    6    6    0    0 -0.47462372076E+02 -0.88537948860E+01 -0.21302068528E+02  0.52771626567E+02  0.00000000000E+00 0.  1.
         14    1    6    6    0    0 -0.19131500597E+02 -0.98972130741E+02 -0.14786709661E+02  0.10188299054E+03  0.00000000000E+00 0. -1.
         -5    1    3    3    0  503  0.84585265761E+02  0.10723142330E+03 -0.58798787965E+01  0.13678416685E+03  0.47000000000E+01 0.  1.
         13    1    4    4    0    0  0.25540992855E+02  0.67651465267E+00  0.12327513047E+02  0.28368425512E+02  0.00000000000E+00 0. -1.
        -14    1    4    4    0    0 -0.46462709837E+02  0.67519295672E+02  0.49558921012E+02  0.95779566428E+02  0.00000000000E+00 0.  1.
</event>
<event>
12    1  0.1050869E+000  0.1827277E+03  0.7818608E-02  0.1165770E+00
         21   -1    0    0  503  502  0.00000000000E+00  0.00000000000E+00  0.84572607841E+02  0.84572607841E+02  0.00000000000E+00 0. -1.
         21   -1    0    0  501  503 -0.00000000000E+00 -0.00000000000E+00 -0.43894776838E+03  0.43894776838E+03  0.00000000000E+00 0. -1.
          6    2    1    2  501    0 -0.15301794267E+02 -0.56522001392E+02 -0.26393243711E+03  0.31963485081E+03  0.17052045316E+03 0.  0.
         24    2    3    3    0    0  0.29912864834E+02  0.28648235949E+01 -0.61144849188E+02  0.10349587655E+03  0.77908389686E+02 0.  0.
         -6    2    1    2    0  502  0.15301794267E+02  0.56522001392E+02 -0.90442723424E+02  0.20388552541E+03  0.17309113120E+03 0.  0.
        -24    2    5    5    0    0 -0.57131064105E+02  0.40148320209E+02 -0.26343449129E+02  0.10567440907E+03  0.74814820178E+02 0.  0.
          5    1    3    3  501    0 -0.45214659101E+02 -0.59386824987E+02 -0.20278758793E+03  0.21613897427E+03  0.47000000000E+01 0. -1.
        -13    1    4    4    0    0 -0.26441597798E+02  0.86073566826E+00 -0.25747077341E+02  0.36916269470E+02  0.00000000000E+00 0.  1.
         14    1    4    4    0    0  0.56354462631E+02  0.20040879267E+01 -0.35397771847E+02  0.66579607078E+02  0.00000000000E+00 0. -1.
         -5    1    5    5    0  502  0.72432858372E+02  0.16373681184E+02 -0.64099274295E+02  0.98211116339E+02  0.47000000000E+01 0.  1.
         11    1    6    6    0    0 -0.68445572699E+02  0.51553974347E+02 -0.26210917858E+02  0.89608152018E+02  0.00000000000E+00 0. -1.
        -12    1    6    6    0    0  0.11314508594E+02 -0.11405654138E+02 -0.13253127136E+00  0.16066257049E+02  0.00000000000E+00 0.  1.
</event>
<event>
12    1  0.1050869E+000  0.1842308E+03  0.7818608E-02  0.1163949E+00
         21   -1    0    0  501  502  0.00000000000E+00  0.00000000000E+00  0.25730419205E+03  0.25730419205E+03  0.00000000000E+00 0.  1.
         21   -1    0    0  502  503 -0.00000000000E+00 -0.00000000000E+00 -0.13158820099E+03  0.13158820099E+03  0.00000000000E+00 0.  1.
         -6    2    1    2    0  503 -0.23379013588E+02 -0.65819752860E+02  0.70725771063E+02  0.19662975695E+03  0.16965349535E+03 0.  0.
        -24    2    3    3    0    0 -0.41182394815E+01 -0.25069925494E+02  0.96875919555E+02  0.14430914805E+03  0.10389766774E+03 0.  0.
          6    2    1    2  501    0  0.23379013588E+02  0.65819752860E+02  0.54990219991E+02  0.19226263609E+03  0.17047632914E+03 0.  0.
         24    2    5    5    0    0  0.73170966714E+02  0.10807005850E+02  0.41869648532E+02  0.11676508430E+03  0.80063947561E+02 0.  0.
          5    1    5    5  501    0 -0.49791953125E+02  0.55012747010E+02  0.13120571459E+02  0.75497551782E+02  0.47000000000E+01 0. -1.
        -11    1    6    6    0    0  0.40066833904E+02 -0.29273486924E+02  0.41644276660E+02  0.64780660651E+02  0.00000000000E+00 0.  1.
         12    1    6    6    0    0  0.33104132809E+02  0.40080492774E+02  0.22537187185E+00  0.51984423653E+02  0.00000000000E+00 0. -1.
         -5    1    3    3    0  503 -0.19260774107E+02 -0.40749827366E+02 -0.26150148492E+02  0.52320608901E+02  0.47000000000E+01 0.  1.
         13    1    4    4    0    0 -0.33913359930E+02 -0.54834909108E+02  0.52674511999E+02  0.83256155646E+02  0.00000000000E+00 0. -1.
        -14    1    4    4    0    0  0.29795120448E+02  0.29764983614E+02  0.44201407556E+02  0.61052992408E+02  0.00000000000E+00 0.  1.
</event>
<event>
12    1  0.1050869E+000  0.1729608E+03  0.7818608E-02  0.1175267E+00
         21   -1    0    0  503  502  0.00000000000E+00  0.00000000000E+00  0.17131782147E+03  0.17131782147E+03  0.00000000000E+00 0. -1.
         21   -1    0    0  501  503 -0.00000000000E+00 -0.00000000000E+00 -0.29013353405E+03  0.29013353405E+03  0.00000000000E+00 0. -1.
          6    2    1    2  501    0 -0.19214331746E+01  0.94883695149E+01 -0.20634478395E+03  0.26924634360E+03  0.17268961351E+03 0.  0.
         24    2    3    3    0    0 -0.40347093798E+02  0.57544195095E+02 -0.16087642444E+03  0.19259547613E+03  0.79199565140E+02 0.  0.
         -6    2    1    2    0  502  0.19214331746E+01 -0.94883695149E+01  0.87529071378E+02  0.19220501193E+03  0.17084410207E+03 0.  0.
        -24    2    5    5    0    0  0.27230186684E+01  0.68799969394E+01  0.12604518984E+03  0.15008438348E+03  0.81136817131E+02 0.  0.
          5    1    3    3  501    0  0.38425660623E+02 -0.48055825580E+02 -0.45468359510E+02  0.76650867464E+02  0.47000000000E+01 0. -1.
        -13    1    4    4    0    0  0.11323955793E+02  0.15414967477E+02 -0.74715796111E+00  0.19141876662E+02  0.00000000000E+00 0.  1.
         14    1    4    4    0    0 -0.51671049591E+02  0.42129227618E+02 -0.16012926648E+03  0.17345359947E+03  0.00000000000E+00 0. -1.
         -5    1    5    5    0  502 -0.80158549379E+00 -0.16368366454E+02 -0.38516118460E+02  0.42120628449E+02  0.47000000000E+01 0.  1.
         11    1    6    6    0    0 -0.24031308115E+02  0.33623494560E+02  0.83403101967E+02  0.93081257909E+02  0.00000000000E+00 0. -1.
        -12    1    6    6    0    0  0.26754326784E+02 -0.26743497621E+02  0.42642087870E+02  0.57003125569E+02  0.00000000000E+00 0.  1.
</event>
<event>
12    1  0.1050869E+000  0.3451369E+03  0.7818608E-02  0.1064727E+00
         21   -1    0    0  503  502  0.00000000000E+00  0.00000000000E+00  0.93115786910E+03  0.93115786910E+03  0.00000000000E+00 0.  1.
         21   -1    0    0  501  503 -0.00000000000E+00 -0.00000000000E+00 -0.29168800907E+03  0.29168800907E+03  0.00000000000E+00 0.  1.
          6    2    1    2  501    0  0.29358802934E+03  0.55117904050E+02 -0.13906943534E+03  0.37123392196E+03  0.17100410128E+03 0.  0.
         24    2    3    3    0    0  0.20291432162E+03 -0.20055343250E+02 -0.50504498363E+02  0.22379384450E+03  0.77178635453E+02 0.  0.
         -6    2    1    2    0  502 -0.29358802934E+03 -0.55117904050E+02  0.77853929536E+03  0.85161195621E+03  0.17288023375E+03 0.  0.
        -24    2    5    5    0    0 -0.48907187366E+02 -0.20303083739E+02  0.18873667748E+03  0.21210432983E+03  0.81009784104E+02 0.  0.
          5    1    3    3  501    0  0.90673707723E+02  0.75173247300E+02 -0.88564936973E+02  0.14744007747E+03  0.47000000000E+01 0. -1.
        -13    1    4    4    0    0  0.67769441492E+02 -0.10893382509E+02  0.19449488793E+02  0.71341752129E+02  0.00000000000E+00 0.  1.
         14    1    4    4    0    0  0.13514488012E+03 -0.91619607412E+01 -0.69953987156E+02  0.15245209237E+03  0.00000000000E+00 0. -1.
         -5    1    5    5    0  502 -0.24468084197E+03 -0.34814820311E+02  0.58980261788E+03  0.63950762638E+03  0.47000000000E+01 0.  1.
         13    1    6    6    0    0 -0.69855676400E+00  0.27456303154E+02  0.38918093356E+02  0.47633544430E+02  0.00000000000E+00 0. -1.
        -14    1    6    6    0    0 -0.48208630602E+02 -0.47759386893E+02  0.14981858413E+03  0.16447078540E+03  0.00000000000E+00 0.  1.
</event>
<event>
12    1  0.1050869E+000  0.1847941E+03  0.7818608E-02  0.1163287E+00
         21   -1    0    0  501  502  0.00000000000E+00  0.00000000000E+00  0.14094845422E+03  0.14094845422E+03  0.00000000000E+00 0. -1.
         21   -1    0    0  502  503 -0.00000000000E+00 -0.00000000000E+00 -0.25833434118E+03  0.25833434118E+03  0.00000000000E+00 0.  1.
         -6    2    1    2    0  503  0.26572595894E+02  0.61685354545E+02 -0.10882177551E+03  0.21429039479E+03  0.17195059946E+03 0.  0.
        -24    2    3    3    0    0  0.54728188623E+02  0.64636018148E+02 -0.13258964395E+03  0.17702854583E+03  0.81154808144E+02 0.  0.
          6    2    1    2  501    0 -0.26572595894E+02 -0.61685354545E+02 -0.85641114552E+01  0.18499240061E+03  0.17215591323E+03 0.  0.
         24    2    5    5    0    0 -0.70647036841E+00 -0.90149857904E+02 -0.48326478279E+02  0.12947285255E+03  0.79374272056E+02 0.  0.
          5    1    5    5  501    0 -0.25866125526E+02  0.28464503359E+02  0.39762366823E+02  0.55519548058E+02  0.47000000000E+01 0. -1.
        -13    1    6    6    0    0 -0.33121466379E+02 -0.60334214298E+02 -0.50516106544E+02  0.85376378293E+02  0.00000000000E+00 0.  1.
         14    1    6    6    0    0  0.32414996011E+02 -0.29815643606E+02  0.21896282657E+01  0.44096474258E+02  0.00000000000E+00 0. -1.
         -5    1    3    3    0  503 -0.28155592728E+02 -0.29506636032E+01  0.23767868438E+02  0.37261848956E+02  0.47000000000E+01 0.  1.
         11    1    4    4    0    0  0.13571335842E+02 -0.19336000734E+02 -0.23134196496E+02  0.33064378543E+02  0.00000000000E+00 0. -1.
        -12    1    4    4    0    0  0.41156852781E+02  0.83972018882E+02 -0.10945544745E+03  0.14396416729E+03  0.00000000000E+00 0.  1.
</event>
<event>
12    1  0.1050869E+000  0.2495861E+03  0.7818608E-02  0.1113796E+00
         21   -1    0    0  501  502  0.00000000000E+00  0.00000000000E+00  0.29292651888E+04  0.29292651888E+04  0.00000000000E+00 0.  1.
         21   -1    0    0  502  503 -0.00000000000E+00 -0.00000000000E+00 -0.29126978638E+02  0.29126978638E+02  0.00000000000E+00 0. -1.
         -6    2    1    2    0  503 -0.62271465000E+02 -0.16767139648E+03  0.22275733255E+04  0.22415120268E+04  0.17407416041E+03 0.  0.
        -24    2    3    3    0    0 -0.37313673764E+02 -0.12438122363E+03  0.20811508213E+04  0.20867264650E+04  0.79847352518E+02 0.  0.
          6    2    1    2  501    0  0.62271465000E+02  0.16767139648E+03  0.67256488462E+03  0.71688014058E+03  0.17199470744E+03 0.  0.
         24    2    5    5    0    0  0.99827838308E+02  0.14394664432E+03  0.49994294628E+03  0.53857206831E+03  0.97111737273E+02 0.  0.
          5    1    5    5  501    0 -0.37556373307E+02  0.23724752154E+02  0.17262193834E+03  0.17830807227E+03  0.47000000000E+01 0. -1.
        -11    1    6    6    0    0  0.54088838501E+02  0.13065893380E+02  0.20905200527E+03  0.21633090608E+03  0.00000000000E+00 0.  1.
         12    1    6    6    0    0  0.45738999807E+02  0.13088075094E+03  0.29089094101E+03  0.32224116223E+03  0.00000000000E+00 0. -1.
         -5    1    3    3    0  503 -0.24957791236E+02 -0.43290172847E+02  0.14642250417E+03  0.15478556178E+03  0.47000000000E+01 0.  1.
         13    1    4    4    0    0 -0.48309391343E+02 -0.37191980009E+02  0.10829098362E+04  0.10846247065E+04  0.00000000000E+00 0. -1.
        -14    1    4    4    0    0  0.10995717578E+02 -0.87189243621E+02  0.99824098515E+03  0.10021017585E+04  0.00000000000E+00 0.  1.
</event>
<event>
12    1  0.1050869E+000  0.2434707E+03  0.7818608E-02  0.1117506E+00
         21   -1    0    0  501  502  0.00000000000E+00  0.00000000000E+00  0.36900292560E+03  0.36900292560E+03  0.00000000000E+00 0.  1.
         21   -1    0    0  502  503 -0.00000000000E+00 -0.00000000000E+00 -0.20382050580E+03  0.20382050580E+03  0.00000000000E+00 0.  1.
         -6    2    1    2    0  503 -0.16377549126E+03 -0.56737574544E+02 -0.49250310602E+02  0.24840206318E+03  0.17098663104E+03 0.  0.
        -24    2    3    3    0    0 -0.11002057272E+03 -0.93115710695E+02 -0.70154785626E+02  0.18004968843E+03  0.81982524713E+02 0.  0.
          6    2    1    2  501    0  0.16377549126E+03  0.56737574544E+02  0.21443273039E+03  0.32442136822E+03  0.17095690799E+03 0.  0.
         24    2    5    5    0    0  0.16519682971E+03  0.32365110963E+02  0.22857697482E+03  0.29581740286E+03  0.83204624053E+02 0.  0.
          5    1    5    5  501    0 -0.14213384474E+01  0.24372463581E+02 -0.14144244425E+02  0.28603965360E+02  0.47000000000E+01 0. -1.
        -13    1    6    6    0    0  0.40256898483E+02  0.26682530044E+02  0.12300832283E+03  0.13215000103E+03  0.00000000000E+00 0.  1.
         14    1    6    6    0    0  0.12493993123E+03  0.56825809194E+01  0.10556865199E+03  0.16366740183E+03  0.00000000000E+00 0. -1.
         -5    1    3    3    0  503 -0.53754918542E+02  0.36378136151E+02  0.20904475024E+02  0.68352374745E+02  0.47000000000E+01 0.  1.
         13    1    4    4    0    0 -0.93045413742E+02 -0.37538345691E+02 -0.17936068012E+02  0.10192290690E+03  0.00000000000E+00 0. -1.
        -14    1    4    4    0    0 -0.16975158980E+02 -0.55577365004E+02 -0.52218717614E+02  0.78126781531E+02  0.00000000000E+00 0.  1.
</event>
<event>
12    1  0.1050869E+000  0.1831538E+03  0.7818608E-02  0.1165147E+00
         21   -1    0    0  501  502  0.00000000000E+00  0.00000000000E+00  0.10483894097E+04  0.10483894097E+04  0.00000000000E+00 0.  1.
         21   -1    0    0  502  503 -0.00000000000E+00 -0.00000000000E+00 -0.45623259068E+02  0.45623259068E+02  0.00000000000E+00 0.  1.
         -6    2    1    2    0  503  0.10609501828E+02 -0.57544456978E+02  0.20099954010E+03  0.27193036504E+03  0.17355512741E+03 0.  0.
        -24    2    3    3    0    0  0.65584941864E+02 -0.59045355949E+02  0.98545975409E+02  0.15555435968E+03  0.81841987319E+02 0.  0.
          6    2    1    2  501    0 -0.10609501828E+02  0.57544456978E+02  0.80176661049E+03  0.82208230369E+03  0.17194676583E+03 0.  0.
         24    2    5    5    0    0 -0.29994454391E+02 -0.62355392583E+01  0.21182153032E+03  0.22836439767E+03  0.79645390154E+02 0.  0.
          5    1    5    5  501    0  0.19384952563E+02  0.63779996236E+02  0.58994508017E+03  0.59371790602E+03  0.47000000000E+01 0. -1.
        -11    1    6    6    0    0 -0.29163763255E+02  0.27761298362E+02  0.56595749358E+02  0.69457135121E+02  0.00000000000E+00 0.  1.
         12    1    6    6    0    0 -0.83069113646E+00 -0.33996837620E+02  0.15522578096E+03  0.15890726255E+03  0.00000000000E+00 0. -1.
         -5    1    3    3    0  503 -0.54975440036E+02  0.15008989714E+01  0.10245356469E+03  0.11637600536E+03  0.47000000000E+01 0.  1.
         13    1    4    4    0    0  0.64325100498E+01 -0.60588709806E+02  0.44926952078E+02  0.75702047295E+02  0.00000000000E+00 0. -1.
        -14    1    4    4    0    0  0.59152431815E+02  0.15433538570E+01  0.53619023331E+02  0.79852312388E+02  0.00000000000E+00 0.  1.
</event>
<event>
12    1  0.1050869E+000  0.1913102E+03  0.7818608E-02  0.1157459E+00
         21   -1    0    0  503  502  0.00000000000E+00  0.00000000000E+00  0.68204861414E+03  0.68204861414E+03  0.00000000000E+00 0. -1.
         21   -1    0    0  501  503 -0.00000000000E+00 -0.00000000000E+00 -0.66760764080E+02  0.66760764080E+02  0.00000000000E+00 0. -1.
          6    2    1    2  501    0 -0.61223657360E+02 -0.55705206481E+02  0.47436220015E+03  0.51119700450E+03  0.17161431826E+03 0.  0.
         24    2    3    3    0    0 -0.84285157635E+02 -0.18433004488E+02  0.19104224107E+03  0.22446831907E+03  0.80281535498E+02 0.  0.
         -6    2    1    2    0  502  0.61223657360E+02  0.55705206481E+02  0.14092564991E+03  0.23761237372E+03  0.17247665086E+03 0.  0.
        -24    2    5    5    0    0  0.40384204774E+02  0.10434349705E+03  0.11200715870E+03  0.17712820035E+03  0.79437688713E+02 0.  0.
          5    1    3    3  501    0  0.23061500275E+02 -0.37272201993E+02  0.28331995908E+03  0.28672868543E+03  0.47000000000E+01 0. -1.
        -13    1    4    4    0    0 -0.24810150855E+02  0.38588895298E+01  0.14205357536E+03  0.14425551250E+03  0.00000000000E+00 0.  1.
         14    1    4    4    0    0 -0.59475006780E+02 -0.22291894018E+02  0.48988665713E+02  0.80212806576E+02  0.00000000000E+00 0. -1.
         -5    1    5    5    0  502  0.20839452586E+02 -0.48638290571E+02  0.28918491214E+02  0.60484173366E+02  0.47000000000E+01 0.  1.
         11    1    6    6    0    0  0.18904686072E+02 -0.48496961315E+01  0.40198149451E+02  0.44685544948E+02  0.00000000000E+00 0. -1.
        -12    1    6    6    0    0  0.21479518702E+02  0.10919319318E+03  0.71809009247E+02  0.13244265540E+03  0.00000000000E+00 0.  1.
</event>
<event>
12    1  0.1050869E+000  0.3362312E+03  0.7818608E-02  0.1068417E+00
         21   -1    0    0  501  502  0.00000000000E+00  0.00000000000E+00  0.33437875632E+03  0.33437875632E+03  0.00000000000E+00 0.  1.
         21   -1    0    0  502  503 -0.00000000000E+00 -0.00000000000E+00 -0.33833437734E+03  0.33833437734E+03  0.00000000000E+00 0.  1.
         -6    2    1    2    0  503  0.11548939990E+03  0.26450502095E+03  0.78080516188E+01  0.33632181244E+03  0.17248387824E+03 0.  0.
        -24    2    3    3    0    0 -0.47202564373E+01  0.52462466825E+02 -0.44185318950E+02  0.87047251321E+02  0.53388110152E+02 0.  0.
          6    2    1    2  501    0 -0.11548939990E+03 -0.26450502095E+03 -0.11763672636E+02  0.33639132122E+03  0.17239498079E+03 0.  0.
         24    2    5    5    0    0 -0.64127068286E+02 -0.75515609835E+02  0.41362465220E+02  0.13341456603E+03  0.79206721213E+02 0.  0.
          5    1    5    5  501    0 -0.51362331617E+02 -0.18898941112E+03 -0.53126137855E+02  0.20297675519E+03  0.47000000000E+01 0. -1.
        -11    1    6    6    0    0 -0.64677034454E+02 -0.82437792489E+02  0.14633282021E+02  0.10579811605E+03  0.00000000000E+00 0.  1.
         12    1    6    6    0    0  0.54996616812E+00  0.69221826536E+01  0.26729183199E+02  0.27616449988E+02  0.00000000000E+00 0. -1.
         -5    1    3    3    0  503  0.12020965634E+03  0.21204255413E+03  0.51993370569E+02  0.24927456112E+03  0.47000000000E+01 0.  1.
         11    1    4    4    0    0 -0.18053712860E+02  0.33393218491E+02 -0.97888113365E+00  0.37973698760E+02  0.00000000000E+00 0. -1.
        -12    1    4    4    0    0  0.13333456423E+02  0.19069248334E+02 -0.43206437816E+02  0.49073552561E+02  0.00000000000E+00 0.  1.
</event>
<event>
12    1  0.1050869E+000  0.2209619E+03  0.7818608E-02  0.1133175E+00
         21   -1    0    0  503  502  0.00000000000E+00  0.00000000000E+00  0.16865210696E+02  0.16865210696E+02  0.00000000000E+00 0. -1.
         21   -1    0    0  501  503 -0.00000000000E+00 -0.00000000000E+00 -0.31743222945E+04  0.31743222945E+04  0.00000000000E+00 0. -1.
          6    2    1    2  501    0  0.13771392597E+03 -0.17777600377E+02 -0.20523807255E+04  0.20642367943E+04  0.17183053360E+03 0.  0.
         24    2    3    3    0    0  0.53174920178E+02  0.28935957385E+02 -0.14709844885E+04  0.14748534943E+04  0.87935217557E+02 0.  0.
         -6    2    1    2    0  502 -0.13771392597E+03  0.17777600377E+02 -0.11050763583E+04  0.11269507109E+04  0.17188071010E+03 0.  0.
        -24    2    5    5    0    0 -0.87264083871E+02  0.76937446266E+02 -0.63793033941E+03  0.65335534885E+03  0.79898078555E+02 0.  0.
          5    1    3    3  501    0  0.84539005795E+02 -0.46713557762E+02 -0.58139623694E+03  0.58938329999E+03  0.47000000000E+01 0. -1.
        -13    1    4    4    0    0  0.67498996960E+02  0.31098890101E+02 -0.73939557273E+03  0.74312116679E+03  0.00000000000E+00 0.  1.
         14    1    4    4    0    0 -0.14324076782E+02 -0.21629327156E+01 -0.73158891580E+03  0.73173232755E+03  0.00000000000E+00 0. -1.
         -5    1    5    5    0  502 -0.50449842103E+02 -0.59159845889E+02 -0.46714601892E+03  0.47359536202E+03  0.47000000000E+01 0.  1.
         13    1    6    6    0    0 -0.33554431704E+02  0.80454014410E+02 -0.38032333557E+03  0.39018532507E+03  0.00000000000E+00 0. -1.
        -14    1    6    6    0    0 -0.53709652167E+02 -0.35165681435E+01 -0.25760700384E+03  0.26317002378E+03  0.00000000000E+00 0.  1.
</event>
<event>
12    1  0.1050869E+000  0.1995342E+03  0.7818608E-02  0.1150650E+00
         21   -1    0    0  503  502  0.00000000000E+00  0.00000000000E+00  0.47227094528E+03  0.47227094528E+03  0.00000000000E+00 0.  1.
         21   -1    0    0  501  503 -0.00000000000E+00 -0.00000000000E+00 -0.11046812854E+03  0.11046812854E+03  0.00000000000E+00 0.  1.
          6    2    1    2  501    0 -0.94058403225E+02 -0.39048825779E+02  0.32628784907E+03  0.38246261220E+03  0.17158699039E+03 0.  0.
         24    2    3    3    0    0  0.11896943376E+02 -0.12789912469E+02  0.19627114715E+03  0.21263181765E+03  0.79904990766E+02 0.  0.
         -6    2    1    2    0  502  0.94058403225E+02  0.39048825779E+02  0.35514967664E+02  0.20027646162E+03  0.16875293816E+03 0.  0.
        -24    2    5    5    0    0 -0.16168633576E+02  0.16130690305E+02  0.44946811022E+01  0.83402218287E+02  0.80088101335E+02 0.  0.
          5    1    3    3  501    0 -0.10595534660E+03 -0.26258913310E+02  0.13001670192E+03  0.16983079456E+03  0.47000000000E+01 0. -1.
        -13    1    4    4    0    0  0.53748478262E+01  0.18331352131E+02  0.64450669374E+01  0.20161010588E+02  0.00000000000E+00 0.  1.
         14    1    4    4    0    0  0.65220955495E+01 -0.31121264600E+02  0.18982608021E+03  0.19247080706E+03  0.00000000000E+00 0. -1.
         -5    1    5    5    0  502  0.11022703680E+03  0.22918135474E+02  0.31020286562E+02  0.11687424333E+03  0.47000000000E+01 0.  1.
         13    1    6    6    0    0 -0.35256950586E+02 -0.13231006023E+02  0.22660505865E+02  0.43950092276E+02  0.00000000000E+00 0. -1.
        -14    1    6    6    0    0  0.19088317010E+02  0.29361696327E+02 -0.18165824763E+02  0.39452126011E+02  0.00000000000E+00 0.  1.
</event>
<event>
12    1  0.1050869E+000  0.2129808E+03  0.7818608E-02  0.1139275E+00
         21   -1    0    0  501  502  0.00000000000E+00  0.00000000000E+00  0.38793246688E+03  0.38793246688E+03  0.00000000000E+00 0.  1.
         21   -1    0    0  502  503 -0.00000000000E+00 -0.00000000000E+00 -0.40117244268E+03  0.40117244268E+03  0.00000000000E+00 0.  1.
         -6    2    1    2    0  503  0.11272556724E+03 -0.51427270501E+02 -0.33880965852E+03  0.40005934772E+03  0.17292680338E+03 0.  0.
        -24    2    3    3    0    0  0.13248810733E+03 -0.77998319505E+02 -0.24162987442E+03  0.29728493906E+03  0.79727676212E+02 0.  0.
          6    2    1    2  501    0 -0.11272556724E+03  0.51427270501E+02  0.32556968272E+03  0.38904556183E+03  0.17323109771E+03 0.  0.
         24    2    5    5    0    0 -0.10447661346E+02  0.38591552117E+02  0.50006112396E+02  0.94795843071E+02  0.69908361904E+02 0.  0.
          5    1    5    5  501    0 -0.10227790590E+03  0.12835718384E+02  0.27556357033E+03  0.29424971876E+03  0.47000000000E+01 0. -1.
        -11    1    6    6    0    0 -0.74064897254E+01 -0.18895647497E+02  0.30846863429E+01  0.20528440618E+02  0.00000000000E+00 0.  1.
         12    1    6    6    0    0 -0.30411716207E+01  0.57487199614E+02  0.46921426053E+02  0.74267402453E+02  0.00000000000E+00 0. -1.
         -5    1    3    3    0  503 -0.19762540084E+02  0.26571049004E+02 -0.97179784107E+02  0.10277440866E+03  0.47000000000E+01 0.  1.
         11    1    4    4    0    0  0.23065376745E+02 -0.25413679557E+01 -0.10160063474E+03  0.10421688508E+03  0.00000000000E+00 0. -1.
        -12    1    4    4    0    0  0.10942273058E+03 -0.75456951549E+02 -0.14002923967E+03  0.19306805398E+03  0.00000000000E+00 0.  1.
</event>
<event>
12    1  0.1050869E+000  0.8606531E+03  0.7818608E-02  0.9476242E-01
         21   -1    0    0  501  502  0.00000000000E+00  0.00000000000E+00  0.28416910745E+04  0.28416910745E+04  0.00000000000E+00 0.  1.
         21   -1    0    0  502  503 -0.00000000000E+00 -0.00000000000E+00 -0.27079214469E+03  0.27079214469E+03  0.00000000000E+00 0.  1.
         -6    2    1    2    0  503 -0.83704166085E+03 -0.10204670256E+03  0.98340655174E+03  0.13068329175E+04  0.17225433746E+03 0.  0.
        -24    2    3    3    0    0 -0.62339668288E+03 -0.38478125841E+02  0.79818568886E+03  0.10169812337E+04  0.83943108174E+02 0.  0.
          6    2    1    2  501    0  0.83704166085E+03  0.10204670256E+03  0.15874923781E+04  0.18056503017E+04  0.17084697851E+03 0.  0.
         24    2    5    5    0    0  0.73911465689E+03  0.57251554751E+02  0.14551378677E+04  0.16349572738E+04  0.78043939097E+02 0.  0.
          5    1    5    5  501    0  0.97927003954E+02  0.44795147808E+02  0.13235451036E+03  0.17069302793E+03  0.47000000000E+01 0. -1.
        -13    1    6    6    0    0  0.14345477146E+03 -0.17833843979E+01  0.34697110709E+03  0.37546158401E+03  0.00000000000E+00 0.  1.
         14    1    6    6    0    0  0.59565988543E+03  0.59034939149E+02  0.11081667606E+04  0.12594956898E+04  0.00000000000E+00 0. -1.
         -5    1    3    3    0  503 -0.21364497797E+03 -0.63568576718E+02  0.18522086288E+03  0.28985168380E+03  0.47000000000E+01 0.  1.
         13    1    4    4    0    0 -0.56322092346E+03 -0.49892807993E+02  0.68437889003E+03  0.88773958233E+03  0.00000000000E+00 0. -1.
        -14    1    4    4    0    0 -0.60175759417E+02  0.11414682152E+02  0.11380679883E+03  0.12924165137E+03  0.00000000000E+00 0.  1.
</event>
<event>
12    1  0.1050869E+000  0.2019735E+03  0.7818608E-02  0.1148267E+00
         21   -1    0    0  503  502  0.00000000000E+00  0.00000000000E+00  0.18663857165E+03  0.18663857165E+03  0.00000000000E+00 0. -1.
         21   -1    0    0  501  503 -0.00000000000E+00 -0.00000000000E+00 -0.29585067485E+03  0.29585067485E+03  0.00000000000E+00 0. -1.
          6    2    1    2  501    0  0.17253655331E+02 -0.10291659790E+03  0.69355789464E+02  0.21354978557E+03  0.17292706739E+03 0.  0.
         24    2    3    3    0    0  0.14164214846E+02 -0.50543754322E+02  0.11111204564E+03  0.14633271692E+03  0.79448607750E+02 0.  0.
         -6    2    1    2    0  502 -0.17253655331E+02  0.10291659790E+03 -0.17856789267E+03  0.26893946093E+03  0.17190819239E+03 0.  0.
        -24    2    5    5    0    0 -0.49369339830E+02  0.80852197366E+01 -0.11893571023E+03  0.15230972777E+03  0.80931128201E+02 0.  0.
          5    1    3    3  501    0  0.30894404856E+01 -0.52372843579E+02 -0.41756256174E+02  0.67217068641E+02  0.47000000000E+01 0. -1.
        -11    1    4    4    0    0 -0.28998283728E+02 -0.38235750915E+02  0.73473856976E+02  0.87756941413E+02  0.00000000000E+00 0.  1.
         12    1    4    4    0    0  0.43162498574E+02 -0.12308003407E+02  0.37638188662E+02  0.58575775511E+02  0.00000000000E+00 0. -1.
         -5    1    5    5    0  502  0.32115684498E+02  0.94831378164E+02 -0.59632182436E+02  0.11662973316E+03  0.47000000000E+01 0.  1.
         11    1    6    6    0    0  0.40118090256E+01 -0.33353637484E+01 -0.90701131851E+02  0.90851057133E+02  0.00000000000E+00 0. -1.
        -12    1    6    6    0    0 -0.53381148855E+02  0.11420583485E+02 -0.28234578379E+02  0.61458670637E+02  0.00000000000E+00 0.  1.
</event>
<event>
12    1  0.1050869E+000  0.1791297E+03  0.7818608E-02  0.1170757E+00
         21   -1    0    0  501  502  0.00000000000E+00  0.00000000000E+00  0.20191131632E+03  0.20191131632E+03  0.00000000000E+00 0. -1.
         21   -1    0    0  502  503 -0.00000000000E+00 -0.00000000000E+00 -0.15397820119E+03  0.15397820119E+03  0.00000000000E+00 0. -1.
         -6    2    1    2    0  503  0.14096019810E+02  0.39486414725E+01  0.20542696792E+01  0.17914145709E+03  0.17853053543E+03 0.  0.
        -24    2    3    3    0    0  0.78646287250E+02 -0.87593566194E+01  0.79836585458E+01  0.11291851624E+03  0.80155397073E+02 0.  0.
          6    2    1    2  501    0 -0.14096019810E+02 -0.39486414725E+01  0.45878845451E+02  0.17674806042E+03  0.17006092690E+03 0.  0.
         24    2    5    5    0    0  0.48476120194E+02 -0.30434345692E+02  0.47318849434E+01  0.97174650335E+02  0.78385829752E+02 0.  0.
          5    1    5    5  501    0 -0.62572140005E+02  0.26485704220E+02  0.41146960508E+02  0.79573410080E+02  0.47000000000E+01 0. -1.
        -13    1    6    6    0    0  0.33964257706E+02  0.14264326744E+02  0.26503167371E+02  0.45381270362E+02  0.00000000000E+00 0.  1.
         14    1    6    6    0    0  0.14511862488E+02 -0.44698672437E+02 -0.21771282428E+02  0.51793379973E+02  0.00000000000E+00 0. -1.
         -5    1    3    3    0  503 -0.64550267439E+02  0.12707998092E+02 -0.59293888665E+01  0.66222940846E+02  0.47000000000E+01 0.  1.
         13    1    4    4    0    0  0.26878781437E+02 -0.40135156442E+02  0.18025018311E+02  0.51557743931E+02  0.00000000000E+00 0. -1.
        -14    1    4    4    0    0  0.51767505813E+02  0.31375799823E+02 -0.10041359765E+02  0.61360772311E+02  0.00000000000E+00 0.  1.
</event>
<event>
12    1  0.1050869E+000  0.1978684E+03  0.7818608E-02  0.1151585E+00
         21   -1    0    0  501  502  0.00000000000E+00  0.00000000000E+00  0.19532865782E+03  0.19532865782E+03  0.00000000000E+00 0. -1.
         21   -1    0    0  502  503 -0.00000000000E+00 -0.00000000000E+00 -0.21005304759E+03  0.21005304759E+03  0.00000000000E+00 0. -1.
         -6    2    1    2    0  503 -0.35264613783E+02 -0.91476235109E+02 -0.51089655587E+02  0.20419937983E+03  0.17168500005E+03 0.  0.
        -24    2    3    3    0    0  0.41721802503E+02 -0.76012448698E+02 -0.47355959399E+02  0.12544617374E+03  0.77301710550E+02 0.  0.
          6    2    1    2  501    0  0.35264613783E+02  0.91476235109E+02  0.36365265819E+02  0.20118232558E+03  0.17187321197E+03 0.  0.
         24    2    5    5    0    0  0.35427151596E+02  0.54700278487E+02  0.89605395618E+02  0.13630475762E+03  0.79389271870E+02 0.  0.
          5    1    5    5  501    0 -0.16253781294E+00  0.36775956622E+02 -0.53240129799E+02  0.64877567965E+02  0.47000000000E+01 0. -1.
        -11    1    6    6    0    0  0.49172049247E+02  0.45078208779E+02  0.27810841867E+02  0.72272942788E+02  0.00000000000E+00 0.  1.
         12    1    6    6    0    0 -0.13744897651E+02  0.96220697079E+01  0.61794553751E+02  0.64031814828E+02  0.00000000000E+00 0. -1.
         -5    1    3    3    0  503 -0.76986416286E+02 -0.15463786411E+02 -0.37336961884E+01  0.78753206093E+02  0.47000000000E+01 0.  1.
         13    1    4    4    0    0  0.23904870506E+02 -0.53465675100E+02 -0.68237139720E+02  0.89924015063E+02  0.00000000000E+00 0. -1.
        -14    1    4    4    0    0  0.17816931997E+02 -0.22546773598E+02  0.20881180321E+02  0.35522158676E+02  0.00000000000E+00 0.  1.
</event>
<event>
12    1  0.1050869E+000  0.2152914E+03  0.7818608E-02  0.1137996E+00
         21   -1    0    0  503  502  0.00000000000E+00  0.00000000000E+00  0.15570836134E+04  0.15570836134E+04  0.00000000000E+00 0. -1.
         21   -1    0    0  501  503 -0.00000000000E+00 -0.00000000000E+00 -0.30465398727E+02  0.30465398727E+02  0.00000000000E+00 0. -1.
          6    2    1    2  501    0 -0.12747678869E+03  0.17537186143E+02  0.61791429544E+03  0.65434581856E+03  0.17260500919E+03 0.  0.
         24    2    3    3    0    0 -0.13097442871E+03  0.41071978771E+02  0.34703600791E+03  0.38238395247E+03  0.83320393080E+02 0.  0.
         -6    2    1    2    0  502  0.12747678869E+03 -0.17537186143E+02  0.90870391928E+03  0.93320319362E+03  0.16901923889E+03 0.  0.
        -24    2    5    5    0    0  0.12123271539E+03  0.27471141094E+02  0.47034230771E+03  0.49246775090E+03  0.76488982084E+02 0.  0.
          5    1    3    3  501    0  0.34976400209E+01 -0.23534792627E+02  0.27087828753E+03  0.27196186609E+03  0.47000000000E+01 0. -1.
        -13    1    4    4    0    0 -0.65167333181E+02  0.56959768465E+02  0.14033337371E+03  0.16487768895E+03  0.00000000000E+00 0.  1.
         14    1    4    4    0    0 -0.65807095532E+02 -0.15887789694E+02  0.20670263420E+03  0.21750626352E+03  0.00000000000E+00 0. -1.
         -5    1    5    5    0  502  0.62440733068E+01 -0.45008327237E+02  0.43836161157E+03  0.44073544272E+03  0.47000000000E+01 0.  1.
         11    1    6    6    0    0  0.84395721460E+01 -0.15869862453E+02  0.23558416185E+02  0.29632379004E+02  0.00000000000E+00 0. -1.
        -12    1    6    6    0    0  0.11279314324E+03  0.43341003547E+02  0.44678389152E+03  0.46283537189E+03  0.00000000000E+00 0.  1.
</event>
<event>
12    1  0.1050869E+000  0.2999044E+03  0.7818608E-02  0.1086120E+00
         21   -1    0    0  503  502  0.00000000000E+00  0.00000000000E+00  0.14458698400E+03  0.14458698400E+03  0.00000000000E+00 0. -1.
         21   -1    0    0  501  503 -0.00000000000E+00 -0.00000000000E+00 -0.11615701211E+04  0.11615701211E+04  0.00000000000E+00 0. -1.
          6    2    1    2  501    0  0.10047293764E+03 -0.22517347678E+03 -0.60818096958E+02  0.30600895640E+03  0.17071829029E+03 0.  0.
         24    2    3    3    0    0 -0.12255561514E+02 -0.57938159165E+02 -0.17029573705E+02  0.99575212198E+02  0.78218843179E+02 0.  0.
         -6    2    1    2    0  502 -0.10047293764E+03  0.22517347678E+03 -0.95616504019E+03  0.10001481487E+04  0.15889250924E+03 0.  0.
        -24    2    5    5    0    0 -0.92201902970E+02  0.10746191834E+03 -0.68952040974E+03  0.70852189828E+03  0.80719453016E+02 0.  0.
          5    1    3    3  501    0  0.11272849915E+03 -0.16723531761E+03 -0.43788523253E+02  0.20643374421E+03  0.47000000000E+01 0. -1.
        -13    1    4    4    0    0 -0.88568105780E+01 -0.62361956968E+02 -0.40873559944E+02  0.75087313662E+02  0.00000000000E+00 0.  1.
         14    1    4    4    0    0 -0.33987509362E+01  0.44237978035E+01  0.23843986239E+02  0.24487898535E+02  0.00000000000E+00 0. -1.
         -5    1    5    5    0  502 -0.82710346677E+01  0.11771155844E+03 -0.26664463045E+03  0.29162625045E+03  0.47000000000E+01 0.  1.
         11    1    6    6    0    0 -0.28043613814E+02  0.80749632157E+02 -0.48606958992E+03  0.49352871610E+03  0.00000000000E+00 0. -1.
        -12    1    6    6    0    0 -0.64158289156E+02  0.26712286186E+02 -0.20345081981E+03  0.21499318218E+03  0.00000000000E+00 0.  1.
</event>
<event>
12    1  0.1050869E+000  0.2488136E+03  0.7818608E-02  0.1114107E+00
         21   -1    0    0  503  502  0.00000000000E+00  0.00000000000E+00  0.15663825243E+03  0.15663825243E+03  0.00000000000E+00 0.  1.
         21   -1    0    0  501  503 -0.00000000000E+00 -0.00000000000E+00 -0.41764082752E+03  0.41764082752E+03  0.00000000000E+00 0. -1.
          6    2    1    2  501    0  0.13020672466E+03 -0.12259560217E+03 -0.19767575818E+03  0.31753307043E+03  0.17253426508E+03 0.  0.
         24    2    3    3    0    0  0.53478084021E+02 -0.69817347817E+02 -0.25161403332E+02  0.12143074751E+03  0.79862148081E+02 0.  0.
         -6    2    1    2    0  502 -0.13020672466E+03  0.12259560217E+03 -0.63326816917E+02  0.25674600952E+03  0.17298773034E+03 0.  0.
        -24    2    5    5    0    0 -0.10731984517E+03  0.98326578276E+02 -0.10933467807E+03  0.19972313638E+03  0.82155914056E+02 0.  0.
          5    1    3    3  501    0  0.76728640642E+02 -0.52778254350E+02 -0.17251435485E+03  0.19610232292E+03  0.47000000000E+01 0. -1.
        -11    1    4    4    0    0  0.58547712693E+02 -0.17640996021E+02 -0.31225521207E+02  0.68659104107E+02  0.00000000000E+00 0.  1.
         12    1    4    4    0    0 -0.50696286720E+01 -0.52176351796E+02  0.60641178753E+01  0.52771643401E+02  0.00000000000E+00 0. -1.
         -5    1    5    5    0  502 -0.22886879491E+02  0.24269023890E+02  0.46007861152E+02  0.57022873140E+02  0.47000000000E+01 0.  1.
         11    1    6    6    0    0 -0.10170067438E+03  0.89926525366E+02 -0.58381815811E+02  0.14777768286E+03  0.00000000000E+00 0. -1.
        -12    1    6    6    0    0 -0.56191707896E+01  0.84000529101E+01 -0.50952862257E+02  0.51945453521E+02  0.00000000000E+00 0.  1.
</event>
<event>
12    1  0.1050869E+000  0.1764906E+03  0.7818608E-02  0.1171500E+00
         21   -1    0    0  501  502  0.00000000000E+00  0.00000000000E+00  0.46903885249E+03  0.46903885249E+03  0.00000000000E+00 0. -1.
         21   -1    0    0  502  503 -0.00000000000E+00 -0.00000000000E+00 -0.74489851539E+02  0.74489851539E+02  0.00000000000E+00 0. -1.
         -6    2    1    2    0  503 -0.67597943686E+01 -0.33956577272E+02  0.10616120716E+03  0.20595906345E+03  0.17306123180E+03 0.  0.
        -24    2    3    3    0    0  0.35512057582E+02 -0.76180703118E+02  0.74454851871E+02  0.13815663550E+03  0.80493013389E+02 0.  0.
          6    2    1    2  501    0  0.67597943686E+01  0.33956577272E+02  0.28838779379E+03  0.33756964057E+03  0.17200871684E+03 0.  0.
         24    2    5    5    0    0 -0.60754312018E+02  0.32682755857E+02  0.20362286160E+03  0.22909401699E+03  0.79136274209E+02 0.  0.
          5    1    5    5  501    0  0.67514106387E+02  0.12738214148E+01  0.84764932189E+02  0.10847562358E+03  0.47000000000E+01 0. -1.
        -11    1    6    6    0    0 -0.18081901828E+02  0.38044366347E+02  0.16814632125E+03  0.17334218856E+03  0.00000000000E+00 0.  1.
         12    1    6    6    0    0 -0.42672410191E+02 -0.53616104900E+01  0.35476540357E+02  0.55751828438E+02  0.00000000000E+00 0. -1.
         -5    1    3    3    0  503 -0.42271851951E+02  0.42224125846E+02  0.31706355287E+02  0.67802427953E+02  0.47000000000E+01 0.  1.
         13    1    4    4    0    0 -0.38351775340E+01 -0.75300803388E+02  0.37667765493E+02  0.84283925720E+02  0.00000000000E+00 0. -1.
        -14    1    4    4    0    0  0.39347235116E+02 -0.87989972939E+00  0.36787086379E+02  0.53872709780E+02  0.00000000000E+00 0.  1.
</event>
<event>
12    1  0.1050869E+000  0.2000092E+03  0.7818608E-02  0.1150500E+00
         21   -1    0    0  503  502  0.00000000000E+00  0.00000000000E+00  0.11905998647E+03  0.11905998647E+03  0.00000000000E+00 0. -1.
         21   -1    0    0  501  503 -0.00000000000E+00 -0.00000000000E+00 -0.33884875845E+03  0.33884875845E+03  0.00000000000E+00 0. -1.
          6    2    1    2  501    0 -0.95369229307E+02 -0.29404471071E+02 -0.14795277533E+03  0.24878441489E+03  0.17333132592E+03 0.  0.
         24    2    3    3    0    0 -0.11884875063E+03 -0.62766359753E+02 -0.13223671229E+03  0.20481410473E+03  0.79985173479E+02 0.  0.
         -6    2    1    2    0  502  0.95369229307E+02  0.29404471071E+02 -0.71835996654E+02  0.20912433003E+03  0.16915277762E+03 0.  0.
        -24    2    5    5    0    0 -0.65744107223E+01  0.43949441563E+02 -0.49153553648E+02  0.10357507551E+03  0.79604950474E+02 0.  0.
          5    1    3    3  501    0  0.23479521322E+02  0.33361888682E+02 -0.15716063036E+02  0.43970310157E+02  0.47000000000E+01 0. -1.
        -13    1    4    4    0    0 -0.53266631405E+02 -0.59910731738E+01 -0.97718911570E+02  0.11145498041E+03  0.00000000000E+00 0.  1.
         14    1    4    4    0    0 -0.65582119224E+02 -0.56775286580E+02 -0.34517800723E+02  0.93359124326E+02  0.00000000000E+00 0. -1.
         -5    1    5    5    0  502  0.10194364003E+03 -0.14544970491E+02 -0.22682443006E+02  0.10554925452E+03  0.47000000000E+01 0.  1.
         13    1    6    6    0    0  0.23693833832E+01 -0.22506124450E+02 -0.20920890640E+02  0.30819203114E+02  0.00000000000E+00 0. -1.
        -14    1    6    6    0    0 -0.89437941055E+01  0.66455566013E+02 -0.28232663007E+02  0.72755872392E+02  0.00000000000E+00 0.  1.
</event>
<event>
12    1  0.1050869E+000  0.1953174E+03  0.7818608E-02  0.1154027E+00
         21   -1    0    0  501  502  0.00000000000E+00  0.00000000000E+00  0.70808761022E+02  0.70808761022E+02  0.00000000000E+00 0.  1.
         21   -1    0    0  502  503 -0.00000000000E+00 -0.00000000000E+00 -0.67080591531E+03  0.67080591531E+03  0.00000000000E+00 0.  1.
         -6    2    1    2    0  503 -0.86591983368E+02 -0.31908535759E+02 -0.13410245254E+03  0.23692270547E+03  0.17214114660E+03 0.  0.
        -24    2    3    3    0    0 -0.45458746246E+02 -0.84453711195E+02 -0.10959818194E+03  0.16568024667E+03  0.78988959405E+02 0.  0.
          6    2    1    2  501    0  0.86591983368E+02  0.31908535759E+02 -0.46589470175E+03  0.50469197086E+03  0.17070379638E+03 0.  0.
         24    2    5    5    0    0  0.25146796878E+02  0.32582083883E+02 -0.41422703380E+03  0.42427056500E+03  0.82021480190E+02 0.  0.
          5    1    5    5  501    0  0.61445186490E+02 -0.67354812416E+00 -0.51667667950E+02  0.80421405865E+02  0.47000000000E+01 0. -1.
        -13    1    6    6    0    0  0.23962525293E+02  0.58870772217E+02 -0.32861034510E+03  0.33470095510E+03  0.00000000000E+00 0.  1.
         14    1    6    6    0    0  0.11842715859E+01 -0.26288688334E+02 -0.85616688696E+02  0.89569609895E+02  0.00000000000E+00 0. -1.
         -5    1    3    3    0  503 -0.41133237122E+02  0.52545175436E+02 -0.24504270599E+02  0.71242458796E+02  0.47000000000E+01 0.  1.
         11    1    4    4    0    0  0.62646235908E+01 -0.26143385852E+01  0.98261552624E+01  0.11942931056E+02  0.00000000000E+00 0. -1.
        -12    1    4    4    0    0 -0.51723369837E+02 -0.81839372610E+02 -0.11942433720E+03  0.15373731562E+03  0.00000000000E+00 0.  1.
</event>
<event>
12    1  0.1050869E+000  0.2004558E+03  0.7818608E-02  0.1149454E+00
         21   -1    0    0  503  502  0.00000000000E+00  0.00000000000E+00  0.80813968061E+02  0.80813968061E+02  0.00000000000E+00 0. -1.
         21   -1    0    0  501  503 -0.00000000000E+00 -0.00000000000E+00 -0.50132043005E+03  0.50132043005E+03  0.00000000000E+00 0. -1.
          6    2    1    2  501    0 -0.64757562863E+02 -0.79715639066E+02 -0.18018295882E+03  0.26918406339E+03  0.17159847399E+03 0.  0.
         24    2    3    3    0    0 -0.10092263203E+03 -0.90661310782E+02 -0.16536212764E+03  0.22832495188E+03  0.79892424305E+02 0.  0.
         -6    2    1    2    0  502  0.64757562863E+02  0.79715639066E+02 -0.24032350317E+03  0.31295033472E+03  0.17214645151E+03 0.  0.
        -24    2    5    5    0    0  0.51371303643E+01  0.99455326777E+02 -0.11080287087E+03  0.16892972705E+03  0.79638083573E+02 0.  0.
          5    1    3    3  501    0  0.36165069168E+02  0.10945671716E+02 -0.14820831176E+02  0.40859111518E+02  0.47000000000E+01 0. -1.
        -11    1    4    4    0    0 -0.75430962754E+02 -0.85205059483E+02 -0.80085114200E+02  0.13915228284E+03  0.00000000000E+00 0.  1.
         12    1    4    4    0    0 -0.25491669278E+02 -0.54562512981E+01 -0.85277013444E+02  0.89172669034E+02  0.00000000000E+00 0. -1.
         -5    1    5    5    0  502  0.59620432499E+02 -0.19739687712E+02 -0.12952063230E+03  0.14402060767E+03  0.47000000000E+01 0.  1.
         11    1    6    6    0    0  0.23901247976E+02  0.78700194911E+02 -0.11420906543E+03  0.14074338692E+03  0.00000000000E+00 0. -1.
        -12    1    6    6    0    0 -0.18764117612E+02  0.20755131867E+02  0.34061945653E+01  0.28186340131E+02  0.00000000000E+00 0.  1.
</event>
<event>
12    1  0.1050869E+000  0.2367059E+03  0.7818608E-02  0.1123087E+00
         21   -1    0    0  501  502  0.00000000000E+00  0.00000000000E+00  0.16343981219E+03  0.16343981219E+03  0.00000000000E+00 0. -1.
         21   -1    0    0  502  503 -0.00000000000E+00 -0.00000000000E+00 -0.38378738947E+03  0.38378738947E+03  0.00000000000E+00 0. -1.
         -6    2    1    2    0  503  0.26272369042E+02  0.15404553832E+03 -0.21021645455E+03  0.31657641729E+03  0.17779033992E+03 0.  0.
        -24    2    3    3    0    0  0.36466664702E+02  0.18044427274E+03 -0.15176602139E+03  0.25146604961E+03  0.79449956942E+02 0.  0.
          6    2    1    2  501    0 -0.26272369042E+02 -0.15404553832E+03 -0.10131122726E+02  0.23065078438E+03  0.16934249152E+03 0.  0.
         24    2    5    5    0    0  0.12026741141E+02 -0.12475180704E+03 -0.61140767584E+02  0.16030152424E+03  0.79061554190E+02 0.  0.
          5    1    5    5  501    0 -0.38299110183E+02 -0.29293731271E+02  0.51009644858E+02  0.70349260132E+02  0.47000000000E+01 0. -1.
        -13    1    6    6    0    0  0.33348487837E+02 -0.11595082547E+03 -0.35399300108E+02  0.12573713062E+03  0.00000000000E+00 0.  1.
         14    1    6    6    0    0 -0.21321746697E+02 -0.88009815749E+01 -0.25741467476E+02  0.34564393625E+02  0.00000000000E+00 0. -1.
         -5    1    3    3    0  503 -0.10194295660E+02 -0.26398734421E+02 -0.58450433162E+02  0.65110367683E+02  0.47000000000E+01 0.  1.
         11    1    4    4    0    0  0.23097229417E+00  0.66599920419E+02 -0.10249558056E+03  0.12223316564E+03  0.00000000000E+00 0. -1.
        -12    1    4    4    0    0  0.36235692407E+02  0.11384435232E+03 -0.49270440833E+02  0.12923288397E+03  0.00000000000E+00 0.  1.
</event>
<event>
12    1  0.1050869E+000  0.1793863E+03  0.7818608E-02  0.1168902E+00
         21   -1    0    0  503  502  0.00000000000E+00  0.00000000000E+00  0.10915013452E+04  0.10915013452E+04  0.00000000000E+00 0.  1.
         21   -1    0    0  501  503 -0.00000000000E+00 -0.00000000000E+00 -0.29909624077E+02  0.29909624077E+02  0.00000000000E+00 0.  1.
          6    2    1    2  501    0  0.60641815669E+01 -0.44235333579E+02  0.43811132869E+03  0.47263733636E+03  0.17161286770E+03 0.  0.
         24    2    3    3    0    0  0.61303575966E+02 -0.45989142566E+02  0.36051499486E+03  0.37725522293E+03  0.80481749765E+02 0.  0.
         -6    2    1    2    0  502 -0.60641815669E+01  0.44235333579E+02  0.62348039240E+03  0.64877363289E+03  0.17374086446E+03 0.  0.
        -24    2    5    5    0    0  0.42934175203E+02  0.75768241683E+02  0.36756730510E+03  0.38626884910E+03  0.80707683375E+02 0.  0.
          5    1    3    3  501    0 -0.55239394399E+02  0.17538089872E+01  0.77596333834E+02  0.95382113439E+02  0.47000000000E+01 0. -1.
        -13    1    4    4    0    0 -0.16276255913E+02 -0.15840379249E+02  0.13445194167E+03  0.13635673338E+03  0.00000000000E+00 0.  1.
         14    1    4    4    0    0  0.77579831879E+02 -0.30148763318E+02  0.22606305319E+03  0.24089848954E+03  0.00000000000E+00 0. -1.
         -5    1    5    5    0  502 -0.48998356770E+02 -0.31532908104E+02  0.25591308730E+03  0.26250478379E+03  0.47000000000E+01 0.  1.
         13    1    6    6    0    0 -0.15689032032E+02  0.19010266599E+02  0.18056311315E+03  0.18223768489E+03  0.00000000000E+00 0. -1.
        -14    1    6    6    0    0  0.58623207235E+02  0.56757975084E+02  0.18700419195E+03  0.20403116421E+03  0.00000000000E+00 0.  1.
</event>
<event>
12    1  0.1050869E+000  0.2243711E+03  0.7818608E-02  0.1131143E+00
         21   -1    0    0  503  502  0.00000000000E+00  0.00000000000E+00  0.82812083786E+03  0.82812083786E+03  0.00000000000E+00 0. -1.
         21   -1    0    0  501  503 -0.00000000000E+00 -0.00000000000E+00 -0.98150084505E+02  0.98150084505E+02  0.00000000000E+00 0. -1.
          6    2    1    2  501    0  0.13936778100E+03 -0.35560965537E+02  0.77877773134E+02  0.23750231863E+03  0.17220465486E+03 0.  0.
         24    2    3    3    0    0  0.16440050593E+03 -0.49105739045E+02  0.83988478771E+02  0.20801454268E+03  0.82323055359E+02 0.  0.
         -6    2    1    2    0  502 -0.13936778100E+03  0.35560965537E+02  0.65209298022E+03  0.68876860374E+03  0.16878677079E+03 0.  0.
        -24    2    5    5    0    0 -0.17988587322E+02 -0.13475907848E+02  0.34877306577E+03  0.35837098857E+03  0.79258593697E+02 0.  0.
          5    1    3    3  501    0 -0.25032724932E+02  0.13544773507E+02 -0.61107056363E+01  0.29487775946E+02  0.47000000000E+01 0. -1.
        -11    1    4    4    0    0  0.17552436504E+02 -0.10032435464E+01  0.45484281632E+02  0.48763863674E+02  0.00000000000E+00 0.  1.
         12    1    4    4    0    0  0.14684806942E+03 -0.48102495498E+02  0.38504197139E+02  0.15925067901E+03  0.00000000000E+00 0. -1.
         -5    1    5    5    0  502 -0.12137919367E+03  0.49036873385E+02  0.30331991445E+03  0.33039761517E+03  0.47000000000E+01 0.  1.
         11    1    6    6    0    0  0.26816274599E+02  0.25521395826E+01  0.60900989344E+02  0.66592465812E+02  0.00000000000E+00 0. -1.
        -12    1    6    6    0    0 -0.44804861921E+02 -0.16028047430E+02  0.28787207643E+03  0.29177852276E+03  0.00000000000E+00 0.  1.
</event>
<event>
12    1  0.1050869E+000  0.2208933E+03  0.7818608E-02  0.1133409E+00
         21   -1    0    0  503  502  0.00000000000E+00  0.00000000000E+00  0.19515562260E+03  0.19515562260E+03  0.00000000000E+00 0.  1.
         21   -1    0    0  501  503 -0.00000000000E+00 -0.00000000000E+00 -0.41890590881E+03  0.41890590881E+03  0.00000000000E+00 0.  1.
          6    2    1    2  501    0 -0.13841165872E+03  0.10190612345E+02 -0.30764020794E+03  0.37872993815E+03  0.17184944767E+03 0.  0.
         24    2    3    3    0    0 -0.11776466110E+03  0.45914771229E+02 -0.13609223527E+03  0.20222693261E+03  0.79987212422E+02 0.  0.
         -6    2    1    2    0  502  0.13841165872E+03 -0.10190612345E+02  0.83889921733E+02  0.23533159326E+03  0.17053387924E+03 0.  0.
        -24    2    5    5    0    0  0.11610581710E+03 -0.34249260924E+02  0.11810051445E+03  0.18769942141E+03  0.81423391263E+02 0.  0.
          5    1    3    3  501    0 -0.20646997616E+02 -0.35724158884E+02 -0.17154797267E+03  0.17650300554E+03  0.47000000000E+01 0. -1.
        -13    1    4    4    0    0 -0.87279614180E+02  0.45944417685E+02 -0.49364116559E+02  0.11029703791E+03  0.00000000000E+00 0.  1.
         14    1    4    4    0    0 -0.30485046923E+02 -0.29646456202E-01 -0.86728118713E+02  0.91929894704E+02  0.00000000000E+00 0. -1.
         -5    1    5    5    0  502  0.22305841616E+02  0.24058648579E+02 -0.34210592715E+02  0.47632171855E+02  0.47000000000E+01 0.  1.
         11    1    6    6    0    0  0.11085299606E+03 -0.54982390884E+02  0.93442825539E+02  0.15505809133E+03  0.00000000000E+00 0. -1.
        -12    1    6    6    0    0  0.52528210450E+01  0.20733129960E+02  0.24657688910E+02  0.32641330077E+02  0.00000000000E+00 0.  1.
</event>
<event>
12    1  0.1050869E+000  0.1810134E+03  0.7818608E-02  0.1167568E+00
         21   -1    0    0  503  502  0.00000000000E+00  0.00000000000E+00  0.90731166808E+02  0.90731166808E+02  0.00000000000E+00 0.  1.
         21   -1    0    0  501  503 -0.00000000000E+00 -0.00000000000E+00 -0.39442112429E+03  0.39442112429E+03  0.00000000000E+00 0.  1.
          6    2    1    2  501    0  0.26037397716E+02  0.52783307789E+02 -0.22731942796E+03  0.28868772289E+03  0.16793586680E+03 0.  0.
         24    2    3    3    0    0 -0.41725144879E+01 -0.34046476290E+02 -0.13124024025E+03  0.15562626900E+03  0.76282124507E+02 0.  0.
         -6    2    1    2    0  502 -0.26037397716E+02 -0.52783307789E+02 -0.76370529521E+02  0.19646456821E+03  0.17117781726E+03 0.  0.
        -24    2    5    5    0    0 -0.27632598570E+02 -0.43401413133E+02 -0.11999910437E+03  0.15156348630E+03  0.76970527887E+02 0.  0.
          5    1    3    3  501    0  0.30209912204E+02  0.86829784079E+02 -0.96079187715E+02  0.13306145389E+03  0.47000000000E+01 0. -1.
        -13    1    4    4    0    0 -0.57472828939E+01 -0.39254565308E+01 -0.12453302505E+03  0.12472736186E+03  0.00000000000E+00 0.  1.
         14    1    4    4    0    0  0.15747684059E+01 -0.30121019760E+02 -0.67072151998E+01  0.30898907143E+02  0.00000000000E+00 0. -1.
         -5    1    5    5    0  502  0.15952008544E+01 -0.93818946559E+01  0.43628574850E+02  0.44901081909E+02  0.47000000000E+01 0.  1.
         11    1    6    6    0    0 -0.50956539432E+02 -0.12982530162E+02 -0.54922490362E+02  0.76036799959E+02  0.00000000000E+00 0. -1.
        -12    1    6    6    0    0  0.23323940862E+02 -0.30418882971E+02 -0.65076614009E+02  0.75526686340E+02  0.00000000000E+00 0.  1.
</event>
<event>
12    1  0.1050869E+000  0.2764927E+03  0.7818608E-02  0.1098198E+00
         21   -1    0    0  501  502  0.00000000000E+00  0.00000000000E+00  0.20024114868E+04  0.20024114868E+04  0.00000000000E+00 0. -1.
         21   -1    0    0  502  503 -0.00000000000E+00 -0.00000000000E+00 -0.10166832645E+03  0.10166832645E+03  0.00000000000E+00 0. -1.
         -6    2    1    2    0  503 -0.21296733975E+03 -0.41441137710E+02  0.17827965948E+04  0.18034810880E+04  0.16464471051E+03 0.  0.
        -24    2    3    3    0    0 -0.10631339195E+03  0.36649882487E+02  0.99974506345E+03  0.10093368550E+04  0.81393758080E+02 0.  0.
          6    2    1    2  501    0  0.21296733975E+03  0.41441137710E+02  0.11794656553E+03  0.30059872522E+03  0.17139354009E+03 0.  0.
         24    2    5    5    0    0  0.23092656858E+03  0.57615849230E+02  0.10114551361E+03  0.27079066358E+03  0.80315019748E+02 0.  0.
          5    1    5    5  501    0 -0.17959228832E+02 -0.16174711520E+02  0.16801051923E+02  0.29808061639E+02  0.47000000000E+01 0. -1.
        -13    1    6    6    0    0  0.11420940625E+03  0.55597435317E+02  0.85250655407E+02  0.15297887938E+03  0.00000000000E+00 0.  1.
         14    1    6    6    0    0  0.11671716234E+03  0.20184139125E+01  0.15894858204E+02  0.11781178420E+03  0.00000000000E+00 0. -1.
         -5    1    3    3    0  503 -0.10665394780E+03 -0.78091020197E+02  0.78305153137E+03  0.79414423300E+03  0.47000000000E+01 0.  1.
         13    1    4    4    0    0 -0.42257538111E+02  0.24978493929E+01  0.13338771358E+03  0.13994363477E+03  0.00000000000E+00 0. -1.
        -14    1    4    4    0    0 -0.64055853839E+02  0.34152033094E+02  0.86635734987E+03  0.86939322027E+03  0.00000000000E+00 0.  1.
</event>
<event>
12    1  0.1050869E+000  0.1836611E+03  0.7818608E-02  0.1165886E+00
         21   -1    0    0  503  502  0.00000000000E+00  0.00000000000E+00  0.37909226616E+03  0.37909226616E+03  0.00000000000E+00 0.  1.
         21   -1    0    0  501  503 -0.00000000000E+00 -0.00000000000E+00 -0.21103222877E+03  0.21103222877E+03  0.00000000000E+00 0.  1.
          6    2    1    2  501    0 -0.61202917313E+02  0.22381868097E+00 -0.14385495402E+03  0.22815439822E+03  0.16617561327E+03 0.  0.
         24    2    3    3    0    0 -0.68469349532E+02 -0.41095726384E+02 -0.14742751552E+03  0.18578744131E+03  0.80032433824E+02 0.  0.
         -6    2    1    2    0  502  0.61202917313E+02 -0.22381868097E+00  0.31191499141E+03  0.36197009672E+03  0.17316333870E+03 0.  0.
        -24    2    5    5    0    0  0.97690681715E+02  0.37673571725E+02  0.21903780289E+03  0.25512520307E+03  0.78412644687E+02 0.  0.
          5    1    3    3  501    0  0.72664322198E+01  0.41319545065E+02  0.35725615013E+01  0.42366956903E+02  0.47000000000E+01 0. -1.
        -11    1    4    4    0    0 -0.12259127374E+02  0.12410984443E+02 -0.83323930734E+02  0.85130465591E+02  0.00000000000E+00 0.  1.
         12    1    4    4    0    0 -0.56210222158E+02 -0.53506710826E+02 -0.64103584788E+02  0.10065697572E+03  0.00000000000E+00 0. -1.
         -5    1    5    5    0  502 -0.36487764403E+02 -0.37897390406E+02  0.92877188522E+02  0.10684489365E+03  0.47000000000E+01 0.  1.
         13    1    6    6    0    0  0.46645483218E+02 -0.14525549948E+02  0.13624541718E+03  0.14473978861E+03  0.00000000000E+00 0. -1.
        -14    1    6    6    0    0  0.51045198497E+02  0.52199121673E+02  0.82792385710E+02  0.11038541446E+03  0.00000000000E+00 0.  1.
</event>
<event>
12    1  0.1050869E+000  0.1843392E+03  0.7818608E-02  0.1163671E+00
         21   -1    0    0  501  502  0.00000000000E+00  0.00000000000E+00  0.19729213173E+03  0.19729213173E+03  0.00000000000E+00 0. -1.
         21   -1    0    0  502  503 -0.00000000000E+00 -0.00000000000E+00 -0.30692226998E+03  0.30692226998E+03  0.00000000000E+00 0. -1.
         -6    2    1    2    0  503 -0.39604721660E+02  0.53032655776E+02 -0.22182826466E+03  0.28842454876E+03  0.17204634483E+03 0.  0.
        -24    2    3    3    0    0 -0.73698951966E+02  0.63741185608E+02 -0.21867070864E+03  0.25224238034E+03  0.79466127126E+02 0.  0.
          6    2    1    2  501    0  0.39604721660E+02 -0.53032655776E+02  0.11219812641E+03  0.21578985296E+03  0.17203442828E+03 0.  0.
         24    2    5    5    0    0  0.80718991822E+02 -0.61793048110E+02  0.80628235774E+02  0.16300845775E+03  0.98675774429E+02 0.  0.
          5    1    5    5  501    0 -0.41114270162E+02  0.87603923336E+01  0.31569890638E+02  0.52781395204E+02  0.47000000000E+01 0. -1.
        -13    1    6    6    0    0  0.30006966206E+02  0.14466717174E+02  0.60765061212E+02  0.69297161491E+02  0.00000000000E+00 0.  1.
         14    1    6    6    0    0  0.50712025616E+02 -0.76259765283E+02  0.19863174562E+02  0.93711296260E+02  0.00000000000E+00 0. -1.
         -5    1    3    3    0  503  0.34094230306E+02 -0.10708529832E+02 -0.31575560188E+01  0.36182168417E+02  0.47000000000E+01 0.  1.
         11    1    4    4    0    0 -0.14124183488E+02  0.44114298999E+02 -0.15921823695E+03  0.16581921154E+03  0.00000000000E+00 0. -1.
        -12    1    4    4    0    0 -0.59574768478E+02  0.19626886608E+02 -0.59452471683E+02  0.86423168805E+02  0.00000000000E+00 0.  1.
</event>
<event>
12    1  0.1050869E+000  0.1822905E+03  0.7818608E-02  0.1165867E+00
         21   -1    0    0  503  502  0.00000000000E+00  0.00000000000E+00  0.45427380918E+03  0.45427380918E+03  0.00000000000E+00 0.  1.
         21   -1    0    0  501  503 -0.00000000000E+00 -0.00000000000E+00 -0.78991466989E+02  0.78991466989E+02  0.00000000000E+00 0.  1.
          6    2    1    2  501    0 -0.30480776825E+02  0.50059006696E+02  0.26231530215E+03  0.31880927675E+03  0.17144986233E+03 0.  0.
         24    2    3    3    0    0 -0.62583348972E+02 -0.17791315408E+02  0.13995964843E+03  0.17518742136E+03  0.82877759028E+02 0.  0.
         -6    2    1    2    0  502  0.30480776825E+02 -0.50059006696E+02  0.11296704004E+03  0.21445599942E+03  0.17261182359E+03 0.  0.
        -24    2    5    5    0    0  0.14236481511E+02 -0.10040655602E+03  0.84706927758E+02  0.15429391170E+03  0.79669276891E+02 0.  0.
          5    1    3    3  501    0  0.32102572148E+02  0.67850322104E+02  0.12235565371E+03  0.14362185538E+03  0.47000000000E+01 0. -1.
        -13    1    4    4    0    0 -0.65360683069E+02  0.14744330464E+02  0.64670157227E+02  0.93121659176E+02  0.00000000000E+00 0.  1.
         14    1    4    4    0    0  0.27773340962E+01 -0.32535645873E+02  0.75289491207E+02  0.82065762187E+02  0.00000000000E+00 0. -1.
         -5    1    5    5    0  502  0.16244295314E+02  0.50347549319E+02  0.28260112279E+02  0.60162087719E+02  0.47000000000E+01 0.  1.
         13    1    6    6    0    0  0.24178020108E+02 -0.79508266291E+02  0.97290568422E+02  0.12795153680E+03  0.00000000000E+00 0. -1.
        -14    1    6    6    0    0 -0.99415385972E+01 -0.20898289724E+02 -0.12583640664E+02  0.26342374901E+02  0.00000000000E+00 0.  1.
</event>
<event>
12    1  0.1050869E+000  0.3191767E+03  0.7818608E-02  0.1076157E+00
         21   -1    0    0  503  502  0.00000000000E+00  0.00000000000E+00  0.19530330549E+03  0.19530330549E+03  0.00000000000E+00 0.  1.
         21   -1    0    0  501  503 -0.00000000000E+00 -0.00000000000E+00 -0.10880169180E+04  0.10880169180E+04  0.00000000000E+00 0.  1.
          6    2    1    2  501    0  0.26642539340E+03 -0.30877481303E+02  0.17721104177E+02  0.31855853308E+03  0.17096664109E+03 0.  0.
         24    2    3    3    0    0  0.11880422440E+03  0.42837426157E+02 -0.12513406206E+02  0.15074282245E+03  0.81346938287E+02 0.  0.
         -6    2    1    2    0  502 -0.26642539340E+03  0.30877481303E+02 -0.91043471664E+03  0.96476169037E+03  0.17302553810E+03 0.  0.
        -24    2    5    5    0    0 -0.14951658654E+03 -0.35653552687E+02 -0.63247204037E+03  0.65592615646E+03  0.81190242053E+02 0.  0.
          5    1    3    3  501    0  0.14762116900E+03 -0.73714907460E+02  0.30234510383E+02  0.16781571064E+03  0.47000000000E+01 0. -1.
        -13    1    4    4    0    0  0.32271083959E+01  0.14710744010E+02  0.22203855712E+02  0.26829674362E+02  0.00000000000E+00 0.  1.
         14    1    4    4    0    0  0.11557711601E+03  0.28126682147E+02 -0.34717261918E+02  0.12391314809E+03  0.00000000000E+00 0. -1.
         -5    1    5    5    0  502 -0.11690880687E+03  0.66531033990E+02 -0.27796267627E+03  0.30883553391E+03  0.47000000000E+01 0.  1.
         11    1    6    6    0    0  0.58899110137E+01 -0.15670251139E+02 -0.75556242375E+02  0.77388588205E+02  0.00000000000E+00 0. -1.
        -12    1    6    6    0    0 -0.15540649755E+03 -0.19983301548E+02 -0.55691579800E+03  0.57853756825E+03  0.00000000000E+00 0.  1.
</event>
<event>
12    1  0.1050869E+000  0.1885805E+03  0.7818608E-02  0.1159844E+00
         21   -1    0    0  501  502  0.00000000000E+00  0.00000000000E+00  0.63764305797E+03  0.63764305797E+03  0.00000000000E+00 0. -1.
         21   -1    0    0  502  503 -0.00000000000E+00 -0.00000000000E+00 -0.56166791148E+02  0.56166791148E+02  0.00000000000E+00 0. -1.
         -6    2    1    2    0  503  0.55146021002E+02 -0.53477149959E+02  0.32376438066E+03  0.37446986881E+03  0.17176559394E+03 0.  0.
        -24    2    3    3    0    0  0.71674332241E+02  0.15732281272E+02  0.13970360671E+03  0.17707790101E+03  0.80341587752E+02 0.  0.
          6    2    1    2  501    0 -0.55146021002E+02  0.53477149959E+02  0.25771188616E+03  0.31933998031E+03  0.17222577494E+03 0.  0.
         24    2    5    5    0    0 -0.89536196666E+01  0.90895820636E+01  0.33050070302E+02  0.85675657765E+02  0.78007841781E+02 0.  0.
          5    1    5    5  501    0 -0.46192401335E+02  0.44387567895E+02  0.22466181586E+03  0.23366432255E+03  0.47000000000E+01 0. -1.
        -11    1    6    6    0    0 -0.25477783850E+02 -0.18820852870E+02 -0.86603807856E+01  0.32838151105E+02  0.00000000000E+00 0.  1.
         12    1    6    6    0    0  0.16524164183E+02  0.27910434934E+02  0.41710451087E+02  0.52837506660E+02  0.00000000000E+00 0. -1.
         -5    1    3    3    0  503 -0.16528311239E+02 -0.69209431230E+02  0.18406077395E+03  0.19739196780E+03  0.47000000000E+01 0.  1.
         11    1    4    4    0    0 -0.84397898601E+01 -0.17420170645E+02  0.43245912283E+02  0.47380389692E+02  0.00000000000E+00 0. -1.
        -12    1    4    4    0    0  0.80114122101E+02  0.33152451917E+02  0.96457694423E+02  0.12969751132E+03  0.00000000000E+00 0.  1.
</event>
<event>
12    1  0.1050869E+000  0.2154856E+03  0.7818608E-02  0.1137887E+00
         21   -1    0    0  503  502  0.00000000000E+00  0.00000000000E+00  0.25709283767E+03  0.25709283767E+03  0.00000000000E+00 0.  1.
         21   -1    0    0  501  503 -0.00000000000E+00 -0.00000000000E+00 -0.52836732480E+03  0.52836732480E+03  0.00000000000E+00 0.  1.
          6    2    1    2  501    0  0.10083756909E+03  0.79237646915E+02 -0.45509223719E+03  0.50222350611E+03  0.16933010869E+03 0.  0.
         24    2    3    3    0    0  0.72519704238E+02  0.10067166180E+03 -0.43827938793E+03  0.46264977285E+03  0.81006786400E+02 0.  0.
         -6    2    1    2    0  502 -0.10083756909E+03 -0.79237646915E+02  0.18381775006E+03  0.28323665637E+03  0.17316817909E+03 0.  0.
        -24    2    5    5    0    0 -0.13031420523E+02 -0.78435016158E+02  0.51296155457E+02  0.12419381001E+03  0.80442135729E+02 0.  0.
          5    1    3    3  501    0  0.28317864852E+02 -0.21434014882E+02 -0.16812849261E+02  0.39573733258E+02  0.47000000000E+01 0. -1.
        -11    1    4    4    0    0  0.22091392686E+02  0.55055357466E+02 -0.89984397039E+02  0.10777900411E+03  0.00000000000E+00 0.  1.
         12    1    4    4    0    0  0.50428311551E+02  0.45616304331E+02 -0.34829499089E+03  0.35487076874E+03  0.00000000000E+00 0. -1.
         -5    1    5    5    0  502 -0.87806148566E+02 -0.80263075750E+00  0.13252159460E+03  0.15904284636E+03  0.47000000000E+01 0.  1.
         13    1    6    6    0    0 -0.20961208123E+01 -0.26338554679E+02  0.64196478115E+02  0.69421185436E+02  0.00000000000E+00 0. -1.
        -14    1    6    6    0    0 -0.10935299711E+02 -0.52096461479E+02 -0.12900322659E+02  0.54772624578E+02  0.00000000000E+00 0.  1.
</event>
<event>
12    1  0.1050869E+000  0.2151013E+03  0.7818608E-02  0.1137680E+00
         21   -1    0    0  503  502  0.00000000000E+00  0.00000000000E+00  0.93422104199E+02  0.93422104199E+02  0.00000000000E+00 0.  1.
         21   -1    0    0  501  503 -0.00000000000E+00 -0.00000000000E+00 -0.63837436345E+03  0.63837436345E+03  0.00000000000E+00 0.  1.
          6    2    1    2  501    0 -0.56398452027E+02 -0.11795110246E+03 -0.98342690156E+02  0.23608620541E+03  0.17021211389E+03 0.  0.
         24    2    3    3    0    0 -0.50294170310E+02 -0.13238366012E+02 -0.89524592040E+02  0.13072080177E+03  0.79802992007E+02 0.  0.
         -6    2    1    2    0  502  0.56398452027E+02  0.11795110246E+03 -0.44660956910E+03  0.49571026224E+03  0.17080781281E+03 0.  0.
        -24    2    5    5    0    0  0.10360909778E+03  0.10237161152E+03 -0.35135528812E+03  0.38816011740E+03  0.77478682655E+02 0.  0.
          5    1    3    3  501    0 -0.61042817170E+01 -0.10471273645E+03 -0.88180981155E+01  0.10536540364E+03  0.47000000000E+01 0. -1.
        -13    1    4    4    0    0  0.52985829406E+01  0.12258831884E+02 -0.62403047293E+02  0.63816097121E+02  0.00000000000E+00 0.  1.
         14    1    4    4    0    0 -0.55592753250E+02 -0.25497197896E+02 -0.27121544748E+02  0.66904704648E+02  0.00000000000E+00 0. -1.
         -5    1    5    5    0  502 -0.47210645749E+02  0.15579490948E+02 -0.95254280983E+02  0.10755014484E+03  0.47000000000E+01 0.  1.
         11    1    6    6    0    0  0.16843845133E+02  0.57238937087E+02 -0.80593289920E+02  0.10027606603E+03  0.00000000000E+00 0. -1.
        -12    1    6    6    0    0  0.86765252643E+02  0.45132674428E+02 -0.27076199820E+03  0.28788405137E+03  0.00000000000E+00 0.  1.
</event>
<event>
12    1  0.1050869E+000  0.1828037E+03  0.7818608E-02  0.1169204E+00
         21   -1    0    0  503  502  0.00000000000E+00  0.00000000000E+00  0.42976094510E+03  0.42976094510E+03  0.00000000000E+00 0.  1.
         21   -1    0    0  501  503 -0.00000000000E+00 -0.00000000000E+00 -0.30921409550E+03  0.30921409550E+03  0.00000000000E+00 0.  1.
          6    2    1    2  501    0 -0.57291624513E+02  0.25228259828E+02  0.38388780939E+03  0.41840421700E+03  0.15418639134E+03 0.  0.
         24    2    3    3    0    0  0.10348480344E+02  0.49965557831E+02  0.20919226679E+03  0.22938638636E+03  0.79076303325E+02 0.  0.
         -6    2    1    2    0  502  0.57291624513E+02 -0.25228259828E+02 -0.26334095978E+03  0.32057082359E+03  0.17175097236E+03 0.  0.
        -24    2    5    5    0    0  0.79328926457E+02  0.35592284963E+02 -0.16845568558E+03  0.20563568272E+03  0.79679524871E+02 0.  0.
          5    1    3    3  501    0 -0.67640104857E+02 -0.24737298003E+02  0.17469554259E+03  0.18901783064E+03  0.47000000000E+01 0. -1.
        -11    1    4    4    0    0 -0.18819496776E+02  0.59468853582E+02  0.12328793458E+03  0.13816885618E+03  0.00000000000E+00 0.  1.
         12    1    4    4    0    0  0.29167977121E+02 -0.95032957507E+01  0.85904332214E+02  0.91217530183E+02  0.00000000000E+00 0. -1.
         -5    1    5    5    0  502 -0.22037301944E+02 -0.60820544791E+02 -0.94885274208E+02  0.11493514087E+03  0.47000000000E+01 0.  1.
         13    1    6    6    0    0  0.15454984943E+02  0.48990609031E+02 -0.59293135167E+02  0.78451336577E+02  0.00000000000E+00 0. -1.
        -14    1    6    6    0    0  0.63873941514E+02 -0.13398324068E+02 -0.10916255041E+03  0.12718434614E+03  0.00000000000E+00 0.  1.
</event>
<event>
12    1  0.1050869E+000  0.1751360E+03  0.7818608E-02  0.1172615E+00
         21   -1    0    0  503  502  0.00000000000E+00  0.00000000000E+00  0.67099884968E+02  0.67099884968E+02  0.00000000000E+00 0.  1.
         21   -1    0    0  501  503 -0.00000000000E+00 -0.00000000000E+00 -0.46149515286E+03  0.46149515286E+03  0.00000000000E+00 0.  1.
          6    2    1    2  501    0  0.30140682986E+02 -0.12843227812E+02 -0.17083453166E+03  0.24460206585E+03  0.17196605520E+03 0.  0.
         24    2    3    3    0    0 -0.37649470314E+02 -0.16604235561E+02 -0.43924974925E+02  0.10059590052E+03  0.80603650821E+02 0.  0.
         -6    2    1    2    0  502 -0.30140682986E+02  0.12843227812E+02 -0.22356073624E+03  0.28399297198E+03  0.17204416896E+03 0.  0.
        -24    2    5    5    0    0  0.16777241155E+02  0.87144612913E+01 -0.22197287999E+03  0.23663318306E+03  0.79786503991E+02 0.  0.
          5    1    3    3  501    0  0.67790153299E+02  0.37610077487E+01 -0.12690955673E+03  0.14400616533E+03  0.47000000000E+01 0. -1.
        -13    1    4    4    0    0  0.10295081025E+01 -0.29413446212E+02  0.11676925251E+02  0.31663248227E+02  0.00000000000E+00 0.  1.
         14    1    4    4    0    0 -0.38678978416E+02  0.12809210651E+02 -0.55601900176E+02  0.68932652292E+02  0.00000000000E+00 0. -1.
         -5    1    5    5    0  502 -0.46917924141E+02  0.41287665211E+01 -0.15878562477E+01  0.47359788915E+02  0.47000000000E+01 0.  1.
         11    1    6    6    0    0  0.10356073513E+02 -0.35244485776E+02 -0.11745858916E+03  0.12306885147E+03  0.00000000000E+00 0. -1.
        -12    1    6    6    0    0  0.64211676416E+01  0.43958947067E+02 -0.10451429083E+03  0.11356433159E+03  0.00000000000E+00 0.  1.
</event>
<event>
12    1  0.1050869E+000  0.3415391E+03  0.7818608E-02  0.1066227E+00
         21   -1    0    0  503  502  0.00000000000E+00  0.00000000000E+00  0.12144287020E+03  0.12144287020E+03  0.00000000000E+00 0.  1.
         21   -1    0    0  501  503 -0.00000000000E+00 -0.00000000000E+00 -0.15957558544E+04  0.15957558544E+04  0.00000000000E+00 0.  1.
          6    2    1    2  501    0 -0.27718793090E+03  0.99185969223E+02 -0.19500251140E+03  0.39328736567E+03  0.17314146533E+03 0.  0.
         24    2    3    3    0    0 -0.27503192802E+03  0.52175399729E+02 -0.16070229161E+03  0.33486445005E+03  0.89129903004E+02 0.  0.
         -6    2    1    2    0  502  0.27718793090E+03 -0.99185969223E+02 -0.12793104728E+04  0.13239113589E+04  0.17156629894E+03 0.  0.
        -24    2    5    5    0    0  0.23544429781E+03 -0.72970204720E+02 -0.12134865556E+04  0.12415422186E+04  0.90104337351E+02 0.  0.
          5    1    3    3  501    0 -0.21560028824E+01  0.47010569493E+02 -0.34300219783E+02  0.58422915621E+02  0.47000000000E+01 0. -1.
        -11    1    4    4    0    0 -0.11370268236E+03  0.31775052919E+02 -0.19821071751E+02  0.11971143992E+03  0.00000000000E+00 0.  1.
         12    1    4    4    0    0 -0.16132924566E+03  0.20400346811E+02 -0.14088121986E+03  0.21515301013E+03  0.00000000000E+00 0. -1.
         -5    1    5    5    0  502  0.41743633094E+02 -0.26215764502E+02 -0.65823917145E+02  0.82369140341E+02  0.47000000000E+01 0.  1.
         11    1    6    6    0    0  0.36396721564E+02 -0.50330233137E+02 -0.28952145727E+03  0.29610897982E+03  0.00000000000E+00 0. -1.
        -12    1    6    6    0    0  0.19904757624E+03 -0.22639971584E+02 -0.92396509837E+03  0.94543323874E+03  0.00000000000E+00 0.  1.
</event>
<event>
12    1  0.1050869E+000  0.3166076E+03  0.7818608E-02  0.1077260E+00
         21   -1    0    0  503  502  0.00000000000E+00  0.00000000000E+00  0.47486715491E+02  0.47486715491E+02  0.00000000000E+00 0.  1.
         21   -1    0    0  501  503 -0.00000000000E+00 -0.00000000000E+00 -0.22505368246E+04  0.22505368246E+04  0.00000000000E+00 0. -1.
          6    2    1    2  501    0 -0.40356838124E+02  0.26244690560E+03 -0.81359809049E+03  0.87303047746E+03  0.17243349180E+03 0.  0.
         24    2    3    3    0    0 -0.23201870289E+02  0.26903311846E+03 -0.65256184032E+03  0.71088105567E+03  0.81226684362E+02 0.  0.
         -6    2    1    2    0  502  0.40356838124E+02 -0.26244690560E+03 -0.13894520186E+04  0.14249930626E+04  0.17181753067E+03 0.  0.
        -24    2    5    5    0    0 -0.19503022107E+02 -0.10319001655E+03 -0.81358052522E+03  0.82449657931E+03  0.82781585359E+02 0.  0.
          5    1    3    3  501    0 -0.17154967836E+02 -0.65862128595E+01 -0.16103625017E+03  0.16214942180E+03  0.47000000000E+01 0. -1.
        -11    1    4    4    0    0  0.15305038843E+02  0.38061061671E+02 -0.51658681244E+02  0.65965960747E+02  0.00000000000E+00 0.  1.
         12    1    4    4    0    0 -0.38506909131E+02  0.23097205678E+03 -0.60090315908E+03  0.64491509492E+03  0.00000000000E+00 0. -1.
         -5    1    5    5    0  502  0.59859860232E+02 -0.15925688905E+03 -0.57587149339E+03  0.60049648332E+03  0.47000000000E+01 0.  1.
         11    1    6    6    0    0 -0.33029872334E+02 -0.14964942483E+02 -0.38599461817E+03  0.38769416713E+03  0.00000000000E+00 0. -1.
        -12    1    6    6    0    0  0.13526850227E+02 -0.88225074065E+02 -0.42758590705E+03  0.43680241217E+03  0.00000000000E+00 0.  1.
</event>
<event>
12    1  0.1050869E+000  0.2447013E+03  0.7818608E-02  0.1116899E+00
         21   -1    0    0  503  502  0.00000000000E+00  0.00000000000E+00  0.62136604799E+02  0.62136604799E+02  0.00000000000E+00 0.  1.
         21   -1    0    0  501  503 -0.00000000000E+00 -0.00000000000E+00 -0.10179057082E+04  0.10179057082E+04  0.00000000000E+00 0.  1.
          6    2    1    2  501    0  0.21524533214E+02 -0.17229110669E+03 -0.34670212982E+03  0.42365728339E+03  0.17069152285E+03 0.  0.
         24    2    3    3    0    0 -0.74172379337E+01 -0.38648169046E+02 -0.21864774015E+03  0.23625910407E+03  0.80391750783E+02 0.  0.
         -6    2    1    2    0  502 -0.21524533214E+02  0.17229110669E+03 -0.60906697353E+03  0.65638502956E+03  0.17242736967E+03 0.  0.
        -24    2    5    5    0    0 -0.55438444915E+02  0.56788277139E+02 -0.39492995158E+03  0.41068641090E+03  0.79970818740E+02 0.  0.
          5    1    3    3  501    0  0.28941771148E+02 -0.13364293764E+03 -0.12805438967E+03  0.18739817932E+03  0.47000000000E+01 0. -1.
        -11    1    4    4    0    0 -0.94664437502E+01 -0.42879952130E+02 -0.46172279303E+02  0.63719567073E+02  0.00000000000E+00 0.  1.
         12    1    4    4    0    0  0.20492058165E+01  0.42317830838E+01 -0.17247546085E+03  0.17253953700E+03  0.00000000000E+00 0. -1.
         -5    1    5    5    0  502  0.33913911701E+02  0.11550282955E+03 -0.21413702195E+03  0.24569861866E+03  0.47000000000E+01 0.  1.
         13    1    6    6    0    0 -0.34642405179E+02  0.54892946399E+02 -0.13370631347E+03  0.14862943875E+03  0.00000000000E+00 0. -1.
        -14    1    6    6    0    0 -0.20796039737E+02  0.18953307400E+01 -0.26122363811E+03  0.26205697215E+03  0.00000000000E+00 0.  1.
</event>
<event>
12    1  0.1050869E+000  0.3296966E+03  0.7818608E-02  0.1071328E+00
         21   -1    0    0  501  502  0.00000000000E+00  0.00000000000E+00  0.75187435984E+02  0.75187435984E+02  0.00000000000E+00 0. -1.
         21   -1    0    0  502  503 -0.00000000000E+00 -0.00000000000E+00 -0.20406327829E+04  0.20406327829E+04  0.00000000000E+00 0. -1.
         -6    2    1    2    0  503 -0.28023369271E+03  0.21773310605E+02 -0.41097900035E+03  0.52688099982E+03  0.17232193611E+03 0.  0.
        -24    2    3    3    0    0 -0.66569076682E+02  0.29202510884E+02 -0.87349919311E+02  0.13898200105E+03  0.80010996741E+02 0.  0.
          6    2    1    2  501    0  0.28023369271E+03 -0.21773310605E+02 -0.15544663465E+04  0.15889392190E+04  0.17133948661E+03 0.  0.
         24    2    5    5    0    0  0.71145133059E+02  0.29598827463E+01 -0.35348387919E+03  0.36963173792E+03  0.81279628211E+02 0.  0.
          5    1    5    5  501    0  0.20908855965E+03 -0.24733193352E+02 -0.12009824674E+04  0.12193074811E+04  0.47000000000E+01 0. -1.
        -13    1    6    6    0    0  0.37671050847E+02 -0.37001240349E+02 -0.22195131613E+03  0.22814597649E+03  0.00000000000E+00 0.  1.
         14    1    6    6    0    0  0.33474082212E+02  0.39961123096E+02 -0.13153256306E+03  0.14148576142E+03  0.00000000000E+00 0. -1.
         -5    1    3    3    0  503 -0.21366461603E+03 -0.74292002786E+01 -0.32362908103E+03  0.38789899877E+03  0.47000000000E+01 0.  1.
         13    1    4    4    0    0 -0.18395321161E+01 -0.68778982279E+01 -0.59329883736E+02  0.59755539212E+02  0.00000000000E+00 0. -1.
        -14    1    4    4    0    0 -0.64729544566E+02  0.36080409112E+02 -0.28020035575E+02  0.79226461836E+02  0.00000000000E+00 0.  1.
</event>
<event>
12    1  0.1050869E+000  0.3174907E+03  0.7818608E-02  0.1077017E+00
         21   -1    0    0  501  502  0.00000000000E+00  0.00000000000E+00  0.13110540395E+04  0.13110540395E+04  0.00000000000E+00 0.  1.
         21   -1    0    0  502  503 -0.00000000000E+00 -0.00000000000E+00 -0.81519137896E+02  0.81519137896E+02  0.00000000000E+00 0.  1.
         -6    2    1    2    0  503 -0.20040314553E+02  0.26506420929E+03  0.78667186958E+03  0.84766215291E+03  0.17034625281E+03 0.  0.
        -24    2    3    3    0    0 -0.59816086136E+02  0.14909476743E+03  0.34135820929E+03  0.38575591840E+03  0.80467308220E+02 0.  0.
          6    2    1    2  501    0  0.20040314553E+02 -0.26506420929E+03  0.44286303206E+03  0.54491102452E+03  0.17360792095E+03 0.  0.
         24    2    5    5    0    0  0.72792947253E+02 -0.11585425566E+03  0.20490426895E+03  0.25909130256E+03  0.80134398993E+02 0.  0.
          5    1    5    5  501    0 -0.52752632701E+02 -0.14920995363E+03  0.23795876311E+03  0.28581972196E+03  0.47000000000E+01 0. -1.
        -11    1    6    6    0    0  0.26584356695E+02 -0.10113408182E+03  0.10579480729E+03  0.14875272023E+03  0.00000000000E+00 0.  1.
         12    1    6    6    0    0  0.46208590558E+02 -0.14720173843E+02  0.99109461663E+02  0.11033858233E+03  0.00000000000E+00 0. -1.
         -5    1    3    3    0  503  0.39775771583E+02  0.11596944186E+03  0.44531366028E+03  0.46190623452E+03  0.47000000000E+01 0.  1.
         13    1    4    4    0    0  0.14584545465E+02  0.65152747649E+02  0.11081705926E+03  0.12937546180E+03  0.00000000000E+00 0. -1.
        -14    1    4    4    0    0 -0.74400631601E+02  0.83942019778E+02  0.23054115004E+03  0.25638045660E+03  0.00000000000E+00 0.  1.
</event>
<event>
12    1  0.1050869E+000  0.1736729E+03  0.7818608E-02  0.1174228E+00
         21   -1    0    0  501  502  0.00000000000E+00  0.00000000000E+00  0.27011824963E+03  0.27011824963E+03  0.00000000000E+00 0. -1.
         21   -1    0    0  502  503 -0.00000000000E+00 -0.00000000000E+00 -0.11786676831E+03  0.11786676831E+03  0.00000000000E+00 0. -1.
         -6    2    1    2    0  503 -0.87502736296E+01 -0.49469486903E+01  0.30085530341E+02  0.17564846459E+03  0.17276054060E+03 0.  0.
        -24    2    3    3    0    0  0.20714324405E+02  0.60842022966E+02  0.45892612044E+02  0.10170047503E+03  0.64078231765E+02 0.  0.
          6    2    1    2  501    0  0.87502736296E+01  0.49469486903E+01  0.12216595099E+03  0.21233655335E+03  0.17338181196E+03 0.  0.
         24    2    5    5    0    0 -0.60934503801E+02  0.19097135114E+02  0.64752524430E+02  0.12082378085E+03  0.79547358704E+02 0.  0.
          5    1    5    5  501    0  0.69684777430E+02 -0.14150186424E+02  0.57413426555E+02  0.91512772497E+02  0.47000000000E+01 0. -1.
        -13    1    6    6    0    0 -0.22446305331E+02  0.31422637339E+02  0.70125067272E+02  0.80054630224E+02  0.00000000000E+00 0.  1.
         14    1    6    6    0    0 -0.38488198469E+02 -0.12325502224E+02 -0.53725428426E+01  0.40769150630E+02  0.00000000000E+00 0. -1.
         -5    1    3    3    0  503 -0.29464598035E+02 -0.65788971656E+02 -0.15807081703E+02  0.73947989566E+02  0.47000000000E+01 0.  1.
         13    1    4    4    0    0  0.57482566237E+01  0.30236864209E+02 -0.13200777202E+02  0.33489863095E+02  0.00000000000E+00 0. -1.
        -14    1    4    4    0    0  0.14966067781E+02  0.30605158757E+02  0.59093389246E+02  0.68210611931E+02  0.00000000000E+00 0.  1.
</event>
<event>
12    1  0.1050869E+000  0.1916143E+03  0.7818608E-02  0.1157066E+00
         21   -1    0    0  503  502  0.00000000000E+00  0.00000000000E+00  0.60428015971E+02  0.60428015971E+02  0.00000000000E+00 0.  1.
         21   -1    0    0  501  503 -0.00000000000E+00 -0.00000000000E+00 -0.65003813395E+03  0.65003813395E+03  0.00000000000E+00 0.  1.
          6    2    1    2  501    0 -0.28010617390E+02  0.80169386102E+02 -0.20308175748E+03  0.27904964708E+03  0.17150737640E+03 0.  0.
         24    2    3    3    0    0  0.16863568284E+02  0.29228517034E+01 -0.35055756662E+02  0.88693279788E+02  0.79653429349E+02 0.  0.
         -6    2    1    2    0  502  0.28010617390E+02 -0.80169386102E+02 -0.38652836050E+03  0.43141650285E+03  0.17176815858E+03 0.  0.
        -24    2    5    5    0    0  0.59027500245E+02 -0.10967023615E+03 -0.31085803347E+03  0.34435080599E+03  0.80205698874E+02 0.  0.
          5    1    3    3  501    0 -0.44874185674E+02  0.77246534399E+02 -0.16802600082E+03  0.19035636729E+03  0.47000000000E+01 0. -1.
        -13    1    4    4    0    0 -0.19293462703E+01  0.36595260519E+02 -0.10019081033E+00  0.36646220919E+02  0.00000000000E+00 0.  1.
         14    1    4    4    0    0  0.18792914554E+02 -0.33672408815E+02 -0.34955565851E+02  0.52047058868E+02  0.00000000000E+00 0. -1.
         -5    1    5    5    0  502 -0.31016882854E+02  0.29500850050E+02 -0.75670327036E+02  0.87065696858E+02  0.47000000000E+01 0.  1.
         13    1    6    6    0    0  0.20890570128E+02  0.94641814856E+01 -0.43446971077E+02  0.49128667265E+02  0.00000000000E+00 0. -1.
        -14    1    6    6    0    0  0.38136930117E+02 -0.11913441764E+03 -0.26741106239E+03  0.29522213872E+03  0.00000000000E+00 0.  1.
</event>
<event>
12    1  0.1050869E+000  0.1747294E+03  0.7818608E-02  0.1173156E+00
         21   -1    0    0  501  502  0.00000000000E+00  0.00000000000E+00  0.68199945275E+03  0.68199945275E+03  0.00000000000E+00 0. -1.
         21   -1    0    0  502  503 -0.00000000000E+00 -0.00000000000E+00 -0.44815138497E+02  0.44815138497E+02  0.00000000000E+00 0. -1.
         -6    2    1    2    0  503 -0.26234506296E+02  0.11277840470E+02  0.34366934700E+03  0.38553727704E+03  0.17238019873E+03 0.  0.
        -24    2    3    3    0    0  0.19747008686E+02 -0.37012644433E+02  0.11146151637E+03  0.14389945455E+03  0.80768206544E+02 0.  0.
          6    2    1    2  501    0  0.26234506296E+02 -0.11277840470E+02  0.29351496725E+03  0.34127731421E+03  0.17176649902E+03 0.  0.
         24    2    5    5    0    0 -0.45131444630E+02  0.94959204655E+01  0.11263874649E+03  0.14566814946E+03  0.80029386831E+02 0.  0.
          5    1    5    5  501    0  0.71365950925E+02 -0.20773760935E+02  0.18087622077E+03  0.19560916475E+03  0.47000000000E+01 0. -1.
        -11    1    6    6    0    0  0.20290695438E+02 -0.65825939189E+01  0.11749195089E+02  0.24353366282E+02  0.00000000000E+00 0.  1.
         12    1    6    6    0    0 -0.65422140067E+02  0.16078514384E+02  0.10088955140E+03  0.12131478317E+03  0.00000000000E+00 0. -1.
         -5    1    3    3    0  503 -0.45981514982E+02  0.48290484903E+02  0.23220783063E+03  0.24163782249E+03  0.47000000000E+01 0.  1.
         13    1    4    4    0    0  0.48538166715E+02 -0.26390876236E+02  0.92745603484E+02  0.10795452256E+03  0.00000000000E+00 0. -1.
        -14    1    4    4    0    0 -0.28791158029E+02 -0.10621768197E+02  0.18715912887E+02  0.35944931986E+02  0.00000000000E+00 0.  1.
</event>
<event>
12    1  0.1050869E+000  0.2515018E+03  0.7818608E-02  0.1112791E+00
         21   -1    0    0  501  502  0.00000000000E+00  0.00000000000E+00  0.72134585218E+03  0.72134585218E+03  0.00000000000E+00 0.  1.
         21   -1    0    0  502  503 -0.00000000000E+00 -0.00000000000E+00 -0.10041044628E+03  0.10041044628E+03  0.00000000000E+00 0.  1.
         -6    2    1    2    0  503 -0.11451516383E+02 -0.18324826128E+03  0.46062639112E+03  0.52350787842E+03  0.16784744288E+03 0.  0.
        -24    2    3    3    0    0 -0.70525984732E+02 -0.13532898225E+03  0.30317890615E+03  0.34858546522E+03  0.79413660504E+02 0.  0.
          6    2    1    2  501    0  0.11451516383E+02  0.18324826128E+03  0.16030901479E+03  0.29824842004E+03  0.17187808861E+03 0.  0.
         24    2    5    5    0    0 -0.47793279634E+02  0.67484492052E+02  0.10715734963E+03  0.15768389525E+03  0.80889795367E+02 0.  0.
          5    1    5    5  501    0  0.59244796018E+02  0.11576376923E+03  0.53151665156E+02  0.14056452479E+03  0.47000000000E+01 0. -1.
        -11    1    6    6    0    0 -0.62963914751E+02  0.74133636729E+02  0.80294023247E+02  0.12612446561E+03  0.00000000000E+00 0.  1.
         12    1    6    6    0    0  0.15170635117E+02 -0.66491446764E+01  0.26863326384E+02  0.31559429640E+02  0.00000000000E+00 0. -1.
         -5    1    3    3    0  503  0.59074468349E+02 -0.47919279034E+02  0.15744748497E+03  0.17492241319E+03  0.47000000000E+01 0.  1.
         13    1    4    4    0    0 -0.43632879619E+02 -0.96731208168E+02  0.12339384344E+03  0.16274764335E+03  0.00000000000E+00 0. -1.
        -14    1    4    4    0    0 -0.26893105113E+02 -0.38597774081E+02  0.17978506270E+03  0.18583782187E+03  0.00000000000E+00 0.  1.
</event>
<event>
12    1  0.1050869E+000  0.1799560E+03  0.7818608E-02  0.1168141E+00
         21   -1    0    0  503  502  0.00000000000E+00  0.00000000000E+00  0.65720389806E+03  0.65720389806E+03  0.00000000000E+00 0.  1.
         21   -1    0    0  501  503 -0.00000000000E+00 -0.00000000000E+00 -0.56752235660E+02  0.56752235660E+02  0.00000000000E+00 0.  1.
          6    2    1    2  501    0 -0.48729448190E+02  0.79420934114E+01  0.43352441052E+03  0.46939064424E+03  0.17305064695E+03 0.  0.
         24    2    3    3    0    0  0.35052824273E+00  0.65148867959E+02  0.24692016008E+03  0.26808317934E+03  0.81575288683E+02 0.  0.
         -6    2    1    2    0  502  0.48729448190E+02 -0.79420934114E+01  0.16692725187E+03  0.24456548948E+03  0.17178456059E+03 0.  0.
        -24    2    5    5    0    0  0.58596049386E+02  0.38596655727E+02  0.49067655089E+02  0.11737987888E+03  0.80294472736E+02 0.  0.
          5    1    3    3  501    0 -0.49079976433E+02 -0.57206774547E+02  0.18660425044E+03  0.20130746490E+03  0.47000000000E+01 0. -1.
        -11    1    4    4    0    0  0.19768727795E+02  0.46619863211E+02  0.23182168264E+03  0.23728781423E+03  0.00000000000E+00 0.  1.
         12    1    4    4    0    0 -0.19418199552E+02  0.18529004748E+02  0.15098477449E+02  0.30795365107E+02  0.00000000000E+00 0. -1.
         -5    1    5    5    0  502 -0.98666011958E+01 -0.46538749139E+02  0.11785959678E+03  0.12718561060E+03  0.47000000000E+01 0.  1.
         11    1    6    6    0    0  0.27550528490E+02  0.18309101320E+02  0.68089525383E+02  0.75699658375E+02  0.00000000000E+00 0. -1.
        -12    1    6    6    0    0  0.31045520896E+02  0.20287554407E+02 -0.19021870294E+02  0.41680220501E+02  0.00000000000E+00 0.  1.
</event>
<event>
12    1  0.1050869E+000  0.2332896E+03  0.7818608E-02  0.1125012E+00
         21   -1    0    0  501  502  0.00000000000E+00  0.00000000000E+00  0.13838682981E+03  0.13838682981E+03  0.00000000000E+00 0.  1.
         21   -1    0    0  502  503 -0.00000000000E+00 -0.00000000000E+00 -0.42366960381E+03  0.42366960381E+03  0.00000000000E+00 0.  1.
         -6    2    1    2    0  503  0.97483403925E+02 -0.12461122347E+03 -0.60881059330E+02  0.24110273928E+03  0.17144403299E+03 0.  0.
        -24    2    3    3    0    0  0.68375476444E+02 -0.74491166203E+02 -0.10647145638E+03  0.16721183399E+03  0.79996792318E+02 0.  0.
          6    2    1    2  501    0 -0.97483403925E+02  0.12461122347E+03 -0.22440171467E+03  0.32095369434E+03  0.16620521444E+03 0.  0.
         24    2    5    5    0    0 -0.60315186141E+01  0.13241258576E+02 -0.11084574711E+03  0.13742232325E+03  0.79914986880E+02 0.  0.
          5    1    5    5  501    0 -0.91451885310E+02  0.11136996489E+03 -0.11355596756E+03  0.18353137109E+03  0.47000000000E+01 0. -1.
        -11    1    6    6    0    0 -0.24876328825E+02  0.35116642937E+02 -0.95445407544E+02  0.10469878781E+03  0.00000000000E+00 0.  1.
         12    1    6    6    0    0  0.18844810211E+02 -0.21875384360E+02 -0.15400339568E+02  0.32723535439E+02  0.00000000000E+00 0. -1.
         -5    1    3    3    0  503  0.29107927481E+02 -0.50120057265E+02  0.45590397046E+02  0.73890905295E+02  0.47000000000E+01 0.  1.
         13    1    4    4    0    0  0.62708062448E+02 -0.23050439860E+02 -0.26326666318E+02  0.71810286402E+02  0.00000000000E+00 0. -1.
        -14    1    4    4    0    0  0.56674139960E+01 -0.51440726343E+02 -0.80144790059E+02  0.95401547585E+02  0.00000000000E+00 0.  1.
</event>
<event>
12    1  0.1050869E+000  0.5444794E+03  0.7818608E-02  0.1002970E+00
         21   -1    0    0  501  502  0.00000000000E+00  0.00000000000E+00  0.37193085282E+03  0.37193085282E+03  0.00000000000E+00 0. -1.
         21   -1    0    0  502  503 -0.00000000000E+00 -0.00000000000E+00 -0.17322719802E+04  0.17322719802E+04  0.00000000000E+00 0. -1.
         -6    2    1    2    0  503 -0.24551714935E+03 -0.44917112926E+03  0.93888890373E+02  0.55251515242E+03  0.18553839477E+03 0.  0.
        -24    2    3    3    0    0 -0.17427751377E+03 -0.32337140807E+03  0.13914124602E+03  0.40095486336E+03  0.80391521582E+02 0.  0.
          6    2    1    2  501    0  0.24551714935E+03  0.44917112926E+03 -0.14542300177E+04  0.15516876806E+04  0.17583042858E+03 0.  0.
         24    2    5    5    0    0  0.89156531554E+02  0.30415420846E+03 -0.90695937632E+03  0.96431574129E+03  0.82890704935E+02 0.  0.
          5    1    5    5  501    0  0.15636061780E+03  0.14501692080E+03 -0.54727064141E+03  0.58737193929E+03  0.47000000000E+01 0. -1.
        -11    1    6    6    0    0  0.50670018736E+02  0.53772540589E+02 -0.22546061850E+03  0.23725814509E+03  0.00000000000E+00 0.  1.
         12    1    6    6    0    0  0.38486512819E+02  0.25038166787E+03 -0.68149875782E+03  0.72705759619E+03  0.00000000000E+00 0. -1.
         -5    1    3    3    0  503 -0.71239635583E+02 -0.12579972119E+03 -0.45252355648E+02  0.15156028906E+03  0.47000000000E+01 0.  1.
         11    1    4    4    0    0  0.28026402958E+01 -0.21001348364E+02 -0.54670943456E+01  0.21881511518E+02  0.00000000000E+00 0. -1.
        -12    1    4    4    0    0 -0.17708015407E+03 -0.30237005970E+03  0.14460834037E+03  0.37907335184E+03  0.00000000000E+00 0.  1.
</event>
<event>
12    1  0.1050869E+000  0.2061712E+03  0.7818608E-02  0.1145889E+00
         21   -1    0    0  501  502  0.00000000000E+00  0.00000000000E+00  0.22604229518E+03  0.22604229518E+03  0.00000000000E+00 0. -1.
         21   -1    0    0  502  503 -0.00000000000E+00 -0.00000000000E+00 -0.19036109735E+03  0.19036109735E+03  0.00000000000E+00 0. -1.
         -6    2    1    2    0  503  0.97885598503E+02 -0.35528260962E+02 -0.24119318535E+02  0.20757727115E+03  0.17794025473E+03 0.  0.
        -24    2    3    3    0    0  0.86129955084E+02 -0.55157140421E+02 -0.75980081997E+02  0.15069918356E+03  0.80477274833E+02 0.  0.
          6    2    1    2  501    0 -0.97885598503E+02  0.35528260962E+02  0.59800516371E+02  0.20882612138E+03  0.17084612811E+03 0.  0.
         24    2    5    5    0    0 -0.19685974077E+02 -0.32995159441E+02 -0.98440346221E+00  0.88295889141E+02  0.79491992471E+02 0.  0.
          5    1    5    5  501    0 -0.78199624426E+02  0.68523420403E+02  0.60784919834E+02  0.12053023224E+03  0.47000000000E+01 0. -1.
        -13    1    6    6    0    0 -0.43416024013E+02 -0.86936521169E+01  0.19770000457E+02  0.48491067696E+02  0.00000000000E+00 0.  1.
         14    1    6    6    0    0  0.23730049935E+02 -0.24301507324E+02 -0.20754403920E+02  0.39804821445E+02  0.00000000000E+00 0. -1.
         -5    1    3    3    0  503  0.11755643419E+02  0.19628879459E+02  0.51860763462E+02  0.56878087590E+02  0.47000000000E+01 0.  1.
         11    1    4    4    0    0  0.33551445429E+02 -0.66623475608E+02 -0.31872840226E+02  0.81118832195E+02  0.00000000000E+00 0. -1.
        -12    1    4    4    0    0  0.52578509655E+02  0.11466335187E+02 -0.44107241771E+02  0.69580351370E+02  0.00000000000E+00 0.  1.
</event>
<event>
12    1  0.1050869E+000  0.3306150E+03  0.7818608E-02  0.1070902E+00
         21   -1    0    0  501  502  0.00000000000E+00  0.00000000000E+00  0.86279577600E+02  0.86279577600E+02  0.00000000000E+00 0. -1.
         21   -1    0    0  502  503 -0.00000000000E+00 -0.00000000000E+00 -0.12996141832E+04  0.12996141832E+04  0.00000000000E+00 0.  1.
         -6    2    1    2    0  503 -0.27559442066E+03  0.59563479771E+02 -0.49428141435E+03  0.59447491196E+03  0.17200642883E+03 0.  0.
        -24    2    3    3    0    0 -0.14858388636E+03  0.10094941271E+03 -0.28829410038E+03  0.34891975566E+03  0.79771877029E+02 0.  0.
          6    2    1    2  501    0  0.27559442066E+03 -0.59563479771E+02 -0.71905319120E+03  0.79141884879E+03  0.17264474977E+03 0.  0.
         24    2    5    5    0    0  0.18609547105E+03  0.92461826982E+00 -0.32816255196E+03  0.38584955282E+03  0.80974302340E+02 0.  0.
          5    1    5    5  501    0  0.89498949609E+02 -0.60488098041E+02 -0.39089063924E+03  0.40556929597E+03  0.47000000000E+01 0. -1.
        -13    1    6    6    0    0  0.91551758047E+02 -0.38754714859E+02 -0.18071892831E+03  0.20625950493E+03  0.00000000000E+00 0.  1.
         14    1    6    6    0    0  0.94543713003E+02  0.39679333128E+02 -0.14744362365E+03  0.17959004789E+03  0.00000000000E+00 0. -1.
         -5    1    3    3    0  503 -0.12701053430E+03 -0.41385932944E+02 -0.20598731397E+03  0.24555515630E+03  0.47000000000E+01 0.  1.
         13    1    4    4    0    0 -0.44493966296E+02  0.67766128502E+02 -0.16725886462E+03  0.18586954835E+03  0.00000000000E+00 0. -1.
        -14    1    4    4    0    0 -0.10408992006E+03  0.33183284212E+02 -0.12103523576E+03  0.16305020732E+03  0.00000000000E+00 0.  1.
</event>
<event>
12    1  0.1050869E+000  0.2295799E+03  0.7818608E-02  0.1127082E+00
         21   -1    0    0  501  502  0.00000000000E+00  0.00000000000E+00  0.33689541431E+03  0.33689541431E+03  0.00000000000E+00 0. -1.
         21   -1    0    0  502  503 -0.00000000000E+00 -0.00000000000E+00 -0.18821356610E+03  0.18821356610E+03  0.00000000000E+00 0. -1.
         -6    2    1    2    0  503  0.10828356838E+03  0.10505798276E+03  0.18304283888E+03  0.29297191102E+03  0.17194577302E+03 0.  0.
        -24    2    3    3    0    0  0.74449594893E+02  0.13717425762E+03  0.17010770829E+03  0.24433447199E+03  0.80019889078E+02 0.  0.
          6    2    1    2  501    0 -0.10828356838E+03 -0.10505798276E+03 -0.34360990673E+02  0.23213706939E+03  0.17304459074E+03 0.  0.
         24    2    5    5    0    0 -0.44161077879E+02 -0.12770486888E+03  0.68027916582E+00  0.15549141831E+03  0.76931034401E+02 0.  0.
          5    1    5    5  501    0 -0.64122490497E+02  0.22646886114E+02 -0.35041269839E+02  0.76645651084E+02  0.47000000000E+01 0. -1.
        -13    1    6    6    0    0 -0.65554392734E+01 -0.67301021881E+01 -0.24578484729E+02  0.26312924032E+02  0.00000000000E+00 0.  1.
         14    1    6    6    0    0 -0.37605638605E+02 -0.12097476669E+03  0.25258763895E+02  0.12917849428E+03  0.00000000000E+00 0. -1.
         -5    1    3    3    0  503  0.33833973482E+02 -0.32116274856E+02  0.12935130583E+02  0.48637439030E+02  0.47000000000E+01 0.  1.
         11    1    4    4    0    0  0.11983220545E+02  0.32604276247E+02 -0.45910255428E+00  0.34739706092E+02  0.00000000000E+00 0. -1.
        -12    1    4    4    0    0  0.62466374349E+02  0.10456998137E+03  0.17056681085E+03  0.20959476590E+03  0.00000000000E+00 0.  1.
</event>
<event>
12    1  0.1050869E+000  0.2179637E+03  0.7818608E-02  0.1135613E+00
         21   -1    0    0  501  502  0.00000000000E+00  0.00000000000E+00  0.13011934169E+04  0.13011934169E+04  0.00000000000E+00 0. -1.
         21   -1    0    0  502  503 -0.00000000000E+00 -0.00000000000E+00 -0.74269041528E+02  0.74269041528E+02  0.00000000000E+00 0. -1.
         -6    2    1    2    0  503 -0.12104215629E+03 -0.54866870734E+02  0.11042479510E+04  0.11253471193E+04  0.17140893976E+03 0.  0.
        -24    2    3    3    0    0 -0.14601662269E+03 -0.73999274822E+02  0.86155854279E+03  0.88058190181E+03  0.79653100167E+02 0.  0.
          6    2    1    2  501    0  0.12104215629E+03  0.54866870734E+02  0.12267642440E+03  0.25011533911E+03  0.17276168745E+03 0.  0.
         24    2    5    5    0    0  0.21992727377E+01  0.26984073763E+02  0.81093073978E+02  0.12107136843E+03  0.85727548479E+02 0.  0.
          5    1    5    5  501    0  0.11884288355E+03  0.27882796971E+02  0.41583350420E+02  0.12904397068E+03  0.47000000000E+01 0. -1.
        -13    1    6    6    0    0 -0.39080235595E+02  0.21384100380E+02  0.24628386711E+02  0.50902868242E+02  0.00000000000E+00 0.  1.
         14    1    6    6    0    0  0.41279508333E+02  0.55999733826E+01  0.56464687267E+02  0.70168500185E+02  0.00000000000E+00 0. -1.
         -5    1    3    3    0  503  0.24974466401E+02  0.19132404088E+02  0.24268940819E+03  0.24476521752E+03  0.47000000000E+01 0.  1.
         11    1    4    4    0    0  0.20088296203E+01 -0.10357931218E+02  0.12443407431E+02  0.16314426868E+02  0.00000000000E+00 0. -1.
        -12    1    4    4    0    0 -0.14802545231E+03 -0.63641343605E+02  0.84911513536E+03  0.86426747495E+03  0.00000000000E+00 0.  1.
</event>
<event>
12    1  0.1050869E+000  0.2419824E+03  0.7818608E-02  0.1118563E+00
         21   -1    0    0  501  502  0.00000000000E+00  0.00000000000E+00  0.58103862447E+03  0.58103862447E+03  0.00000000000E+00 0.  1.
         21   -1    0    0  502  503 -0.00000000000E+00 -0.00000000000E+00 -0.10657785952E+03  0.10657785952E+03  0.00000000000E+00 0.  1.
         -6    2    1    2    0  503  0.49546466414E+02  0.16204549430E+03  0.31912222888E+03  0.40049281448E+03  0.17274809095E+03 0.  0.
        -24    2    3    3    0    0  0.26170381843E+02  0.88483204806E+02  0.73833918154E+02  0.14330359008E+03  0.81057418184E+02 0.  0.
          6    2    1    2  501    0 -0.49546466414E+02 -0.16204549430E+03  0.15533853606E+03  0.28712366952E+03  0.17203588653E+03 0.  0.
         24    2    5    5    0    0 -0.17947667569E+02 -0.53867910276E+02  0.44502753741E+01  0.98735158754E+02  0.80653308019E+02 0.  0.
          5    1    5    5  501    0 -0.31598798844E+02 -0.10817758402E+03  0.15088826069E+03  0.18838851076E+03  0.47000000000E+01 0. -1.
        -13    1    6    6    0    0 -0.16582555112E+02  0.18228934395E+02 -0.72387579782E+01  0.25684135186E+02  0.00000000000E+00 0.  1.
         14    1    6    6    0    0 -0.13651124576E+01 -0.72096844671E+02  0.11689033352E+02  0.73051023567E+02  0.00000000000E+00 0. -1.
         -5    1    3    3    0  503  0.23376084571E+02  0.73562289491E+02  0.24528831073E+03  0.25718922440E+03  0.47000000000E+01 0.  1.
         13    1    4    4    0    0  0.56186735597E+00  0.15338761415E+02  0.63250798107E+02  0.65086532846E+02  0.00000000000E+00 0. -1.
        -14    1    4    4    0    0  0.25608514487E+02  0.73144443391E+02  0.10583120047E+02  0.78217057239E+02  0.00000000000E+00 0.  1.
</event>
<event>
12    1  0.1050869E+000  0.1723826E+03  0.7818608E-02  0.1175476E+00
         21   -1    0    0  503  502  0.00000000000E+00  0.00000000000E+00  0.75714345961E+03  0.75714345961E+03  0.00000000000E+00 0.  1.
         21   -1    0    0  501  503 -0.00000000000E+00 -0.00000000000E+00 -0.42961950721E+02  0.42961950721E+02  0.00000000000E+00 0.  1.
          6    2    1    2  501    0  0.17454688043E+02 -0.15707693192E+02  0.23785609753E+03  0.29354676935E+03  0.17041943815E+03 0.  0.
         24    2    3    3    0    0  0.15840386848E+02  0.13934876972E+02  0.24818027786E+03  0.26176679714E+03  0.80518986029E+02 0.  0.
         -6    2    1    2    0  502 -0.17454688043E+02  0.15707693192E+02  0.47632541135E+03  0.50655864098E+03  0.17077576377E+03 0.  0.
        -24    2    5    5    0    0 -0.44384073521E+01  0.91169173367E+01  0.48312984185E+03  0.48978806664E+03  0.79844151315E+02 0.  0.
          5    1    3    3  501    0  0.16143011948E+01 -0.29642570164E+02 -0.10324180330E+02  0.31779972211E+02  0.47000000000E+01 0. -1.
        -11    1    4    4    0    0  0.10999140110E+02  0.12062772570E+02  0.30812540194E+01  0.16612817087E+02  0.00000000000E+00 0.  1.
         12    1    4    4    0    0  0.48412467377E+01  0.18721044016E+01  0.24509902384E+03  0.24515398005E+03  0.00000000000E+00 0. -1.
         -5    1    5    5    0  502 -0.13016280690E+02  0.65907758553E+01 -0.68044304928E+01  0.16770574341E+02  0.47000000000E+01 0.  1.
         11    1    6    6    0    0 -0.22284482299E+02  0.38780864313E+02  0.23073860421E+03  0.23503373601E+03  0.00000000000E+00 0. -1.
        -12    1    6    6    0    0  0.17846074947E+02 -0.29663946977E+02  0.25239123764E+03  0.25475433063E+03  0.00000000000E+00 0.  1.
</event>
<event>
12    1  0.1050869E+000  0.1848466E+03  0.7818608E-02  0.1163513E+00
         21   -1    0    0  503  502  0.00000000000E+00  0.00000000000E+00  0.26320531845E+03  0.26320531845E+03  0.00000000000E+00 0. -1.
         21   -1    0    0  501  503 -0.00000000000E+00 -0.00000000000E+00 -0.23669426482E+03  0.23669426482E+03  0.00000000000E+00 0. -1.
          6    2    1    2  501    0  0.12001006756E+02 -0.59271124688E+02  0.18199077820E+03  0.25940107598E+03  0.17467451012E+03 0.  0.
         24    2    3    3    0    0  0.51282259814E+02 -0.24947788078E+01  0.44626573275E+02  0.10559085171E+03  0.80757679700E+02 0.  0.
         -6    2    1    2    0  502 -0.12001006756E+02  0.59271124688E+02 -0.15547972458E+03  0.24049850729E+03  0.17322960737E+03 0.  0.
        -24    2    5    5    0    0  0.10347748103E+02 -0.29237729740E+02 -0.42433826696E+02  0.95120554413E+02  0.79280322228E+02 0.  0.
          5    1    3    3  501    0 -0.39281253058E+02 -0.56776345880E+02  0.13736420493E+03  0.15381022427E+03  0.47000000000E+01 0. -1.
        -13    1    4    4    0    0  0.58628404657E+02 -0.25099688164E+02  0.50217924267E+02  0.81173419888E+02  0.00000000000E+00 0.  1.
         14    1    4    4    0    0 -0.73461448438E+01  0.22604909356E+02 -0.55913509922E+01  0.24417431826E+02  0.00000000000E+00 0. -1.
         -5    1    5    5    0  502 -0.22348754859E+02  0.88508854428E+02 -0.11304589788E+03  0.14537795288E+03  0.47000000000E+01 0.  1.
         11    1    6    6    0    0 -0.29194912422E+02 -0.21700510684E+02 -0.41041166176E+02  0.54841885419E+02  0.00000000000E+00 0. -1.
        -12    1    6    6    0    0  0.39542660526E+02 -0.75372190566E+01 -0.13926605204E+01  0.40278668993E+02  0.00000000000E+00 0.  1.
</event>
<event>
12    1  0.1050869E+000  0.1740815E+03  0.7818608E-02  0.1173897E+00
         21   -1    0    0  501  502  0.00000000000E+00  0.00000000000E+00  0.99285642447E+02  0.99285642447E+02  0.00000000000E+00 0. -1.
         21   -1    0    0  502  503 -0.00000000000E+00 -0.00000000000E+00 -0.12671521314E+04  0.12671521314E+04  0.00000000000E+00 0. -1.
         -6    2    1    2    0  503  0.17114109692E+02 -0.20885279021E+02  0.11471229950E+02  0.17445908044E+03  0.17197469000E+03 0.  0.
        -24    2    3    3    0    0  0.33115381113E+02  0.24316732938E+02  0.59106280039E+02  0.10670621653E+03  0.78770123385E+02 0.  0.
          6    2    1    2  501    0 -0.17114109692E+02  0.20885279021E+02 -0.11793377189E+04  0.11919786934E+04  0.17101655671E+03 0.  0.
         24    2    5    5    0    0 -0.25674184050E+02  0.37338432300E+02 -0.11632564920E+04  0.11669851546E+04  0.81457734640E+02 0.  0.
          5    1    5    5  501    0  0.85600743575E+01 -0.16453153279E+02 -0.16081226944E+02  0.24993538882E+02  0.47000000000E+01 0. -1.
        -11    1    6    6    0    0  0.10063206873E+02  0.38967647993E+02 -0.26711831701E+03  0.27013319124E+03  0.00000000000E+00 0.  1.
         12    1    6    6    0    0 -0.35737390923E+02 -0.16292156932E+01 -0.89613817498E+03  0.89685196332E+03  0.00000000000E+00 0. -1.
         -5    1    3    3    0  503 -0.16001271420E+02 -0.45202011959E+02 -0.47635050088E+02  0.67752863918E+02  0.47000000000E+01 0.  1.
         13    1    4    4    0    0 -0.81970565887E+01  0.30351129434E+02  0.56765353641E+02  0.64889815601E+02  0.00000000000E+00 0. -1.
        -14    1    4    4    0    0  0.41312437701E+02 -0.60343964962E+01  0.23409263974E+01  0.41816400925E+02  0.00000000000E+00 0.  1.
</event>
<event>
12    1  0.1050869E+000  0.2483778E+03  0.7818608E-02  0.1114535E+00
         21   -1    0    0  503  502  0.00000000000E+00  0.00000000000E+00  0.56824933727E+03  0.56824933727E+03  0.00000000000E+00 0.  1.
         21   -1    0    0  501  503 -0.00000000000E+00 -0.00000000000E+00 -0.17862139148E+03  0.17862139148E+03  0.00000000000E+00 0.  1.
          6    2    1    2  501    0 -0.16748982122E+03  0.65666730168E+02  0.42989742141E+03  0.49649101384E+03  0.17125003423E+03 0.  0.
         24    2    3    3    0    0 -0.20424906866E+02 -0.63371239708E+01  0.17564859523E+03  0.19403903475E+03  0.79632794985E+02 0.  0.
         -6    2    1    2    0  502  0.16748982122E+03 -0.65666730168E+02 -0.40269475617E+02  0.25037971491E+03  0.16942081132E+03 0.  0.
        -24    2    5    5    0    0  0.19327369242E+03 -0.68882958631E+02 -0.31536129674E+02  0.22256760476E+03  0.80263497594E+02 0.  0.
          5    1    3    3  501    0 -0.14706491435E+03  0.72003854139E+02  0.25424882618E+03  0.30245197910E+03  0.47000000000E+01 0. -1.
        -11    1    4    4    0    0 -0.49044713594E+02 -0.12601192334E+02  0.86871296570E+02  0.10055245471E+03  0.00000000000E+00 0.  1.
         12    1    4    4    0    0  0.28619806728E+02  0.62640683627E+01  0.88777298663E+02  0.93486580039E+02  0.00000000000E+00 0. -1.
         -5    1    5    5    0  502 -0.25783871195E+02  0.32162284632E+01 -0.87333459430E+01  0.27812110145E+02  0.47000000000E+01 0.  1.
         11    1    6    6    0    0  0.11751191906E+03 -0.81525578013E+02 -0.13421046066E+02  0.14365095011E+03  0.00000000000E+00 0. -1.
        -12    1    6    6    0    0  0.75761773358E+02  0.12642619382E+02 -0.18115083608E+02  0.78916654651E+02  0.00000000000E+00 0.  1.
</event>
<event>
12    1  0.1050869E+000  0.2735640E+03  0.7818608E-02  0.1099287E+00
         21   -1    0    0  503  502  0.00000000000E+00  0.00000000000E+00  0.35254698715E+03  0.35254698715E+03  0.00000000000E+00 0. -1.
         21   -1    0    0  501  503 -0.00000000000E+00 -0.00000000000E+00 -0.21390203930E+03  0.21390203930E+03  0.00000000000E+00 0.  1.
          6    2    1    2  501    0 -0.96217293739E+02 -0.18995161163E+03  0.95218330604E+02  0.28945963782E+03  0.17140877768E+03 0.  0.
         24    2    3    3    0    0 -0.76381196637E+02 -0.20870177031E+03  0.10739802225E+03  0.25920283549E+03  0.79128115174E+02 0.  0.
         -6    2    1    2    0  502  0.96217293739E+02  0.18995161163E+03  0.43426617248E+02  0.27698938864E+03  0.17174943364E+03 0.  0.
        -24    2    5    5    0    0  0.89338419383E+02  0.17590521949E+03 -0.17871906733E+02  0.21355265569E+03  0.79757960622E+02 0.  0.
          5    1    3    3  501    0 -0.19836097102E+02  0.18750158676E+02 -0.12179691646E+02  0.30256802329E+02  0.47000000000E+01 0. -1.
        -13    1    4    4    0    0 -0.19111839831E+02 -0.23991945055E+02 -0.10844096512E+02  0.32534140198E+02  0.00000000000E+00 0.  1.
         14    1    4    4    0    0 -0.57269356806E+02 -0.18470982525E+03  0.11824211876E+03  0.22666869529E+03  0.00000000000E+00 0. -1.
         -5    1    5    5    0  502  0.68788743558E+01  0.14046392146E+02  0.61298523981E+02  0.63436732947E+02  0.47000000000E+01 0.  1.
         11    1    6    6    0    0  0.33838540102E+02  0.13156876106E+03  0.12236079066E+02  0.13640054001E+03  0.00000000000E+00 0. -1.
        -12    1    6    6    0    0  0.55499879281E+02  0.44336458427E+02 -0.30107985799E+02  0.77152115687E+02  0.00000000000E+00 0.  1.
</event>
<event>
12    1  0.1050869E+000  0.2375626E+03  0.7818608E-02  0.1121589E+00
         21   -1    0    0  503  502  0.00000000000E+00  0.00000000000E+00  0.76641948101E+02  0.76641948101E+02  0.00000000000E+00 0. -1.
         21   -1    0    0  501  503 -0.00000000000E+00 -0.00000000000E+00 -0.91141488678E+03  0.91141488678E+03  0.00000000000E+00 0. -1.
          6    2    1    2  501    0  0.16500060296E+03 -0.16262716355E+02 -0.19973155655E+03  0.31036865069E+03  0.17013620935E+03 0.  0.
         24    2    3    3    0    0  0.18945359668E+03 -0.20402674128E+02 -0.16271618695E+03  0.26556557336E+03  0.87974893304E+02 0.  0.
         -6    2    1    2    0  502 -0.16500060296E+03  0.16262716355E+02 -0.63504138214E+03  0.67768818419E+03  0.16880178627E+03 0.  0.
        -24    2    5    5    0    0 -0.16473386454E+03  0.34268750363E+02 -0.63210151140E+03  0.65884617660E+03  0.78831277644E+02 0.  0.
          5    1    3    3  501    0 -0.24452993719E+02  0.41399577735E+01 -0.37015369598E+02  0.44803077335E+02  0.47000000000E+01 0. -1.
        -13    1    4    4    0    0  0.50177133100E+02 -0.25004513961E+02 -0.95756168260E+02  0.11096041711E+03  0.00000000000E+00 0.  1.
         14    1    4    4    0    0  0.13927646358E+03  0.46018398327E+01 -0.66960018688E+02  0.15460515625E+03  0.00000000000E+00 0. -1.
         -5    1    5    5    0  502 -0.26673841570E+00 -0.18006034008E+02 -0.29398707402E+01  0.18842007591E+02  0.47000000000E+01 0.  1.
         13    1    6    6    0    0 -0.53593368851E+02  0.37272513561E+02 -0.34189257939E+03  0.34806899502E+03  0.00000000000E+00 0. -1.
        -14    1    6    6    0    0 -0.11114049569E+03 -0.30037631976E+01 -0.29020893200E+03  0.31077718158E+03  0.00000000000E+00 0.  1.
</event>
<event>
12    1  0.1050869E+000  0.2365074E+03  0.7818608E-02  0.1122150E+00
         21   -1    0    0  503  502  0.00000000000E+00  0.00000000000E+00  0.36779732725E+02  0.36779732725E+02  0.00000000000E+00 0.  1.
         21   -1    0    0  501  503 -0.00000000000E+00 -0.00000000000E+00 -0.17485861988E+04  0.17485861988E+04  0.00000000000E+00 0.  1.
          6    2    1    2  501    0 -0.13128513038E+03 -0.94622533225E+02 -0.11783740747E+04  0.12018740458E+04  0.17247188989E+03 0.  0.
         24    2    3    3    0    0 -0.10368327251E+03 -0.35585959660E+02 -0.10408766124E+04  0.10496412579E+04  0.79410745597E+02 0.  0.
         -6    2    1    2    0  502  0.13128513038E+03  0.94622533225E+02 -0.53343239131E+03  0.58349188566E+03  0.17240491662E+03 0.  0.
        -24    2    5    5    0    0  0.12873629905E+03  0.11679022184E+03 -0.35275154319E+03  0.40137774058E+03  0.80358252839E+02 0.  0.
          5    1    3    3  501    0 -0.27601857874E+02 -0.59036573565E+02 -0.13749746235E+03  0.15223278795E+03  0.47000000000E+01 0. -1.
        -11    1    4    4    0    0 -0.60319698087E+02  0.13625934420E+02 -0.32992839281E+03  0.33567376491E+03  0.00000000000E+00 0.  1.
         12    1    4    4    0    0 -0.43363574418E+02 -0.49211894080E+02 -0.71094821957E+03  0.71396749297E+03  0.00000000000E+00 0. -1.
         -5    1    5    5    0  502  0.25488313311E+01 -0.22167688615E+02 -0.18068084812E+03  0.18211414508E+03  0.47000000000E+01 0.  1.
         13    1    6    6    0    0  0.13929749566E+03  0.10929906376E+03 -0.33922086727E+03  0.38264980652E+03  0.00000000000E+00 0. -1.
        -14    1    6    6    0    0 -0.10561196615E+02  0.74911580841E+01 -0.13530675920E+02  0.18727934062E+02  0.00000000000E+00 0.  1.
</event>
<event>
12    1  0.1050869E+000  0.1836275E+03  0.7818608E-02  0.1164652E+00
         21   -1    0    0  503  502  0.00000000000E+00  0.00000000000E+00  0.19182630643E+03  0.19182630643E+03  0.00000000000E+00 0.  1.
         21   -1    0    0  501  503 -0.00000000000E+00 -0.00000000000E+00 -0.17692540421E+03  0.17692540421E+03  0.00000000000E+00 0.  1.
          6    2    1    2  501    0 -0.28342499641E+02  0.55678753077E+02  0.29015542776E+02  0.18590574743E+03  0.17267201388E+03 0.  0.
         24    2    3    3    0    0  0.19522719176E+02 -0.26659855139E+02 -0.11174962603E+01  0.85901669432E+02  0.79284068850E+02 0.  0.
         -6    2    1    2    0  502  0.28342499641E+02 -0.55678753077E+02 -0.14114640558E+02  0.18284596321E+03  0.17126004307E+03 0.  0.
        -24    2    5    5    0    0  0.42483669315E+01 -0.96039142629E+02  0.16639061358E+02  0.12647781211E+03  0.80487347179E+02 0.  0.
          5    1    3    3  501    0 -0.47865218817E+02  0.82338608216E+02  0.30133039036E+02  0.10000407800E+03  0.47000000000E+01 0. -1.
        -13    1    4    4    0    0  0.44771399431E+02 -0.14921463215E+01  0.14353431122E+02  0.47039618330E+02  0.00000000000E+00 0.  1.
         14    1    4    4    0    0 -0.25248680256E+02 -0.25167708817E+02 -0.15470927383E+02  0.38862051102E+02  0.00000000000E+00 0. -1.
         -5    1    5    5    0  502  0.24094132710E+02  0.40360389552E+02 -0.30753701917E+02  0.56368151091E+02  0.47000000000E+01 0.  1.
         13    1    6    6    0    0  0.91547821006E+01  0.10590254450E+02  0.13860154942E+02  0.19699426886E+02  0.00000000000E+00 0. -1.
        -14    1    6    6    0    0 -0.49064151691E+01 -0.10662939708E+03  0.27789064164E+01  0.10677838523E+03  0.00000000000E+00 0.  1.
</event>
<event>
12    1  0.1050869E+000  0.2599249E+03  0.7818608E-02  0.1107198E+00
         21   -1    0    0  503  502  0.00000000000E+00  0.00000000000E+00  0.30774495590E+03  0.30774495590E+03  0.00000000000E+00 0.  1.
         21   -1    0    0  501  503 -0.00000000000E+00 -0.00000000000E+00 -0.24514527925E+03  0.24514527925E+03  0.00000000000E+00 0.  1.
          6    2    1    2  501    0  0.11512257276E+03  0.15757642858E+03 -0.58148508412E+02  0.26628756715E+03  0.17159336173E+03 0.  0.
         24    2    3    3    0    0 -0.86250014839E+01  0.71896922273E+02 -0.82988430408E+01  0.10766373834E+03  0.79240467401E+02 0.  0.
         -6    2    1    2    0  502 -0.11512257276E+03 -0.15757642858E+03  0.12074818507E+03  0.28660266799E+03  0.17168991672E+03 0.  0.
        -24    2    5    5    0    0 -0.38651891633E+02 -0.10666833575E+03  0.39318134438E+01  0.13791657697E+03  0.78316157116E+02 0.  0.
          5    1    3    3  501    0  0.12374757424E+03  0.85679506304E+02 -0.49849665371E+02  0.15862382882E+03  0.47000000000E+01 0. -1.
        -13    1    4    4    0    0  0.30351451314E+02  0.54154322856E+02 -0.16101499940E+02  0.64133919116E+02  0.00000000000E+00 0.  1.
         14    1    4    4    0    0 -0.38976452798E+02  0.17742599417E+02  0.78026568992E+01  0.43529819221E+02  0.00000000000E+00 0. -1.
         -5    1    5    5    0  502 -0.76470681123E+02 -0.50908092823E+02  0.11681637162E+03  0.14868609103E+03  0.47000000000E+01 0.  1.
         13    1    6    6    0    0  0.11040490100E+02 -0.27997650972E+02  0.28741513458E+02  0.41615327434E+02  0.00000000000E+00 0. -1.
        -14    1    6    6    0    0 -0.49692381733E+02 -0.78670684782E+02 -0.24809700014E+02  0.96301249531E+02  0.00000000000E+00 0.  1.
</event>
<event>
12    1  0.1050869E+000  0.3528856E+03  0.7818608E-02  0.1061700E+00
         21   -1    0    0  501  502  0.00000000000E+00  0.00000000000E+00  0.72556868087E+03  0.72556868087E+03  0.00000000000E+00 0. -1.
         21   -1    0    0  502  503 -0.00000000000E+00 -0.00000000000E+00 -0.18380960591E+03  0.18380960591E+03  0.00000000000E+00 0. -1.
         -6    2    1    2    0  503 -0.27479275668E+03 -0.13688829162E+03  0.14887394457E+03  0.38300350706E+03  0.17400796403E+03 0.  0.
        -24    2    3    3    0    0 -0.13957450923E+03 -0.96414602522E+02  0.16947340072E+02  0.18974509735E+03  0.83301683208E+02 0.  0.
          6    2    1    2  501    0  0.27479275668E+03  0.13688829162E+03  0.39288513038E+03  0.52637477972E+03  0.16870749700E+03 0.  0.
         24    2    5    5    0    0  0.41116409036E+02  0.46834574854E+02  0.12856418089E+03  0.16222925704E+03  0.76847555179E+02 0.  0.
          5    1    5    5  501    0  0.23367634764E+03  0.90053716761E+02  0.26432094950E+03  0.36414552268E+03  0.47000000000E+01 0. -1.
        -13    1    6    6    0    0  0.19285521104E+02  0.65968167061E+02  0.78307024087E+02  0.10419078851E+03  0.00000000000E+00 0.  1.
         14    1    6    6    0    0  0.21830887932E+02 -0.19133592207E+02  0.50257156802E+02  0.58038468522E+02  0.00000000000E+00 0. -1.
         -5    1    3    3    0  503 -0.13521824744E+03 -0.40473689093E+02  0.13192660450E+03  0.19325840971E+03  0.47000000000E+01 0.  1.
         13    1    4    4    0    0 -0.60010897644E+02 -0.98007961291E+00  0.25477221778E+02  0.65202432635E+02  0.00000000000E+00 0. -1.
        -14    1    4    4    0    0 -0.79563611591E+02 -0.95434522909E+02 -0.85298817060E+01  0.12454266471E+03  0.00000000000E+00 0.  1.
</event>
<event>
12    1  0.1050869E+000  0.1782405E+03  0.7818608E-02  0.1170777E+00
         21   -1    0    0  503  502  0.00000000000E+00  0.00000000000E+00  0.40278436435E+03  0.40278436435E+03  0.00000000000E+00 0.  1.
         21   -1    0    0  501  503 -0.00000000000E+00 -0.00000000000E+00 -0.84195674317E+02  0.84195674317E+02  0.00000000000E+00 0.  1.
          6    2    1    2  501    0 -0.24452280853E+02  0.40670046662E+02  0.84319109547E+02  0.19261309352E+03  0.16654766533E+03 0.  0.
         24    2    3    3    0    0 -0.42611121922E+02 -0.13336885024E+02  0.97064135147E+02  0.13403820251E+03  0.80939565030E+02 0.  0.
         -6    2    1    2    0  502  0.24452280853E+02 -0.40670046662E+02  0.23426958048E+03  0.29436694514E+03  0.17180714572E+03 0.  0.
        -24    2    5    5    0    0 -0.38153707537E+02 -0.59305496634E+02  0.16389606196E+03  0.19823520279E+03  0.86385352760E+02 0.  0.
          5    1    3    3  501    0  0.18158841069E+02  0.54006931686E+02 -0.12745025600E+02  0.58574891008E+02  0.47000000000E+01 0. -1.
        -11    1    4    4    0    0 -0.28770696656E+02 -0.41184610537E+02  0.26220043012E+02  0.56669354917E+02  0.00000000000E+00 0.  1.
         12    1    4    4    0    0 -0.13840425265E+02  0.27847725512E+02  0.70844092135E+02  0.77368847595E+02  0.00000000000E+00 0. -1.
         -5    1    5    5    0  502  0.62605988389E+02  0.18635449972E+02  0.70373518527E+02  0.96131742353E+02  0.47000000000E+01 0.  1.
         11    1    6    6    0    0  0.99483497142E+01 -0.56935860630E+02  0.57900826662E+02  0.81811781644E+02  0.00000000000E+00 0. -1.
        -12    1    6    6    0    0 -0.48102057251E+02 -0.23696360035E+01  0.10599523529E+03  0.11642342115E+03  0.00000000000E+00 0.  1.
</event>
<event>
12    1  0.1050869E+000  0.2279722E+03  0.7818608E-02  0.1128150E+00
         21   -1    0    0  501  502  0.00000000000E+00  0.00000000000E+00  0.13609530871E+03  0.13609530871E+03  0.00000000000E+00 0. -1.
         21   -1    0    0  502  503 -0.00000000000E+00 -0.00000000000E+00 -0.39650137131E+03  0.39650137131E+03  0.00000000000E+00 0. -1.
         -6    2    1    2    0  503 -0.51684493049E+02 -0.14088525346E+03 -0.18268725733E+03  0.29214028053E+03  0.17161400891E+03 0.  0.
        -24    2    3    3    0    0 -0.97657548404E+02 -0.96170922211E+02 -0.15673084632E+03  0.22279535635E+03  0.79292935254E+02 0.  0.
          6    2    1    2  501    0  0.51684493049E+02  0.14088525346E+03 -0.77718805274E+02  0.24045639949E+03  0.17105299149E+03 0.  0.
         24    2    5    5    0    0  0.32258667895E+02  0.72968918582E+01 -0.11535522519E+01  0.85190366471E+02  0.78499691538E+02 0.  0.
          5    1    5    5  501    0  0.19425825154E+02  0.13358836160E+03 -0.76565253022E+02  0.15526603302E+03  0.47000000000E+01 0. -1.
        -13    1    6    6    0    0  0.48342799854E+02  0.11485819087E+02  0.23890005430E+02  0.55133317488E+02  0.00000000000E+00 0.  1.
         14    1    6    6    0    0 -0.16084131959E+02 -0.41889272286E+01 -0.25043557681E+02  0.30057048983E+02  0.00000000000E+00 0. -1.
         -5    1    3    3    0  503  0.45973055355E+02 -0.44714331251E+02 -0.25956411003E+02  0.69344924184E+02  0.47000000000E+01 0.  1.
         13    1    4    4    0    0 -0.26891160783E+02 -0.18238954361E+02  0.17488743300E+01  0.32540014534E+02  0.00000000000E+00 0. -1.
        -14    1    4    4    0    0 -0.70766387620E+02 -0.77931967850E+02 -0.15847972065E+03  0.19025534181E+03  0.00000000000E+00 0.  1.
</event>
<event>
12    1  0.1050869E+000  0.2838556E+03  0.7818608E-02  0.1093656E+00
         21   -1    0    0  501  502  0.00000000000E+00  0.00000000000E+00  0.19880137531E+03  0.19880137531E+03  0.00000000000E+00 0. -1.
         21   -1    0    0  502  503 -0.00000000000E+00 -0.00000000000E+00 -0.65260678186E+03  0.65260678186E+03  0.00000000000E+00 0.  1.
         -6    2    1    2    0  503 -0.11567952995E+03 -0.19351642121E+03  0.35564120858E+02  0.28567274009E+03  0.17179566004E+03 0.  0.
        -24    2    3    3    0    0 -0.26831653070E+02 -0.51763741064E+02 -0.35891455058E+02  0.10369538742E+03  0.77878843921E+02 0.  0.
          6    2    1    2  501    0  0.11567952995E+03  0.19351642121E+03 -0.48936952740E+03  0.56573541708E+03  0.17246352907E+03 0.  0.
         24    2    5    5    0    0 -0.23175644183E+01  0.11142879395E+03 -0.27831021926E+03  0.31033413599E+03  0.80180737025E+02 0.  0.
          5    1    5    5  501    0  0.11799709436E+03  0.82087627258E+02 -0.21105930815E+03  0.25540128109E+03  0.47000000000E+01 0.  1.
        -11    1    6    6    0    0 -0.43679991897E+01  0.74216539912E+02 -0.82697306348E+02  0.11120260200E+03  0.00000000000E+00 0.  1.
         12    1    6    6    0    0  0.20504347714E+01  0.37212254042E+02 -0.19561291291E+03  0.19913153399E+03  0.00000000000E+00 0. -1.
         -5    1    3    3    0  503 -0.88847876876E+02 -0.14175268015E+03  0.71455575916E+02  0.18197735267E+03  0.47000000000E+01 0.  1.
         11    1    4    4    0    0  0.17428583718E+02 -0.37882473446E+02 -0.39146758264E+02  0.57195332042E+02  0.00000000000E+00 0. -1.
        -12    1    4    4    0    0 -0.44260236787E+02 -0.13881267618E+02  0.32553032057E+01  0.46500055378E+02  0.00000000000E+00 0.  1.
</event>
<event>
12    1  0.1050869E+000  0.1775185E+03  0.7818608E-02  0.1170903E+00
         21   -1    0    0  501  502  0.00000000000E+00  0.00000000000E+00  0.31504659325E+03  0.31504659325E+03  0.00000000000E+00 0.  1.
         21   -1    0    0  502  503 -0.00000000000E+00 -0.00000000000E+00 -0.11140289301E+03  0.11140289301E+03  0.00000000000E+00 0.  1.
         -6    2    1    2    0  503  0.36493974567E+01 -0.33385362764E+02  0.17509243042E+03  0.24933948897E+03  0.17431271045E+03 0.  0.
        -24    2    3    3    0    0  0.67744874811E+01 -0.16695640203E+02  0.20416154710E+03  0.21534806988E+03  0.66092479168E+02 0.  0.
          6    2    1    2  501    0 -0.36493974567E+01  0.33385362764E+02  0.28551269833E+02  0.17710999729E+03  0.17153680532E+03 0.  0.
         24    2    5    5    0    0  0.64125043072E+02  0.10198275428E+02  0.28327098494E+02  0.10532451086E+03  0.77941016860E+02 0.  0.
          5    1    5    5  501    0 -0.67774440528E+02  0.23187087336E+02  0.22417133915E+00  0.71785486422E+02  0.47000000000E+01 0. -1.
        -13    1    6    6    0    0  0.29826670758E+02  0.86151469270E+01  0.54112053064E+02  0.62385617989E+02  0.00000000000E+00 0.  1.
         14    1    6    6    0    0  0.34298372314E+02  0.15831285014E+01 -0.25784954570E+02  0.42938892876E+02  0.00000000000E+00 0. -1.
         -5    1    3    3    0  503 -0.31250900245E+01 -0.16689722561E+02 -0.29069116689E+02  0.33991419093E+02  0.47000000000E+01 0.  1.
         11    1    4    4    0    0 -0.23509524307E+02 -0.23043230408E+02  0.14377633772E+03  0.14749685925E+03  0.00000000000E+00 0. -1.
        -12    1    4    4    0    0  0.30284011788E+02  0.63475902050E+01  0.60385209381E+02  0.67851210625E+02  0.00000000000E+00 0.  1.
</event>
<event>
12    1  0.1050869E+000  0.3934060E+03  0.7818608E-02  0.1046157E+00
         21   -1    0    0  503  502  0.00000000000E+00  0.00000000000E+00  0.11461259123E+04  0.11461259123E+04  0.00000000000E+00 0.  1.
         21   -1    0    0  501  503 -0.00000000000E+00 -0.00000000000E+00 -0.14714153635E+03  0.14714153635E+03  0.00000000000E+00 0.  1.
          6    2    1    2  501    0 -0.28821153363E+03  0.20434774753E+03  0.68749210844E+03  0.79209448190E+03  0.17304444240E+03 0.  0.
         24    2    3    3    0    0 -0.19571710207E+03  0.98417883424E+02  0.54080814592E+03  0.58883447393E+03  0.79128523113E+02 0.  0.
         -6    2    1    2    0  502  0.28821153363E+03 -0.20434774753E+03  0.31149226748E+03  0.50117296673E+03  0.17123965616E+03 0.  0.
        -24    2    5    5    0    0  0.30550532932E+03 -0.18616741149E+03  0.29876834335E+03  0.47264949862E+03  0.78378659151E+02 0.  0.
          5    1    3    3  501    0 -0.92494431557E+02  0.10592986411E+03  0.14668396252E+03  0.20326000797E+03  0.47000000000E+01 0. -1.
        -11    1    4    4    0    0 -0.18862838185E+03  0.76288085518E+02  0.43127243542E+03  0.47686104054E+03  0.00000000000E+00 0.  1.
         12    1    4    4    0    0 -0.70887202222E+01  0.22129797906E+02  0.10953571050E+03  0.11197343339E+03  0.00000000000E+00 0. -1.
         -5    1    5    5    0  502 -0.17293795691E+02 -0.18180336041E+02  0.12723924132E+02  0.28523468115E+02  0.47000000000E+01 0.  1.
         11    1    6    6    0    0  0.23347606032E+03 -0.15381809575E+03  0.18918717992E+03  0.33758386568E+03  0.00000000000E+00 0. -1.
        -12    1    6    6    0    0  0.72029269002E+02 -0.32349315738E+02  0.10958116343E+03  0.13506563293E+03  0.00000000000E+00 0.  1.
</event>
<event>
12    1  0.1050869E+000  0.2494983E+03  0.7818608E-02  0.1113908E+00
         21   -1    0    0  501  502  0.00000000000E+00  0.00000000000E+00  0.43144908959E+03  0.43144908959E+03  0.00000000000E+00 0.  1.
         21   -1    0    0  502  503 -0.00000000000E+00 -0.00000000000E+00 -0.14421431428E+03  0.14421431428E+03  0.00000000000E+00 0.  1.
         -6    2    1    2    0  503  0.97056063667E+02  0.14956027780E+03  0.12049732172E+03  0.27707222647E+03  0.17453153854E+03 0.  0.
        -24    2    3    3    0    0  0.87591503530E+02  0.25437548038E+02  0.84892677262E+02  0.14751216067E+03  0.78953977427E+02 0.  0.
          6    2    1    2  501    0 -0.97056063667E+02 -0.14956027780E+03  0.16673745359E+03  0.29859117740E+03  0.17195102967E+03 0.  0.
         24    2    5    5    0    0  0.91440023344E+01 -0.10542764010E+03  0.78028516652E+02  0.15327253021E+03  0.78774482103E+02 0.  0.
          5    1    5    5  501    0 -0.10620006600E+03 -0.44132637696E+02  0.88708936939E+02  0.14531864719E+03  0.47000000000E+01 0. -1.
        -13    1    6    6    0    0  0.96500985191E+01  0.19566507821E+01 -0.10283807421E+02  0.14237611414E+02  0.00000000000E+00 0.  1.
         14    1    6    6    0    0 -0.50609618470E+00 -0.10738429089E+03  0.88312324073E+02  0.13903491880E+03  0.00000000000E+00 0. -1.
         -5    1    3    3    0  503  0.94645601366E+01  0.12412272976E+03  0.35604644458E+02  0.12956006580E+03  0.47000000000E+01 0.  1.
         11    1    4    4    0    0  0.44677369031E+02  0.10723772028E+02  0.90799698312E+02  0.10176272306E+03  0.00000000000E+00 0. -1.
        -12    1    4    4    0    0  0.42914134499E+02  0.14713776010E+02 -0.59070210501E+01  0.45749437613E+02  0.00000000000E+00 0.  1.
</event>
<event>
12    1  0.1050869E+000  0.6185092E+03  0.7818608E-02  0.9867808E-01
         21   -1    0    0  501  502  0.00000000000E+00  0.00000000000E+00  0.17670724649E+03  0.17670724649E+03  0.00000000000E+00 0.  1.
         21   -1    0    0  502  503 -0.00000000000E+00 -0.00000000000E+00 -0.21643767691E+04  0.21643767691E+04  0.00000000000E+00 0.  1.
         -6    2    1    2    0  503 -0.59253973711E+03 -0.44264412516E+02 -0.99160965765E+03  0.11686127387E+04  0.17118218824E+03 0.  0.
        -24    2    3    3    0    0 -0.50796674391E+03 -0.81362266378E+02 -0.81934966313E+03  0.97310202886E+03  0.10461193424E+03 0.  0.
          6    2    1    2  501    0  0.59253973711E+03  0.44264412516E+02 -0.99605986501E+03  0.11724712770E+04  0.17172932873E+03 0.  0.
         24    2    5    5    0    0  0.26449219165E+03 -0.10761419817E+02 -0.35422074334E+03  0.44954487517E+03  0.80909407213E+02 0.  0.
          5    1    5    5  501    0  0.32804754546E+03  0.55025832333E+02 -0.64183912167E+03  0.72292640180E+03  0.47000000000E+01 0. -1.
        -11    1    6    6    0    0  0.13645725243E+03  0.30229881964E+02 -0.14977187203E+03  0.20485614747E+03  0.00000000000E+00 0.  1.
         12    1    6    6    0    0  0.12803493922E+03 -0.40991301781E+02 -0.20444887131E+03  0.24468872770E+03  0.00000000000E+00 0. -1.
         -5    1    3    3    0  503 -0.84572993202E+02  0.37097853862E+02 -0.17225999452E+03  0.19551070981E+03  0.47000000000E+01 0.  1.
         13    1    4    4    0    0 -0.11355103035E+03 -0.13477549649E+02 -0.27186719801E+03  0.29493601711E+03  0.00000000000E+00 0. -1.
        -14    1    4    4    0    0 -0.39441571356E+03 -0.67884716729E+02 -0.54748246512E+03  0.67816601174E+03  0.00000000000E+00 0.  1.
</event>
<event>
12    1  0.1050869E+000  0.2303203E+03  0.7818608E-02  0.1126501E+00
         21   -1    0    0  503  502  0.00000000000E+00  0.00000000000E+00  0.48355803203E+03  0.48355803203E+03  0.00000000000E+00 0. -1.
         21   -1    0    0  501  503 -0.00000000000E+00 -0.00000000000E+00 -0.10976918998E+03  0.10976918998E+03  0.00000000000E+00 0. -1.
          6    2    1    2  501    0  0.78338151060E+02 -0.13111198040E+03  0.20262585018E+03  0.30676485760E+03  0.17239554919E+03 0.  0.
         24    2    3    3    0    0  0.24780761480E+02 -0.35405662710E+02  0.19820420707E+02  0.93532570483E+02  0.80547163654E+02 0.  0.
         -6    2    1    2    0  502 -0.78338151060E+02  0.13111198040E+03  0.17116299187E+03  0.28656236441E+03  0.17173817745E+03 0.  0.
        -24    2    5    5    0    0  0.10389254082E+02  0.55400542506E+02  0.25646393903E+02  0.10000957152E+03  0.78530377341E+02 0.  0.
          5    1    3    3  501    0  0.53557389580E+02 -0.95706317689E+02  0.18280542947E+03  0.21323228712E+03  0.47000000000E+01 0. -1.
        -13    1    4    4    0    0  0.34432214235E+02  0.13781012016E+02  0.22425159884E+02  0.43340298397E+02  0.00000000000E+00 0.  1.
         14    1    4    4    0    0 -0.96514527556E+01 -0.49186674726E+02 -0.26047391771E+01  0.50192272086E+02  0.00000000000E+00 0. -1.
         -5    1    5    5    0  502 -0.88727405142E+02  0.75711437894E+02  0.14551659796E+03  0.18655279289E+03  0.47000000000E+01 0.  1.
         13    1    6    6    0    0 -0.15929461981E+00  0.73152699058E+02  0.94395806925E+01  0.73759395591E+02  0.00000000000E+00 0. -1.
        -14    1    6    6    0    0  0.10548548701E+02 -0.17752156552E+02  0.16206813211E+02  0.26250175931E+02  0.00000000000E+00 0.  1.
</event>
<event>
12    1  0.1050869E+000  0.2390381E+03  0.7818608E-02  0.1120525E+00
         21   -1    0    0  503  502  0.00000000000E+00  0.00000000000E+00  0.44447952230E+03  0.44447952230E+03  0.00000000000E+00 0.  1.
         21   -1    0    0  501  503 -0.00000000000E+00 -0.00000000000E+00 -0.13472031772E+03  0.13472031772E+03  0.00000000000E+00 0.  1.
          6    2    1    2  501    0 -0.87994620876E+02  0.14048863850E+03  0.21842861493E+03  0.32380595197E+03  0.17221824486E+03 0.  0.
         24    2    3    3    0    0 -0.10773328095E+03  0.11081414524E+03  0.22639110471E+03  0.28698637164E+03  0.84982413515E+02 0.  0.
         -6    2    1    2    0  502  0.87994620876E+02 -0.14048863850E+03  0.91330589652E+02  0.25539388806E+03  0.17147784288E+03 0.  0.
        -24    2    5    5    0    0  0.94295795417E+02 -0.50091826110E+02  0.98736085161E+02  0.16435422717E+03  0.76567678547E+02 0.  0.
          5    1    3    3  501    0  0.19738660079E+02  0.29674493261E+02 -0.79624897806E+01  0.36819580328E+02  0.47000000000E+01 0. -1.
        -11    1    4    4    0    0 -0.43953153099E+01  0.36725658747E+02  0.10447457700E+03  0.11082883220E+03  0.00000000000E+00 0.  1.
         12    1    4    4    0    0 -0.10333796564E+03  0.74088486495E+02  0.12191652771E+03  0.17615753944E+03  0.00000000000E+00 0. -1.
         -5    1    5    5    0  502 -0.63011745409E+01 -0.90396812393E+02 -0.74054955093E+01  0.91039660891E+02  0.47000000000E+01 0.  1.
         11    1    6    6    0    0  0.14553410911E+02 -0.49250236984E+02  0.33411503499E+02  0.61267578524E+02  0.00000000000E+00 0. -1.
        -12    1    6    6    0    0  0.79742384506E+02 -0.84158912591E+00  0.65324581662E+02  0.10308664864E+03  0.00000000000E+00 0.  1.
</event>
<event>
12    1  0.1050869E+000  0.1932901E+03  0.7818608E-02  0.1156027E+00
         21   -1    0    0  503  502  0.00000000000E+00  0.00000000000E+00  0.28818474939E+03  0.28818474939E+03  0.00000000000E+00 0.  1.
         21   -1    0    0  501  503 -0.00000000000E+00 -0.00000000000E+00 -0.13597670364E+03  0.13597670364E+03  0.00000000000E+00 0.  1.
          6    2    1    2  501    0  0.83172838088E+02 -0.25940895108E+02  0.25596081782E+02  0.19497746329E+03  0.17254101180E+03 0.  0.
         24    2    3    3    0    0  0.13014725073E+02 -0.47269089615E+02 -0.35122688244E+02  0.99657414316E+02  0.79336291172E+02 0.  0.
         -6    2    1    2    0  502 -0.83172838088E+02  0.25940895108E+02  0.12661196397E+03  0.22918398974E+03  0.17001194281E+03 0.  0.
        -24    2    5    5    0    0 -0.74219102181E+02  0.56228216562E+02  0.14632010322E+03  0.19166077053E+03  0.81573224097E+02 0.  0.
          5    1    3    3  501    0  0.70158113015E+02  0.21328194506E+02  0.60718770025E+02  0.95320048972E+02  0.47000000000E+01 0. -1.
        -11    1    4    4    0    0  0.11376591984E+02  0.60805781045E+01 -0.43730120753E+02  0.45593022891E+02  0.00000000000E+00 0.  1.
         12    1    4    4    0    0  0.16381330891E+01 -0.53349667719E+02  0.86074325091E+01  0.54064391425E+02  0.00000000000E+00 0. -1.
         -5    1    5    5    0  502 -0.89537359072E+01 -0.30287321453E+02 -0.19708139244E+02  0.37523219211E+02  0.47000000000E+01 0.  1.
         13    1    6    6    0    0  0.14198558282E+02  0.21797348523E+02  0.16295777264E+02  0.30696511472E+02  0.00000000000E+00 0. -1.
        -14    1    6    6    0    0 -0.88417660462E+02  0.34430868038E+02  0.13002432595E+03  0.16096425906E+03  0.00000000000E+00 0.  1.
</event>
<event>
12    1  0.1050869E+000  0.2087690E+03  0.7818608E-02  0.1142582E+00
         21   -1    0    0  503  502  0.00000000000E+00  0.00000000000E+00  0.40417679375E+03  0.40417679375E+03  0.00000000000E+00 0.  1.
         21   -1    0    0  501  503 -0.00000000000E+00 -0.00000000000E+00 -0.49495541553E+03  0.49495541553E+03  0.00000000000E+00 0.  1.
          6    2    1    2  501    0  0.84802594396E+02  0.79309964947E+02  0.35224399075E+03  0.40946348028E+03  0.17350205217E+03 0.  0.
         24    2    3    3    0    0  0.20993827225E+02  0.10816668938E+03  0.25714160911E+03  0.29126524718E+03  0.81073199070E+02 0.  0.
         -6    2    1    2    0  502 -0.84802594396E+02 -0.79309964947E+02 -0.44302261254E+03  0.48966872901E+03  0.17327688361E+03 0.  0.
        -24    2    5    5    0    0 -0.22054809234E+02 -0.10947708116E+03 -0.31636901804E+03  0.34506387970E+03  0.80672669413E+02 0.  0.
          5    1    3    3  501    0  0.63808767172E+02 -0.28856724438E+02  0.95102381641E+02  0.11819823310E+03  0.47000000000E+01 0. -1.
        -13    1    4    4    0    0  0.46287988196E+02  0.31306807536E+02  0.10432200263E+03  0.11834599395E+03  0.00000000000E+00 0.  1.
         14    1    4    4    0    0 -0.25294160972E+02  0.76859881848E+02  0.15281960647E+03  0.17291925323E+03  0.00000000000E+00 0. -1.
         -5    1    5    5    0  502 -0.62747785162E+02  0.30167116214E+02 -0.12665359450E+03  0.14460484930E+03  0.47000000000E+01 0.  1.
         11    1    6    6    0    0 -0.24862475827E+02 -0.69005659095E+02 -0.28354785275E+03  0.29288104836E+03  0.00000000000E+00 0. -1.
        -12    1    6    6    0    0  0.28076665923E+01 -0.40471422066E+02 -0.32821165293E+02  0.52182831342E+02  0.00000000000E+00 0.  1.
</event>
<event>
12    1  0.1050869E+000  0.2044630E+03  0.7818608E-02  0.1146151E+00
         21   -1    0    0  503  502  0.00000000000E+00  0.00000000000E+00  0.12761488104E+03  0.12761488104E+03  0.00000000000E+00 0. -1.
         21   -1    0    0  501  503 -0.00000000000E+00 -0.00000000000E+00 -0.34651627381E+03  0.34651627381E+03  0.00000000000E+00 0. -1.
          6    2    1    2  501    0 -0.10022761789E+03 -0.45026780242E+02 -0.52494162592E+02  0.21050930360E+03  0.17171355063E+03 0.  0.
         24    2    3    3    0    0 -0.14945785276E+02 -0.67969505092E+02 -0.59856380660E+02  0.12176443416E+03  0.80003506172E+02 0.  0.
         -6    2    1    2    0  502  0.10022761789E+03  0.45026780242E+02 -0.16640723018E+03  0.26362185126E+03  0.17243006663E+03 0.  0.
        -24    2    5    5    0    0  0.66639004495E+02 -0.28765073578E+02 -0.44830041040E+02  0.11741468468E+03  0.80673968668E+02 0.  0.
          5    1    3    3  501    0 -0.85281832615E+02  0.22942724849E+02  0.73622180685E+01  0.88744869444E+02  0.47000000000E+01 0. -1.
        -13    1    4    4    0    0  0.75994506242E+01 -0.10294296110E+02  0.18124862627E+02  0.22186365801E+02  0.00000000000E+00 0.  1.
         14    1    4    4    0    0 -0.22545235900E+02 -0.57675208982E+02 -0.77981243287E+02  0.99578068356E+02  0.00000000000E+00 0. -1.
         -5    1    5    5    0  502  0.33588613396E+02  0.73791853820E+02 -0.12157718914E+03  0.14620716658E+03  0.47000000000E+01 0.  1.
         13    1    6    6    0    0 -0.16300321524E+02 -0.14522185676E+02  0.48456328798E+00  0.21836418208E+02  0.00000000000E+00 0. -1.
        -14    1    6    6    0    0  0.82939326019E+02 -0.14242887902E+02 -0.45314604328E+02  0.95578266471E+02  0.00000000000E+00 0.  1.
</event>
<event>
12    1  0.1050869E+000  0.1895380E+03  0.7818608E-02  0.1159516E+00
         21   -1    0    0  501  502  0.00000000000E+00  0.00000000000E+00  0.14540183942E+03  0.14540183942E+03  0.00000000000E+00 0. -1.
         21   -1    0    0  502  503 -0.00000000000E+00 -0.00000000000E+00 -0.25421712552E+03  0.25421712552E+03  0.00000000000E+00 0. -1.
         -6    2    1    2    0  503 -0.72055895425E+02  0.28131806151E+02 -0.13663142830E+02  0.19002985803E+03  0.17303529954E+03 0.  0.
        -24    2    3    3    0    0 -0.21351585391E+01  0.67722038124E+02 -0.35439806027E+02  0.10664755190E+03  0.74343036839E+02 0.  0.
          6    2    1    2  501    0  0.72055895425E+02 -0.28131806151E+02 -0.95152143270E+02  0.20958910692E+03  0.16997121164E+03 0.  0.
         24    2    5    5    0    0  0.15400346390E+02  0.28467123423E+02 -0.27755947895E+00  0.85345126318E+02  0.78969397630E+02 0.  0.
          5    1    5    5  501    0  0.56655549035E+02 -0.56598929574E+02 -0.94874583791E+02  0.12424398060E+03  0.47000000000E+01 0. -1.
        -11    1    6    6    0    0 -0.22673947035E+02  0.38418108734E+00 -0.23487009076E+02  0.32648048404E+02  0.00000000000E+00 0.  1.
         12    1    6    6    0    0  0.38074293425E+02  0.28082942336E+02  0.23209449597E+02  0.52697077914E+02  0.00000000000E+00 0. -1.
         -5    1    3    3    0  503 -0.69920736886E+02 -0.39590231973E+02  0.21776663197E+02  0.83382306122E+02  0.47000000000E+01 0.  1.
         13    1    4    4    0    0 -0.22952875846E+02 -0.24529789020E+01 -0.22651607145E+02  0.32341102662E+02  0.00000000000E+00 0. -1.
        -14    1    4    4    0    0  0.20817717307E+02  0.70175017026E+02 -0.12788198882E+02  0.74306449243E+02  0.00000000000E+00 0.  1.
</event>
<event>
12    1  0.1050869E+000  0.1791726E+03  0.7818608E-02  0.1168806E+00
         21   -1    0    0  501  502  0.00000000000E+00  0.00000000000E+00  0.45523911169E+03  0.45523911169E+03  0.00000000000E+00 0.  1.
         21   -1    0    0  502  503 -0.00000000000E+00 -0.00000000000E+00 -0.72153242350E+02  0.72153242350E+02  0.00000000000E+00 0.  1.
         -6    2    1    2    0  503  0.49884061385E+01 -0.51443256656E+02  0.14854610130E+03  0.23274184333E+03  0.17155619654E+03 0.  0.
        -24    2    3    3    0    0 -0.51090052308E+02  0.20171538119E+02  0.35466847021E+02  0.87543771436E+02  0.58214519535E+02 0.  0.
          6    2    1    2  501    0 -0.49884061385E+01  0.51443256656E+02  0.23453976803E+03  0.29465051071E+03  0.17070069660E+03 0.  0.
         24    2    5    5    0    0 -0.16930637406E+02  0.94814427452E+02  0.12746311125E+03  0.17841292741E+03  0.79422325579E+02 0.  0.
          5    1    5    5  501    0  0.11942231268E+02 -0.43371170797E+02  0.10707665678E+03  0.11623758330E+03  0.47000000000E+01 0. -1.
        -11    1    6    6    0    0  0.50717371383E+01  0.31407778531E+02 -0.27371450228E+01  0.31932162982E+02  0.00000000000E+00 0.  1.
         12    1    6    6    0    0 -0.22002374545E+02  0.63406648922E+02  0.13020025627E+03  0.14648076443E+03  0.00000000000E+00 0. -1.
         -5    1    3    3    0  503  0.56078458446E+02 -0.71614794775E+02  0.11307925428E+03  0.14519807189E+03  0.47000000000E+01 0.  1.
         11    1    4    4    0    0 -0.82426245986E+01  0.27257481099E+02 -0.41280440190E+01  0.28774153046E+02  0.00000000000E+00 0. -1.
        -12    1    4    4    0    0 -0.42847427709E+02 -0.70859429791E+01  0.39594891040E+02  0.58769618389E+02  0.00000000000E+00 0.  1.
</event>
<event>
12    1  0.1050869E+000  0.3146888E+03  0.7818608E-02  0.1078216E+00
         21   -1    0    0  501  502  0.00000000000E+00  0.00000000000E+00  0.10141412982E+03  0.10141412982E+03  0.00000000000E+00 0.  1.
         21   -1    0    0  502  503 -0.00000000000E+00 -0.00000000000E+00 -0.11924935111E+04  0.11924935111E+04  0.00000000000E+00 0.  1.
         -6    2    1    2    0  503  0.13592936662E+03  0.22513559507E+03 -0.26799662451E+03  0.41271851650E+03  0.17132295304E+03 0.  0.
        -24    2    3    3    0    0  0.32253261870E+02  0.13514995492E+03 -0.84475311211E+02  0.18348432934E+03  0.84997868753E+02 0.  0.
          6    2    1    2  501    0 -0.13592936662E+03 -0.22513559507E+03 -0.82308275674E+03  0.88118912440E+03  0.17281845859E+03 0.  0.
         24    2    5    5    0    0 -0.11895714148E+03 -0.73009649474E+02 -0.45426878698E+03  0.48184441861E+03  0.79578279027E+02 0.  0.
          5    1    5    5  501    0 -0.16972225144E+02 -0.15212594560E+03 -0.36881396976E+03  0.39934470579E+03  0.47000000000E+01 0. -1.
        -11    1    6    6    0    0 -0.14249058479E+02  0.12312147774E+02 -0.11749178524E+03  0.11899136208E+03  0.00000000000E+00 0.  1.
         12    1    6    6    0    0 -0.10470808300E+03 -0.85321797248E+02 -0.33677700174E+03  0.36285305653E+03  0.00000000000E+00 0. -1.
         -5    1    3    3    0  503  0.10367610475E+03  0.89985640151E+02 -0.18352131330E+03  0.22923418716E+03  0.47000000000E+01 0.  1.
         13    1    4    4    0    0  0.84237285594E+01  0.12535707591E+02  0.16863215635E+02  0.22637826955E+02  0.00000000000E+00 0. -1.
        -14    1    4    4    0    0  0.23829533311E+02  0.12261424733E+03 -0.10133852685E+03  0.16084650238E+03  0.00000000000E+00 0.  1.
</event>
<event>
12    1  0.1050869E+000  0.2025481E+03  0.7818608E-02  0.1147725E+00
         21   -1    0    0  501  502  0.00000000000E+00  0.00000000000E+00  0.15804245683E+03  0.15804245683E+03  0.00000000000E+00 0.  1.
         21   -1    0    0  502  503 -0.00000000000E+00 -0.00000000000E+00 -0.27193215227E+03  0.27193215227E+03  0.00000000000E+00 0.  1.
         -6    2    1    2    0  503 -0.10296244891E+03  0.23696039328E+02 -0.98846560752E+01  0.20278915492E+03  0.17280904711E+03 0.  0.
        -24    2    3    3    0    0 -0.11109541965E+03  0.12652052375E+02  0.39296465877E+02  0.15151550070E+03  0.94395275438E+02 0.  0.
          6    2    1    2  501    0  0.10296244891E+03 -0.23696039328E+02 -0.10400503936E+03  0.22718545418E+03  0.17214358603E+03 0.  0.
         24    2    5    5    0    0  0.71898723727E+02 -0.26555059333E+02 -0.14076522110E+03  0.17874445936E+03  0.79121025230E+02 0.  0.
          5    1    5    5  501    0  0.31063725180E+02  0.28590200046E+01  0.36760181732E+02  0.48440994812E+02  0.47000000000E+01 0. -1.
        -11    1    6    6    0    0 -0.86931650851E+01 -0.20167252016E+02 -0.62402908573E+02  0.66154456928E+02  0.00000000000E+00 0.  1.
         12    1    6    6    0    0  0.80591888812E+02 -0.63878073166E+01 -0.78362312523E+02  0.11259000244E+03  0.00000000000E+00 0. -1.
         -5    1    3    3    0  503  0.81329707426E+01  0.11043986953E+02 -0.49181121953E+02  0.51273654224E+02  0.47000000000E+01 0.  1.
         13    1    4    4    0    0  0.14888199636E+02  0.65143137020E+01 -0.62493694622E+01  0.17411185775E+02  0.00000000000E+00 0. -1.
        -14    1    4    4    0    0 -0.12598361929E+03  0.61377386729E+01  0.45545835340E+02  0.13410431492E+03  0.00000000000E+00 0.  1.
</event>
<event>
12    1  0.1050869E+000  0.2040318E+03  0.7818608E-02  0.1146826E+00
         21   -1    0    0  501  502  0.00000000000E+00  0.00000000000E+00  0.68481420251E+03  0.68481420251E+03  0.00000000000E+00 0. -1.
         21   -1    0    0  502  503 -0.00000000000E+00 -0.00000000000E+00 -0.60167543967E+02  0.60167543967E+02  0.00000000000E+00 0. -1.
         -6    2    1    2    0  503 -0.28907105772E+02  0.10158790623E+03  0.30755540076E+03  0.36907896661E+03  0.17456584890E+03 0.  0.
        -24    2    3    3    0    0 -0.44101686506E+02  0.13069598885E+03  0.19519829411E+03  0.25192793088E+03  0.79617259931E+02 0.  0.
          6    2    1    2  501    0  0.28907105772E+02 -0.10158790623E+03  0.31709125779E+03  0.37590277987E+03  0.17204740828E+03 0.  0.
         24    2    5    5    0    0 -0.44950056123E+02 -0.73815643030E+02  0.14778966008E+03  0.18905712177E+03  0.80196976024E+02 0.  0.
          5    1    5    5  501    0  0.73857161895E+02 -0.27772263197E+02  0.16930159771E+03  0.18684565811E+03  0.47000000000E+01 0. -1.
        -13    1    6    6    0    0  0.68115611657E+01  0.11181137833E+01 -0.67650845523E+01  0.96650873222E+01  0.00000000000E+00 0.  1.
         14    1    6    6    0    0 -0.51761617289E+02 -0.74933756813E+02  0.15455474463E+03  0.17939203444E+03  0.00000000000E+00 0. -1.
         -5    1    3    3    0  503  0.15194580734E+02 -0.29108082625E+02  0.11235710665E+03  0.11715103573E+03  0.47000000000E+01 0.  1.
         11    1    4    4    0    0 -0.63935926999E+02  0.68853547924E+02  0.10702918526E+03  0.14242141806E+03  0.00000000000E+00 0. -1.
        -12    1    4    4    0    0  0.19834240493E+02  0.61842440928E+02  0.88169108848E+02  0.10950651282E+03  0.00000000000E+00 0.  1.
</event>
<event>
12    1  0.1050869E+000  0.1938642E+03  0.7818608E-02  0.1155082E+00
         21   -1    0    0  503  502  0.00000000000E+00  0.00000000000E+00  0.59082612380E+03  0.59082612380E+03  0.00000000000E+00 0. -1.
         21   -1    0    0  501  503 -0.00000000000E+00 -0.00000000000E+00 -0.13892045259E+03  0.13892045259E+03  0.00000000000E+00 0. -1.
          6    2    1    2  501    0  0.10757194426E+02 -0.87993368509E+02  0.49483605482E+03  0.53145655348E+03  0.17240880765E+03 0.  0.
         24    2    3    3    0    0 -0.15470744581E+02 -0.53420147908E+02  0.47274876193E+03  0.48253671216E+03  0.79102658234E+02 0.  0.
         -6    2    1    2    0  502 -0.10757194426E+02  0.87993368509E+02 -0.42930383606E+02  0.19829002291E+03  0.17209696458E+03 0.  0.
        -24    2    5    5    0    0  0.32005958350E+02  0.37345668250E+02  0.31296098182E+02  0.98663031713E+02  0.79598164290E+02 0.  0.
          5    1    3    3  501    0  0.26227939008E+02 -0.34573220601E+02  0.22087292888E+02  0.48919841317E+02  0.47000000000E+01 0. -1.
        -11    1    4    4    0    0 -0.37586325213E+02 -0.21250350659E+02  0.37186171647E+03  0.37436004785E+03  0.00000000000E+00 0.  1.
         12    1    4    4    0    0  0.22115580632E+02 -0.32169797248E+02  0.10088704546E+03  0.10817666432E+03  0.00000000000E+00 0. -1.
         -5    1    5    5    0  502 -0.42763152777E+02  0.50647700259E+02 -0.74226481788E+02  0.99626991200E+02  0.47000000000E+01 0.  1.
         11    1    6    6    0    0  0.31338684964E+02  0.59363252957E+02  0.97178232018E+01  0.67827317982E+02  0.00000000000E+00 0. -1.
        -12    1    6    6    0    0  0.66727338603E+00 -0.22017584707E+02  0.21578274981E+02  0.30835713730E+02  0.00000000000E+00 0.  1.
</event>
<event>
12    1  0.1050869E+000  0.1947859E+03  0.7818608E-02  0.1157013E+00
         21   -1    0    0  503  502  0.00000000000E+00  0.00000000000E+00  0.80263578718E+02  0.80263578718E+02  0.00000000000E+00 0. -1.
         21   -1    0    0  501  503 -0.00000000000E+00 -0.00000000000E+00 -0.62972110300E+03  0.62972110300E+03  0.00000000000E+00 0. -1.
          6    2    1    2  501    0  0.59069479027E+02  0.97029338038E+01 -0.75230006034E+02  0.19731200798E+03  0.17230532321E+03 0.  0.
         24    2    3    3    0    0  0.61896121310E+02  0.55225620518E+02 -0.90061967891E+02  0.14912090916E+03  0.85116910743E+02 0.  0.
         -6    2    1    2    0  502 -0.59069479027E+02 -0.97029338038E+01 -0.47422751825E+03  0.51267267374E+03  0.18535959933E+03 0.  0.
        -24    2    5    5    0    0 -0.54852814242E+02  0.40779797899E+02 -0.14727244674E+03  0.18178297120E+03  0.81756051173E+02 0.  0.
          5    1    3    3  501    0 -0.28266422827E+01 -0.45522686714E+02  0.14831961856E+02  0.48191098813E+02  0.47000000000E+01 0. -1.
        -11    1    4    4    0    0  0.30559201285E+02  0.24423670675E+02  0.95318840318E+01  0.40264590965E+02  0.00000000000E+00 0.  1.
         12    1    4    4    0    0  0.31336920025E+02  0.30801949843E+02 -0.99593851922E+02  0.10885631820E+03  0.00000000000E+00 0. -1.
         -5    1    5    5    0  502 -0.42166647848E+01 -0.50482731703E+02 -0.32695507151E+03  0.33088970254E+03  0.47000000000E+01 0.  1.
         13    1    6    6    0    0 -0.45433984500E+02  0.64837896763E+02 -0.12335047946E+03  0.14657264611E+03  0.00000000000E+00 0. -1.
        -14    1    6    6    0    0 -0.94188297424E+01 -0.24058098863E+02 -0.23921967274E+02  0.35210325089E+02  0.00000000000E+00 0.  1.
</event>
<event>
12    1  0.1050869E+000  0.2224868E+03  0.7818608E-02  0.1132274E+00
         21   -1    0    0  503  502  0.00000000000E+00  0.00000000000E+00  0.27961608333E+03  0.27961608333E+03  0.00000000000E+00 0. -1.
         21   -1    0    0  501  503 -0.00000000000E+00 -0.00000000000E+00 -0.21639262695E+03  0.21639262695E+03  0.00000000000E+00 0. -1.
          6    2    1    2  501    0  0.32352132150E+02  0.13690251322E+03 -0.75570045374E+02  0.23377982130E+03  0.17074312434E+03 0.  0.
         24    2    3    3    0    0  0.86735929923E+02  0.10026245944E+03 -0.65688730079E+02  0.16729808401E+03  0.78089418882E+02 0.  0.
         -6    2    1    2    0  502 -0.32352132150E+02 -0.13690251322E+03  0.13879350175E+03  0.26222888898E+03  0.17236993795E+03 0.  0.
        -24    2    5    5    0    0 -0.20886419792E+02 -0.55078331803E+02  0.15040438123E+03  0.17866118142E+03  0.76344447654E+02 0.  0.
          5    1    3    3  501    0 -0.54383797773E+02  0.36640053780E+02 -0.98813152951E+01  0.66481737290E+02  0.47000000000E+01 0. -1.
        -13    1    4    4    0    0  0.25874420303E+02  0.17103937195E+02  0.16822172193E+02  0.35284781010E+02  0.00000000000E+00 0.  1.
         14    1    4    4    0    0  0.60861509620E+02  0.83158522247E+02 -0.82510902272E+02  0.13201330300E+03  0.00000000000E+00 0. -1.
         -5    1    5    5    0  502 -0.11465712358E+02 -0.81824181419E+02 -0.11610879483E+02  0.83567707562E+02  0.47000000000E+01 0.  1.
         13    1    6    6    0    0  0.21453689459E+02 -0.96260409443E+01  0.10830576548E+02  0.25888662461E+02  0.00000000000E+00 0. -1.
        -14    1    6    6    0    0 -0.42340109252E+02 -0.45452290858E+02  0.13957380468E+03  0.15277251896E+03  0.00000000000E+00 0.  1.
</event>
<event>
12    1  0.1050869E+000  0.1855535E+03  0.7818608E-02  0.1162644E+00
         21   -1    0    0  501  502  0.00000000000E+00  0.00000000000E+00  0.20487878505E+04  0.20487878505E+04  0.00000000000E+00 0. -1.
         21   -1    0    0  502  503 -0.00000000000E+00 -0.00000000000E+00 -0.23020672115E+02  0.23020672115E+02  0.00000000000E+00 0. -1.
         -6    2    1    2    0  503 -0.65497986312E+02  0.16712282378E+02  0.15539362681E+04  0.15649754053E+04  0.17280279962E+03 0.  0.
        -24    2    3    3    0    0 -0.49966417565E+02 -0.78598289560E-01  0.40187597482E+03  0.41267849372E+03  0.79388859259E+02 0.  0.
          6    2    1    2  501    0  0.65497986312E+02 -0.16712282378E+02  0.47183091035E+03  0.50683311729E+03  0.17229658798E+03 0.  0.
         24    2    5    5    0    0  0.77030354967E+02  0.22587722299E+02  0.18166342731E+03  0.21375165402E+03  0.79020807341E+02 0.  0.
          5    1    5    5  501    0 -0.11532368655E+02 -0.39300004677E+02  0.29016748304E+03  0.29308146326E+03  0.47000000000E+01 0. -1.
        -13    1    6    6    0    0  0.36889465780E+02 -0.28566958642E+02  0.62405512957E+02  0.77918879991E+02  0.00000000000E+00 0.  1.
         14    1    6    6    0    0  0.40140889187E+02  0.51154680941E+02  0.11925791435E+03  0.13583277403E+03  0.00000000000E+00 0. -1.
         -5    1    3    3    0  503 -0.15531568747E+02  0.16790880668E+02  0.11520602932E+04  0.11522969116E+04  0.47000000000E+01 0.  1.
         11    1    4    4    0    0 -0.32051092172E+02  0.30251726189E+02  0.10722738776E+03  0.11593167010E+03  0.00000000000E+00 0. -1.
        -12    1    4    4    0    0 -0.17915325393E+02 -0.30330324479E+02  0.29464858707E+03  0.29674682362E+03  0.00000000000E+00 0.  1.
</event>
<event>
12    1  0.1050869E+000  0.1879771E+03  0.7818608E-02  0.1162345E+00
         21   -1    0    0  501  502  0.00000000000E+00  0.00000000000E+00  0.82328603518E+03  0.82328603518E+03  0.00000000000E+00 0. -1.
         21   -1    0    0  502  503 -0.00000000000E+00 -0.00000000000E+00 -0.41632842268E+02  0.41632842268E+02  0.00000000000E+00 0. -1.
         -6    2    1    2    0  503  0.48922552806E+01 -0.76087077109E+02  0.45529723970E+03  0.49257585628E+03  0.17182031384E+03 0.  0.
        -24    2    3    3    0    0  0.79476763327E+01 -0.61908568875E+02  0.12197733293E+03  0.15890743413E+03  0.80481466267E+02 0.  0.
          6    2    1    2  501    0 -0.48922552806E+01  0.76087077109E+02  0.32635595321E+03  0.37234302116E+03  0.16222804859E+03 0.  0.
         24    2    5    5    0    0  0.34746348795E+02  0.19950940501E+02  0.26846354346E+03  0.28236465781E+03  0.77793168265E+02 0.  0.
          5    1    5    5  501    0 -0.39638604075E+02  0.56136136608E+02  0.57892409745E+02  0.89978363357E+02  0.47000000000E+01 0. -1.
        -11    1    6    6    0    0  0.17522685491E+02 -0.14165961577E+02  0.17559717962E+02  0.28566810622E+02  0.00000000000E+00 0.  1.
         12    1    6    6    0    0  0.17223663304E+02  0.34116902079E+02  0.25090382550E+03  0.25379784718E+03  0.00000000000E+00 0. -1.
         -5    1    3    3    0  503 -0.30554210521E+01 -0.14178508234E+02  0.33331990677E+03  0.33366842216E+03  0.47000000000E+01 0.  1.
         11    1    4    4    0    0  0.31121569643E+02 -0.35889790126E+02  0.11351199788E+03  0.12305122021E+03  0.00000000000E+00 0. -1.
        -12    1    4    4    0    0 -0.23173893310E+02 -0.26018778749E+02  0.84653350463E+01  0.35856213913E+02  0.00000000000E+00 0.  1.
</event>
<event>
12    1  0.1050869E+000  0.1843669E+03  0.7818608E-02  0.1164224E+00
         21   -1    0    0  501  502  0.00000000000E+00  0.00000000000E+00  0.24048571499E+03  0.24048571499E+03  0.00000000000E+00 0. -1.
         21   -1    0    0  502  503 -0.00000000000E+00 -0.00000000000E+00 -0.27695468712E+03  0.27695468712E+03  0.00000000000E+00 0. -1.
         -6    2    1    2    0  503 -0.65835490981E+02 -0.20624597912E+01  0.16399338369E+03  0.24674884757E+03  0.17219929812E+03 0.  0.
        -24    2    3    3    0    0 -0.99882964610E+02  0.30095994715E+02  0.11448275896E+03  0.17843494988E+03  0.88602221888E+02 0.  0.
          6    2    1    2  501    0  0.65835490981E+02  0.20624597912E+01 -0.20046235582E+03  0.27069155454E+03  0.16955882751E+03 0.  0.
         24    2    5    5    0    0  0.19060095213E+01  0.46921752407E+02 -0.60314934724E+02  0.11018384640E+03  0.79355560207E+02 0.  0.
          5    1    5    5  501    0  0.63929481460E+02 -0.44859292616E+02 -0.14014742109E+03  0.16050770814E+03  0.47000000000E+01 0. -1.
        -13    1    6    6    0    0 -0.32353411402E+02  0.35579777340E+02 -0.11444867326E+02  0.49433275969E+02  0.00000000000E+00 0.  1.
         14    1    6    6    0    0  0.34259420923E+02  0.11341975067E+02 -0.48870067398E+02  0.60750570433E+02  0.00000000000E+00 0. -1.
         -5    1    3    3    0  503  0.34047473629E+02 -0.32158454507E+02  0.49510624729E+02  0.68313897692E+02  0.47000000000E+01 0.  1.
         13    1    4    4    0    0  0.72001107145E+00 -0.22897304690E+02  0.15287383530E+02  0.27541043430E+02  0.00000000000E+00 0. -1.
        -14    1    4    4    0    0 -0.10060297568E+03  0.52993299406E+02  0.99195375428E+02  0.15089390645E+03  0.00000000000E+00 0.  1.
</event>
<event>
12    1  0.1050869E+000  0.1752434E+03  0.7818608E-02  0.1172502E+00
         21   -1    0    0  501  502  0.00000000000E+00  0.00000000000E+00  0.23604935641E+02  0.23604935641E+02  0.00000000000E+00 0. -1.
         21   -1    0    0  502  503 -0.00000000000E+00 -0.00000000000E+00 -0.14958720818E+04  0.14958720818E+04  0.00000000000E+00 0. -1.
         -6    2    1    2    0  503 -0.12414360362E+02 -0.27976381894E+02 -0.10107612439E+04  0.10258404005E+04  0.17254982127E+03 0.  0.
        -24    2    3    3    0    0 -0.60856321211E+02 -0.35171869817E+02 -0.41655496545E+03  0.42960085973E+03  0.78091658844E+02 0.  0.
          6    2    1    2  501    0  0.12414360362E+02  0.27976381894E+02 -0.46150590223E+03  0.49363661692E+03  0.17248947065E+03 0.  0.
         24    2    5    5    0    0 -0.32545672998E+02 -0.23341998826E+02 -0.15784269036E+03  0.18236757406E+03  0.82094746659E+02 0.  0.
          5    1    5    5  501    0  0.44960033360E+02  0.51318380721E+02 -0.30366321187E+03  0.31126904286E+03  0.47000000000E+01 0. -1.
        -13    1    6    6    0    0 -0.37594675286E+02  0.17066678723E+02 -0.39206184623E+02  0.56936421078E+02  0.00000000000E+00 0.  1.
         14    1    6    6    0    0  0.50490022876E+01 -0.40408677550E+02 -0.11863650573E+03  0.12543115298E+03  0.00000000000E+00 0. -1.
         -5    1    3    3    0  503  0.48441960849E+02  0.71954879228E+01 -0.59420627847E+03  0.59623954078E+03  0.47000000000E+01 0.  1.
         11    1    4    4    0    0 -0.36227004921E+02 -0.17508272962E+01 -0.34479171549E+03  0.34669408468E+03  0.00000000000E+00 0. -1.
        -12    1    4    4    0    0 -0.24629316290E+02 -0.33421042521E+02 -0.71763249959E+02  0.82906775047E+02  0.00000000000E+00 0.  1.
</event>
<event>
12    1  0.1050869E+000  0.2080465E+03  0.7818608E-02  0.1143217E+00
         21   -1    0    0  503  502  0.00000000000E+00  0.00000000000E+00  0.28364677460E+03  0.28364677460E+03  0.00000000000E+00 0.  1.
         21   -1    0    0  501  503 -0.00000000000E+00 -0.00000000000E+00 -0.16863954886E+03  0.16863954886E+03  0.00000000000E+00 0.  1.
          6    2    1    2  501    0 -0.97785038358E+02  0.63409687157E+02  0.12806376363E+03  0.24430242663E+03  0.17233875348E+03 0.  0.
         24    2    3    3    0    0 -0.15637176109E+02  0.35788911284E+02 -0.52330085634E+01  0.85238609220E+02  0.75583521191E+02 0.  0.
         -6    2    1    2    0  502  0.97785038358E+02 -0.63409687157E+02 -0.13056537890E+02  0.20798389684E+03  0.17176765123E+03 0.  0.
        -24    2    5    5    0    0  0.13587008550E+03 -0.46822175750E+02 -0.21866034403E+02  0.16526020810E+03  0.78611809819E+02 0.  0.
          5    1    3    3  501    0 -0.82147862249E+02  0.27620775873E+02  0.13329677219E+03  0.15906381741E+03  0.47000000000E+01 0. -1.
        -13    1    4    4    0    0 -0.97535548813E+01 -0.22518245675E+02 -0.98741040435E+01  0.26451864807E+02  0.00000000000E+00 0.  1.
         14    1    4    4    0    0 -0.58836212281E+01  0.58307156959E+02  0.46410954802E+01  0.58786744413E+02  0.00000000000E+00 0. -1.
         -5    1    5    5    0  502 -0.38085047145E+02 -0.16587511406E+02  0.88094965132E+01  0.42723688739E+02  0.47000000000E+01 0.  1.
         11    1    6    6    0    0  0.10300608400E+03 -0.57505706150E+02 -0.42049209962E+02  0.12524095033E+03  0.00000000000E+00 0. -1.
        -12    1    6    6    0    0  0.32864001499E+02  0.10683530400E+02  0.20183175559E+02  0.40019257764E+02  0.00000000000E+00 0.  1.
</event>
<event>
12    1  0.1092394E+000  0.5712032E+03  0.7818608E-02  0.9967064E-01
         21   -1    0    0  501  502  0.00000000000E+00  0.00000000000E+00  0.72487745593E+03  0.72487745593E+03  0.00000000000E+00 0.  1.
         21   -1    0    0  502  503 -0.00000000000E+00 -0.00000000000E+00 -0.51772322840E+03  0.51772322840E+03  0.00000000000E+00 0.  1.
         -6    2    1    2    0  503 -0.52944938755E+03  0.12860901886E+03  0.32820623798E+03  0.65871144343E+03  0.17124397026E+03 0.  0.
        -24    2    3    3    0    0 -0.41578494909E+03  0.13778737526E+03  0.31079885629E+03  0.54326035537E+03  0.81690880659E+02 0.  0.
          6    2    1    2  501    0  0.52944938755E+03 -0.12860901886E+03 -0.12105201046E+03  0.58388924090E+03  0.17151129028E+03 0.  0.
         24    2    5    5    0    0  0.27374057065E+03 -0.45410410608E+02  0.12073792241E+01  0.28845996709E+03  0.78814271803E+02 0.  0.
          5    1    5    5  501    0  0.25570881690E+03 -0.83198608253E+02 -0.12225938968E+03  0.29542927381E+03  0.47000000000E+01 0. -1.
        -13    1    6    6    0    0  0.33880469631E+02 -0.46405765293E+01  0.27309698472E+02  0.43763464255E+02  0.00000000000E+00 0.  1.
         14    1    6    6    0    0  0.23986010102E+03 -0.40769834079E+02 -0.26102319248E+02  0.24469650284E+03  0.00000000000E+00 0. -1.
         -5    1    3    3    0  503 -0.11366443846E+03 -0.91783563966E+01  0.17407381699E+02  0.11545108806E+03  0.47000000000E+01 0.  1.
         11    1    4    4    0    0 -0.35824485433E+03  0.98277850706E+02  0.23191488072E+03  0.43792970154E+03  0.00000000000E+00 0. -1.
        -12    1    4    4    0    0 -0.57540094755E+02  0.39509524552E+02  0.78883975569E+02  0.10533065383E+03  0.00000000000E+00 0.  1.
</event>
<event>
12    1  0.1050869E+000  0.2073549E+03  0.7818608E-02  0.1143716E+00
         21   -1    0    0  503  502  0.00000000000E+00  0.00000000000E+00  0.78155440575E+03  0.78155440575E+03  0.00000000000E+00 0.  1.
         21   -1    0    0  501  503 -0.00000000000E+00 -0.00000000000E+00 -0.74948792875E+02  0.74948792875E+02  0.00000000000E+00 0.  1.
          6    2    1    2  501    0  0.17961839626E+02  0.11471529254E+03  0.13227936984E+03  0.24595502649E+03  0.17179585951E+03 0.  0.
         24    2    3    3    0    0  0.21815544462E+02 -0.19888641516E+01  0.89422794149E+02  0.12148218885E+03  0.79256624538E+02 0.  0.
         -6    2    1    2    0  502 -0.17961839626E+02 -0.11471529254E+03  0.57432624303E+03  0.61054817213E+03  0.17156984302E+03 0.  0.
        -24    2    5    5    0    0  0.48653224457E+02 -0.75100181880E+02  0.26026201965E+03  0.28702792521E+03  0.81495628187E+02 0.  0.
          5    1    3    3  501    0 -0.38537048358E+01  0.11670415669E+03  0.42856575691E+02  0.12447283764E+03  0.47000000000E+01 0. -1.
        -11    1    4    4    0    0 -0.25950079954E+02  0.16463070668E+02  0.28675152813E+02  0.42032174989E+02  0.00000000000E+00 0.  1.
         12    1    4    4    0    0  0.47765624416E+02 -0.18451934819E+02  0.60747641336E+02  0.79450013860E+02  0.00000000000E+00 0. -1.
         -5    1    5    5    0  502 -0.66615064083E+02 -0.39615110662E+02  0.31406422339E+03  0.32352024692E+03  0.47000000000E+01 0.  1.
         11    1    6    6    0    0  0.37448352810E+02 -0.96269707802E+01  0.34923168986E+02  0.52102643183E+02  0.00000000000E+00 0. -1.
        -12    1    6    6    0    0  0.11204871647E+02 -0.65473211100E+02  0.22533885066E+03  0.23492528203E+03  0.00000000000E+00 0.  1.
</event>
<event>
12    1  0.1050869E+000  0.2579134E+03  0.7818608E-02  0.1108563E+00
         21   -1    0    0  503  502  0.00000000000E+00  0.00000000000E+00  0.13157989035E+03  0.13157989035E+03  0.00000000000E+00 0. -1.
         21   -1    0    0  501  503 -0.00000000000E+00 -0.00000000000E+00 -0.61728722633E+03  0.61728722633E+03  0.00000000000E+00 0. -1.
          6    2    1    2  501    0  0.16225824286E+03  0.10143003380E+03 -0.81678560950E+02  0.26953575951E+03  0.17135445486E+03 0.  0.
         24    2    3    3    0    0  0.94298434298E+02  0.86764642323E+02  0.11404901593E+02  0.15325923442E+03  0.83294797472E+02 0.  0.
         -6    2    1    2    0  502 -0.16225824286E+03 -0.10143003380E+03 -0.40402877503E+03  0.47933135718E+03  0.17292631318E+03 0.  0.
        -24    2    5    5    0    0 -0.16249548063E+03 -0.46633340312E+02 -0.37011652530E+03  0.41471816517E+03  0.80158995583E+02 0.  0.
          5    1    3    3  501    0  0.67959808565E+02  0.14665391481E+02 -0.93083462543E+02  0.11627652509E+03  0.47000000000E+01 0. -1.
        -11    1    4    4    0    0  0.64096060940E+02  0.37298888454E+02 -0.32082499203E+02  0.80800983058E+02  0.00000000000E+00 0.  1.
         12    1    4    4    0    0  0.30202373358E+02  0.49465753869E+02  0.43487400797E+02  0.72458251361E+02  0.00000000000E+00 0. -1.
         -5    1    5    5    0  502  0.23723776563E+00 -0.54796693492E+02 -0.33912249733E+02  0.64613192007E+02  0.47000000000E+01 0.  1.
         11    1    6    6    0    0  0.78877396710E+01 -0.83029372794E+01 -0.14027585224E+02  0.18108792113E+02  0.00000000000E+00 0. -1.
        -12    1    6    6    0    0 -0.17038322030E+03 -0.38330403033E+02 -0.35608894007E+03  0.39660937306E+03  0.00000000000E+00 0.  1.
</event>
<event>
12    1  0.1050869E+000  0.2160388E+03  0.7818608E-02  0.1137974E+00
         21   -1    0    0  503  502  0.00000000000E+00  0.00000000000E+00  0.23013693421E+02  0.23013693421E+02  0.00000000000E+00 0. -1.
         21   -1    0    0  501  503 -0.00000000000E+00 -0.00000000000E+00 -0.20372268365E+04  0.20372268365E+04  0.00000000000E+00 0. -1.
          6    2    1    2  501    0 -0.76598557936E+02  0.10329449873E+03 -0.11741986327E+04  0.11928898839E+04  0.16645345761E+03 0.  0.
         24    2    3    3    0    0 -0.88035241312E+02  0.13101517851E+03 -0.90958467922E+03  0.92654073676E+03  0.78855992015E+02 0.  0.
         -6    2    1    2    0  502  0.76598557936E+02 -0.10329449873E+03 -0.84001451046E+03  0.86735064609E+03  0.17359629303E+03 0.  0.
        -24    2    5    5    0    0 -0.13348623256E+01 -0.91292966630E+02 -0.33521736148E+03  0.35641042808E+03  0.79508025966E+02 0.  0.
          5    1    3    3  501    0  0.11436683375E+02 -0.27720679783E+02 -0.26461395344E+03  0.26634914712E+03  0.47000000000E+01 0. -1.
        -13    1    4    4    0    0 -0.58629633632E+02  0.45929843503E+02 -0.58434271749E+03  0.58906994147E+03  0.00000000000E+00 0.  1.
         14    1    4    4    0    0 -0.29405607680E+02  0.85085335005E+02 -0.32524196174E+03  0.33747079528E+03  0.00000000000E+00 0. -1.
         -5    1    5    5    0  502  0.77933420262E+02 -0.12001532095E+02 -0.50479714898E+03  0.51094021801E+03  0.47000000000E+01 0. -1.
         11    1    6    6    0    0 -0.26910349545E+02 -0.59982617424E+02 -0.11459037881E+03  0.13210993991E+03  0.00000000000E+00 0. -1.
        -12    1    6    6    0    0  0.25575487219E+02 -0.31310349205E+02 -0.22062698267E+03  0.22430048817E+03  0.00000000000E+00 0.  1.
</event>
<event>
12    1  0.1050869E+000  0.2850312E+03  0.7818608E-02  0.1093394E+00
         21   -1    0    0  501  502  0.00000000000E+00  0.00000000000E+00  0.83002519330E+03  0.83002519330E+03  0.00000000000E+00 0. -1.
         21   -1    0    0  502  503 -0.00000000000E+00 -0.00000000000E+00 -0.11242616400E+03  0.11242616400E+03  0.00000000000E+00 0. -1.
         -6    2    1    2    0  503 -0.17143831848E+03  0.14481534201E+03  0.18485968776E+03  0.33972916824E+03  0.17572769636E+03 0.  0.
        -24    2    3    3    0    0 -0.16295195309E+03  0.66610677276E+02  0.85211331511E+02  0.21268636881E+03  0.83571520975E+02 0.  0.
          6    2    1    2  501    0  0.17143831848E+03 -0.14481534201E+03  0.53273934155E+03  0.60272218907E+03  0.17058795630E+03 0.  0.
         24    2    5    5    0    0  0.84439503594E+02 -0.10641152532E+03  0.18782172599E+03  0.24490394128E+03  0.79041110891E+02 0.  0.
          5    1    5    5  501    0  0.86998814890E+02 -0.38403816685E+02  0.34491761556E+03  0.35781824779E+03  0.47000000000E+01 0. -1.
        -13    1    6    6    0    0  0.62390756852E+02 -0.95747486872E+02  0.18846077488E+03  0.22040338348E+03  0.00000000000E+00 0.  1.
         14    1    6    6    0    0  0.22048746742E+02 -0.10664038450E+02 -0.63904888454E+00  0.24500557798E+02  0.00000000000E+00 0. -1.
         -5    1    3    3    0  503 -0.84863653961E+01  0.78204664730E+02  0.99648356245E+02  0.12704279942E+03  0.47000000000E+01 0.  1.
         13    1    4    4    0    0 -0.86536608454E+02  0.37385417199E+02 -0.40140380466E+00  0.94267784247E+02  0.00000000000E+00 0. -1.
        -14    1    4    4    0    0 -0.76415344634E+02  0.29225260077E+02  0.85612735315E+02  0.11841858456E+03  0.00000000000E+00 0.  1.
</event>
<event>
12    1  0.1050869E+000  0.1864408E+03  0.7818608E-02  0.1162327E+00
         21   -1    0    0  503  502  0.00000000000E+00  0.00000000000E+00  0.68604596829E+03  0.68604596829E+03  0.00000000000E+00 0. -1.
         21   -1    0    0  501  503 -0.00000000000E+00 -0.00000000000E+00 -0.69431856340E+02  0.69431856340E+02  0.00000000000E+00 0. -1.
          6    2    1    2  501    0  0.83922274906E+01 -0.65102123736E+02  0.50680320188E+03  0.53910171433E+03  0.17167544074E+03 0.  0.
         24    2    3    3    0    0 -0.16243747230E+02 -0.99560190294E+02  0.27769506396E+03  0.30606326586E+03  0.79900458980E+02 0.  0.
         -6    2    1    2    0  502 -0.83922274906E+01  0.65102123736E+02  0.10981091007E+03  0.21637611031E+03  0.17450349321E+03 0.  0.
        -24    2    5    5    0    0 -0.53492645017E+02 -0.28057623927E+01  0.20353535789E+02  0.95255342174E+02  0.76091907718E+02 0.  0.
          5    1    3    3  501    0  0.24635974721E+02  0.34458066558E+02  0.22910813792E+03  0.23303844847E+03  0.47000000000E+01 0. -1.
        -13    1    4    4    0    0 -0.42130857363E+02 -0.33984351800E+02  0.83928242748E+02  0.99869390907E+02  0.00000000000E+00 0.  1.
         14    1    4    4    0    0  0.25887110132E+02 -0.65575838494E+02  0.19376682121E+03  0.20619387495E+03  0.00000000000E+00 0. -1.
         -5    1    5    5    0  502  0.45100417527E+02  0.67907886128E+02  0.89457374283E+02  0.12112076813E+03  0.47000000000E+01 0.  1.
         13    1    6    6    0    0 -0.44631931720E+02 -0.17965272562E+02 -0.19338312058E+02  0.51852971569E+02  0.00000000000E+00 0. -1.
        -14    1    6    6    0    0 -0.88607132976E+01  0.15159510169E+02  0.39691847847E+02  0.43402370606E+02  0.00000000000E+00 0.  1.
</event>
<event>
12    1  0.1050869E+000  0.2414853E+03  0.7818608E-02  0.1119957E+00
         21   -1    0    0  503  502  0.00000000000E+00  0.00000000000E+00  0.21928531885E+03  0.21928531885E+03  0.00000000000E+00 0.  1.
         21   -1    0    0  501  503 -0.00000000000E+00 -0.00000000000E+00 -0.30812212798E+03  0.30812212798E+03  0.00000000000E+00 0.  1.
          6    2    1    2  501    0  0.11475744094E+03 -0.11098816268E+03  0.60925787576E+02  0.24905239850E+03  0.18118361710E+03 0.  0.
         24    2    3    3    0    0  0.41623795317E+02 -0.90939680192E+02  0.10138145059E+03  0.16297555817E+03  0.79248143631E+02 0.  0.
         -6    2    1    2    0  502 -0.11475744094E+03  0.11098816268E+03 -0.14976259670E+03  0.27835504833E+03  0.17194491866E+03 0.  0.
        -24    2    5    5    0    0 -0.12745572837E+03  0.13809361196E+03 -0.12401894205E+03  0.23859605388E+03  0.78946631232E+02 0.  0.
          5    1    3    3  501    0  0.73133645620E+02 -0.20048482483E+02 -0.40455663010E+02  0.86076840329E+02  0.47000000000E+01 0. -1.
        -11    1    4    4    0    0  0.41076203341E+02 -0.51190234717E+02  0.14190203782E+02  0.67149508522E+02  0.00000000000E+00 0.  1.
         12    1    4    4    0    0  0.54759197512E+00 -0.39749445475E+02  0.87191246805E+02  0.95826049652E+02  0.00000000000E+00 0. -1.
         -5    1    5    5    0  502  0.12698287432E+02 -0.27105449281E+02 -0.25743654652E+02  0.39758994444E+02  0.47000000000E+01 0.  1.
         13    1    6    6    0    0 -0.13390173603E+02  0.44892438186E+02 -0.12851345705E+01  0.46864478299E+02  0.00000000000E+00 0. -1.
        -14    1    6    6    0    0 -0.11406555476E+03  0.93201173770E+02 -0.12273380748E+03  0.19173157558E+03  0.00000000000E+00 0.  1.
</event>
<event>
12    1  0.1050869E+000  0.3068437E+03  0.7818608E-02  0.1081998E+00
         21   -1    0    0  503  502  0.00000000000E+00  0.00000000000E+00  0.78425779301E+03  0.78425779301E+03  0.00000000000E+00 0. -1.
         21   -1    0    0  501  503 -0.00000000000E+00 -0.00000000000E+00 -0.17746176710E+03  0.17746176710E+03  0.00000000000E+00 0. -1.
          6    2    1    2  501    0 -0.22402331446E+02  0.25182149070E+03  0.57823474631E+03  0.65460558810E+03  0.17388825863E+03 0.  0.
         24    2    3    3    0    0 -0.62647361865E+02  0.21798815226E+03  0.53437482546E+03  0.58597512897E+03  0.79792676370E+02 0.  0.
         -6    2    1    2    0  502  0.22402331446E+02 -0.25182149070E+03  0.28561279599E+02  0.30711397201E+03  0.17200964356E+03 0.  0.
        -24    2    5    5    0    0  0.19107380809E+01 -0.21906202658E+03 -0.32785472291E+02  0.23445998481E+03  0.76842532980E+02 0.  0.
          5    1    3    3  501    0  0.40245030419E+02  0.33833338445E+02  0.43859920847E+02  0.68630459130E+02  0.47000000000E+01 0. -1.
        -11    1    4    4    0    0 -0.47620647069E+02  0.18816917495E+03  0.36561996120E+03  0.41394845145E+03  0.00000000000E+00 0.  1.
         12    1    4    4    0    0 -0.15026714797E+02  0.29818977313E+02  0.16875486426E+03  0.17202667752E+03  0.00000000000E+00 0. -1.
         -5    1    5    5    0  502  0.20491593365E+02 -0.32759464120E+02  0.61346751889E+02  0.72653987196E+02  0.47000000000E+01 0.  1.
         13    1    6    6    0    0 -0.18493248710E+02 -0.90901205997E+01  0.17910766541E+01  0.20684257201E+02  0.00000000000E+00 0. -1.
        -14    1    6    6    0    0  0.20403986791E+02 -0.20997190598E+03 -0.34576548945E+02  0.21377572761E+03  0.00000000000E+00 0.  1.
</event>
<event>
12    1  0.1050869E+000  0.2020727E+03  0.7818608E-02  0.1148053E+00
         21   -1    0    0  503  502  0.00000000000E+00  0.00000000000E+00  0.93549417851E+03  0.93549417851E+03  0.00000000000E+00 0.  1.
         21   -1    0    0  501  503 -0.00000000000E+00 -0.00000000000E+00 -0.45911109786E+02  0.45911109786E+02  0.00000000000E+00 0.  1.
          6    2    1    2  501    0 -0.10380893451E+03 -0.21318260730E+02  0.33434223232E+03  0.39053663232E+03  0.17176544981E+03 0.  0.
         24    2    3    3    0    0 -0.79633137776E+02  0.10606320974E+02  0.95762965981E+02  0.14857422947E+03  0.80310804589E+02 0.  0.
         -6    2    1    2    0  502  0.10380893451E+03  0.21318260730E+02  0.55524083641E+03  0.59086865598E+03  0.17205411671E+03 0.  0.
        -24    2    5    5    0    0 -0.14869121031E+01  0.39873435648E+02  0.16745120244E+03  0.18858219083E+03  0.77014516299E+02 0.  0.
          5    1    3    3  501    0 -0.24175796735E+02 -0.31924581705E+02  0.23857926634E+03  0.24196240284E+03  0.47000000000E+01 0. -1.
        -11    1    4    4    0    0 -0.32933576036E+02  0.15054257105E+02 -0.58262769056E+01  0.36676921764E+02  0.00000000000E+00 0.  1.
         12    1    4    4    0    0 -0.46699561741E+02 -0.44479361302E+01  0.10158924289E+03  0.11189730771E+03  0.00000000000E+00 0. -1.
         -5    1    5    5    0  502  0.10529584661E+03 -0.18555174918E+02  0.38778963397E+03  0.40228646515E+03  0.47000000000E+01 0.  1.
         13    1    6    6    0    0  0.26611841336E+02  0.49482293848E+02  0.96455018830E+02  0.11162552648E+03  0.00000000000E+00 0. -1.
        -14    1    6    6    0    0 -0.28098753439E+02 -0.96088582003E+01  0.70996183609E+02  0.76956664349E+02  0.00000000000E+00 0.  1.
</event>
<event>
12    1  0.1050869E+000  0.2057008E+03  0.7818608E-02  0.1145233E+00
         21   -1    0    0  503  502  0.00000000000E+00  0.00000000000E+00  0.17442094729E+02  0.17442094729E+02  0.00000000000E+00 0. -1.
         21   -1    0    0  501  503 -0.00000000000E+00 -0.00000000000E+00 -0.24464776525E+04  0.24464776525E+04  0.00000000000E+00 0. -1.
          6    2    1    2  501    0 -0.81432175735E+02  0.75618847195E+02 -0.10743050292E+04  0.10938208714E+04  0.17309937505E+03 0.  0.
         24    2    3    3    0    0 -0.90039193889E+02 -0.76228405374E+01 -0.70031066045E+03  0.71054924814E+03  0.79246758653E+02 0.  0.
         -6    2    1    2    0  502  0.81432175735E+02 -0.75618847195E+02 -0.13547305285E+04  0.13700988758E+04  0.17183339378E+03 0.  0.
        -24    2    5    5    0    0  0.29523292202E+02  0.12538882412E+02 -0.36079858960E+03  0.37090464707E+03  0.79785879754E+02 0.  0.
          5    1    3    3  501    0  0.86070181545E+01  0.83241687732E+02 -0.37399436878E+03  0.38327162329E+03  0.47000000000E+01 0. -1.
        -11    1    4    4    0    0 -0.86280208043E+02  0.21077308023E+02 -0.45948892376E+03  0.46799422889E+03  0.00000000000E+00 0.  1.
         12    1    4    4    0    0 -0.37589858460E+01 -0.28700148561E+02 -0.24082173669E+03  0.24255501925E+03  0.00000000000E+00 0. -1.
         -5    1    5    5    0  502  0.51908883533E+02 -0.88157729607E+02 -0.99393193894E+03  0.99919422873E+03  0.47000000000E+01 0.  1.
         11    1    6    6    0    0 -0.22922719074E+02  0.38027758747E+01 -0.44830818947E+02  0.50494697558E+02  0.00000000000E+00 0. -1.
        -12    1    6    6    0    0  0.52446011276E+02  0.87361065376E+01 -0.31596777065E+03  0.32040994951E+03  0.00000000000E+00 0.  1.
</event>
<event>
12    1  0.1050869E+000  0.1882986E+03  0.7818608E-02  0.1160741E+00
         21   -1    0    0  501  502  0.00000000000E+00  0.00000000000E+00  0.35403075355E+02  0.35403075355E+02  0.00000000000E+00 0. -1.
         21   -1    0    0  502  503 -0.00000000000E+00 -0.00000000000E+00 -0.13696952997E+04  0.13696952997E+04  0.00000000000E+00 0. -1.
         -6    2    1    2    0  503 -0.14985126904E+02 -0.74973257500E+02 -0.10355598815E+04  0.10519732080E+04  0.16857585472E+03 0.  0.
        -24    2    3    3    0    0 -0.34259761269E+02 -0.92444111821E+02 -0.99827359949E+03  0.10062665443E+04  0.79388498293E+02 0.  0.
          6    2    1    2  501    0  0.14985126904E+02  0.74973257500E+02 -0.29873234287E+03  0.35312516709E+03  0.17207796950E+03 0.  0.
         24    2    5    5    0    0 -0.34168765712E+02  0.90344753001E+02 -0.14790676066E+03  0.19367977116E+03  0.79408846879E+02 0.  0.
          5    1    5    5  501    0  0.49153892615E+02 -0.15371495501E+02 -0.15082558222E+03  0.15944539593E+03  0.47000000000E+01 0. -1.
        -11    1    6    6    0    0 -0.18989230259E+02 -0.87698741958E+01 -0.46908095953E+02  0.51360208578E+02  0.00000000000E+00 0.  1.
         12    1    6    6    0    0 -0.15179535453E+02  0.99114627196E+02 -0.10099866470E+03  0.14231956258E+03  0.00000000000E+00 0. -1.
         -5    1    3    3    0  503  0.19274634365E+02  0.17470854321E+02 -0.37286281990E+02  0.45706663685E+02  0.47000000000E+01 0.  1.
         11    1    4    4    0    0 -0.26419452045E+02 -0.34586165858E+02 -0.74830624037E+03  0.74957082367E+03  0.00000000000E+00 0. -1.
        -12    1    4    4    0    0 -0.78403092242E+01 -0.57857945963E+02 -0.24996735911E+03  0.25669572061E+03  0.00000000000E+00 0.  1.
</event>
<event>
12    1  0.1050869E+000  0.2446808E+03  0.7818608E-02  0.1117131E+00
         21   -1    0    0  501  502  0.00000000000E+00  0.00000000000E+00  0.11862018770E+04  0.11862018770E+04  0.00000000000E+00 0.  1.
         21   -1    0    0  502  503 -0.00000000000E+00 -0.00000000000E+00 -0.51395957404E+02  0.51395957404E+02  0.00000000000E+00 0.  1.
         -6    2    1    2    0  503 -0.14738228106E+03 -0.86320510108E+02  0.67426595018E+03  0.71728884421E+03  0.17520258911E+03 0.  0.
        -24    2    3    3    0    0 -0.25481321976E+02 -0.69756676440E+02  0.20705698998E+03  0.23413203023E+03  0.80186774488E+02 0.  0.
          6    2    1    2  501    0  0.14738228106E+03  0.86320510108E+02  0.46053996946E+03  0.52030899022E+03  0.17161472725E+03 0.  0.
         24    2    5    5    0    0  0.56686758399E+02  0.39611695727E+02  0.98808346766E+02  0.14443767179E+03  0.79477522762E+02 0.  0.
          5    1    5    5  501    0  0.90695522657E+02  0.46708814380E+02  0.36173162269E+03  0.37587131844E+03  0.47000000000E+01 0. -1.
        -11    1    6    6    0    0  0.17942476406E+02  0.22484930469E+02  0.97930104375E+02  0.10206767314E+03  0.00000000000E+00 0.  1.
         12    1    6    6    0    0  0.38744281993E+02  0.17126765258E+02  0.87824239050E+00  0.42369998644E+02  0.00000000000E+00 0. -1.
         -5    1    3    3    0  503 -0.12190095908E+03 -0.16563833667E+02  0.46720896020E+03  0.48315681398E+03  0.47000000000E+01 0.  1.
         11    1    4    4    0    0 -0.33779980082E+02  0.11784655850E+01  0.98955350052E+02  0.10456881533E+03  0.00000000000E+00 0. -1.
        -12    1    4    4    0    0  0.82986581060E+01 -0.70935142025E+02  0.10810163993E+03  0.12956321490E+03  0.00000000000E+00 0.  1.
</event>
<event>
12    1  0.1050869E+000  0.1727880E+03  0.7818608E-02  0.1175436E+00
         21   -1    0    0  503  502  0.00000000000E+00  0.00000000000E+00  0.75838797180E+03  0.75838797180E+03  0.00000000000E+00 0. -1.
         21   -1    0    0  501  503 -0.00000000000E+00 -0.00000000000E+00 -0.39250740175E+02  0.39250740175E+02  0.00000000000E+00 0. -1.
          6    2    1    2  501    0  0.13700846408E+02 -0.18620560771E+00  0.39227559568E+03  0.42791691368E+03  0.17042591992E+03 0.  0.
         24    2    3    3    0    0 -0.15892018372E+02  0.61372267973E+02  0.22985605080E+03  0.25165749727E+03  0.80489628620E+02 0.  0.
         -6    2    1    2    0  502 -0.13700846408E+02  0.18620560771E+00  0.32686163595E+03  0.36972179830E+03  0.17224381330E+03 0.  0.
        -24    2    5    5    0    0  0.18415752095E+02  0.62064702945E+02  0.20821861953E+03  0.23203127692E+03  0.79324351089E+02 0.  0.
          5    1    3    3  501    0  0.29592864780E+02 -0.61558473580E+02  0.16241954488E+03  0.17625941641E+03  0.47000000000E+01 0. -1.
        -13    1    4    4    0    0  0.18079304600E+02  0.61890659588E+02  0.11454453925E+03  0.13144491801E+03  0.00000000000E+00 0.  1.
         14    1    4    4    0    0 -0.33971322972E+02 -0.51839161517E+00  0.11531151156E+03  0.12021257926E+03  0.00000000000E+00 0. -1.
         -5    1    5    5    0  502 -0.32116598503E+02 -0.61878497337E+02  0.11864301642E+03  0.13769052138E+03  0.47000000000E+01 0.  1.
         11    1    6    6    0    0  0.46722787099E+02  0.30834556580E+02  0.15039618090E+03  0.16047678942E+03  0.00000000000E+00 0. -1.
        -12    1    6    6    0    0 -0.28307035004E+02  0.31230146364E+02  0.57822438623E+02  0.71554487497E+02  0.00000000000E+00 0.  1.
</event>
<event>
12    1  0.1050869E+000  0.2712430E+03  0.7818608E-02  0.1100707E+00
         21   -1    0    0  503  502  0.00000000000E+00  0.00000000000E+00  0.55319083561E+03  0.55319083561E+03  0.00000000000E+00 0.  1.
         21   -1    0    0  501  503 -0.00000000000E+00 -0.00000000000E+00 -0.16327415850E+03  0.16327415850E+03  0.00000000000E+00 0.  1.
          6    2    1    2  501    0  0.88347145010E+02 -0.18920663720E+03  0.39780046785E+02  0.27414449844E+03  0.17311379006E+03 0.  0.
         24    2    3    3    0    0  0.17171833425E+02 -0.19081645130E+02 -0.68527872894E+01  0.83867991429E+02  0.79548087650E+02 0.  0.
         -6    2    1    2    0  502 -0.88347145010E+02  0.18920663720E+03  0.35013663033E+03  0.44232049567E+03  0.17160242249E+03 0.  0.
        -24    2    5    5    0    0  0.41996275750E+01  0.12134238616E+03  0.11883987736E+03  0.18407499306E+03  0.70845430835E+02 0.  0.
          5    1    3    3  501    0  0.71175311585E+02 -0.17012499207E+03  0.46632834075E+02  0.19027650701E+03  0.47000000000E+01 0. -1.
        -11    1    4    4    0    0  0.36256907719E+02  0.11365121807E+02  0.16059471524E+02  0.41250890617E+02  0.00000000000E+00 0.  1.
         12    1    4    4    0    0 -0.19085074294E+02 -0.30446766938E+02 -0.22912258814E+02  0.42617100813E+02  0.00000000000E+00 0. -1.
         -5    1    5    5    0  502 -0.92546772585E+02  0.67864251041E+02  0.23129675297E+03  0.25824550261E+03  0.47000000000E+01 0.  1.
         11    1    6    6    0    0 -0.21901650503E+02  0.10073109721E+03  0.10749558276E+03  0.14893534353E+03  0.00000000000E+00 0. -1.
        -12    1    6    6    0    0  0.26101278078E+02  0.20611288947E+02  0.11344294603E+02  0.35139649534E+02  0.00000000000E+00 0.  1.
</event>
<event>
12    1  0.1050869E+000  0.1903002E+03  0.7818608E-02  0.1158333E+00
         21   -1    0    0  501  502  0.00000000000E+00  0.00000000000E+00  0.24380230033E+03  0.24380230033E+03  0.00000000000E+00 0. -1.
         21   -1    0    0  502  503 -0.00000000000E+00 -0.00000000000E+00 -0.14917995496E+03  0.14917995496E+03  0.00000000000E+00 0. -1.
         -6    2    1    2    0  503  0.17195529188E+01 -0.79210141313E+02  0.30116685754E+02  0.19204653425E+03  0.17233007052E+03 0.  0.
        -24    2    3    3    0    0 -0.39834760992E+02 -0.94225517406E+02  0.55287860375E+02  0.14097892655E+03  0.79706046906E+02 0.  0.
          6    2    1    2  501    0 -0.17195529188E+01  0.79210141313E+02  0.64505659616E+02  0.20093572104E+03  0.17302306355E+03 0.  0.
         24    2    5    5    0    0  0.47574714757E+02  0.14740314103E+02  0.73354596881E+02  0.11916361616E+03  0.79614321509E+02 0.  0.
          5    1    5    5  501    0 -0.49294267676E+02  0.64469827210E+02 -0.88489372642E+01  0.81772104882E+02  0.47000000000E+01 0. -1.
        -11    1    6    6    0    0 -0.34353958417E+01  0.36426832546E+02  0.41127519673E+02  0.55047152046E+02  0.00000000000E+00 0.  1.
         12    1    6    6    0    0  0.51010110599E+02 -0.21686518443E+02  0.32227077207E+02  0.64116464117E+02  0.00000000000E+00 0. -1.
         -5    1    3    3    0  503  0.41554313911E+02  0.15015376093E+02 -0.25171174621E+02  0.51067607694E+02  0.47000000000E+01 0.  1.
         13    1    4    4    0    0  0.23976382830E+02 -0.34963622636E+02  0.21855402438E+02  0.47696755206E+02  0.00000000000E+00 0. -1.
        -14    1    4    4    0    0 -0.63811143821E+02 -0.59261894769E+02  0.33432457938E+02  0.93282171347E+02  0.00000000000E+00 0.  1.
</event>
<event>
12    1  0.1050869E+000  0.3956075E+03  0.7818608E-02  0.1045334E+00
         21   -1    0    0  503  502  0.00000000000E+00  0.00000000000E+00  0.33464046403E+03  0.33464046403E+03  0.00000000000E+00 0.  1.
         21   -1    0    0  501  503 -0.00000000000E+00 -0.00000000000E+00 -0.56395087576E+03  0.56395087576E+03  0.00000000000E+00 0.  1.
          6    2    1    2  501    0  0.32688332996E+03 -0.14089818776E+03  0.71240208121E+02  0.40197075452E+03  0.17262766150E+03 0.  0.
         24    2    3    3    0    0  0.26206678334E+03 -0.42686850097E+02  0.37561357597E+02  0.27948399387E+03  0.78735513883E+02 0.  0.
         -6    2    1    2    0  502 -0.32688332996E+03  0.14089818776E+03 -0.30055061985E+03  0.49662058527E+03  0.17203580993E+03 0.  0.
        -24    2    5    5    0    0 -0.17057975101E+03  0.14349564991E+03 -0.20625080824E+03  0.31399501183E+03  0.79781066423E+02 0.  0.
          5    1    3    3  501    0  0.64816546627E+02 -0.98211337661E+02  0.33678850524E+02  0.12248676065E+03  0.47000000000E+01 0. -1.
        -13    1    4    4    0    0  0.24365309191E+02 -0.30258020269E+02  0.30385803118E+01  0.38967281826E+02  0.00000000000E+00 0.  1.
         14    1    4    4    0    0  0.23770147415E+03 -0.12428829828E+02  0.34522777285E+02  0.24051671205E+03  0.00000000000E+00 0. -1.
         -5    1    5    5    0  502 -0.15630357895E+03 -0.25974621488E+01 -0.94299811615E+02  0.18262557344E+03  0.47000000000E+01 0.  1.
         11    1    6    6    0    0 -0.53980499139E+02  0.24977068498E+02 -0.10102815040E+03  0.11723666411E+03  0.00000000000E+00 0. -1.
        -12    1    6    6    0    0 -0.11659925187E+03  0.11851858141E+03 -0.10522265784E+03  0.19675834772E+03  0.00000000000E+00 0.  1.
</event>
<event>
12    1  0.2357711E+000  0.2073437E+03  0.7818608E-02  0.1143856E+00
         21   -1    0    0  501  502  0.00000000000E+00  0.00000000000E+00  0.24137321368E+03  0.24137321368E+03  0.00000000000E+00 0. -1.
         21   -1    0    0  502  503 -0.00000000000E+00 -0.00000000000E+00 -0.14436795911E+04  0.14436795911E+04  0.00000000000E+00 0. -1.
         -6    2    1    2    0  503 -0.11312505578E+03 -0.23650404582E+02  0.18776443268E+03  0.27972643323E+03  0.17214753959E+03 0.  0.
        -24    2    3    3    0    0 -0.10081077032E+03 -0.75879971897E+02  0.16050058402E+03  0.21935279020E+03  0.80216130250E+02 0.  0.
          6    2    1    2  501    0  0.11312505578E+03  0.23650404582E+02 -0.13900708101E+04  0.14053263715E+04  0.17113951507E+03 0.  0.
         24    2    5    5    0    0  0.75609777166E+02  0.44797650701E+02 -0.48442592720E+03  0.49864597248E+03  0.79092724156E+02 0.  0.
          5    1    5    5  501    0  0.37515278609E+02 -0.21147246118E+02 -0.90564488288E+03  0.90668039906E+03  0.47000000000E+01 0. -1.
        -11    1    6    6    0    0  0.43392580514E+02 -0.68931508530E+01 -0.32543166682E+03  0.32838422822E+03  0.00000000000E+00 0.  1.
         12    1    6    6    0    0  0.32217196652E+02  0.51690801554E+02 -0.15899426038E+03  0.17026174426E+03  0.00000000000E+00 0. -1.
         -5    1    3    3    0  503 -0.12314285459E+02  0.52229567314E+02  0.27263848660E+02  0.60373643024E+02  0.47000000000E+01 0.  1.
         11    1    4    4    0    0 -0.36250822997E+01 -0.40445486605E+02  0.21096017833E+02  0.45760469587E+02  0.00000000000E+00 0. -1.
        -12    1    4    4    0    0 -0.97185688017E+02 -0.35434485291E+02  0.13940456619E+03  0.17359232062E+03  0.00000000000E+00 0.  1.
</event>
<event>
12    1  0.1050869E+000  0.1991359E+03  0.7818608E-02  0.1151077E+00
         21   -1    0    0  503  502  0.00000000000E+00  0.00000000000E+00  0.20818276726E+02  0.20818276726E+02  0.00000000000E+00 0.  1.
         21   -1    0    0  501  503 -0.00000000000E+00 -0.00000000000E+00 -0.23763109606E+04  0.23763109606E+04  0.00000000000E+00 0.  1.
          6    2    1    2  501    0 -0.75539534881E+02 -0.62039220892E+02 -0.62210277438E+03  0.65233822196E+03  0.17022986716E+03 0.  0.
         24    2    3    3    0    0 -0.91115110106E+02 -0.74664187904E+02 -0.61349977974E+03  0.63002029525E+03  0.81651016178E+02 0.  0.
         -6    2    1    2    0  502  0.75539534881E+02  0.62039220892E+02 -0.17333899095E+04  0.17447910153E+04  0.17349358121E+03 0.  0.
        -24    2    5    5    0    0 -0.26362885130E+02  0.42034980919E+02 -0.74557818437E+03  0.75152450173E+03  0.80251519381E+02 0.  0.
          5    1    3    3  501    0  0.15575575225E+02  0.12624967012E+02 -0.86029946427E+01  0.22317926706E+02  0.47000000000E+01 0. -1.
        -11    1    4    4    0    0 -0.92805141965E+01 -0.11037026443E+02 -0.28913742978E+03  0.28949679998E+03  0.00000000000E+00 0.  1.
         12    1    4    4    0    0 -0.81834595910E+02 -0.63627161461E+02 -0.32436234996E+03  0.34052349528E+03  0.00000000000E+00 0. -1.
         -5    1    5    5    0  502  0.10190242001E+03  0.20004239973E+02 -0.98781172509E+03  0.99326651361E+03  0.47000000000E+01 0.  1.
         11    1    6    6    0    0 -0.81573445529E+01  0.62508503912E+02 -0.60696001143E+03  0.61022480350E+03  0.00000000000E+00 0. -1.
        -12    1    6    6    0    0 -0.18205540577E+02 -0.20473522993E+02 -0.13861817294E+03  0.14129969823E+03  0.00000000000E+00 0.  1.
</event>
<event>
12    1  0.1050869E+000  0.2372204E+03  0.7818608E-02  0.1121803E+00
         21   -1    0    0  503  502  0.00000000000E+00  0.00000000000E+00  0.16057852006E+03  0.16057852006E+03  0.00000000000E+00 0.  1.
         21   -1    0    0  501  503 -0.00000000000E+00 -0.00000000000E+00 -0.53178910678E+03  0.53178910678E+03  0.00000000000E+00 0.  1.
          6    2    1    2  501    0 -0.75277988856E+02  0.14588762007E+03  0.17471307181E+02  0.23701377670E+03  0.17005972620E+03 0.  0.
         24    2    3    3    0    0 -0.25713852689E+02  0.83641118718E+02  0.73672078657E+02  0.13948507713E+03  0.79821504671E+02 0.  0.
         -6    2    1    2    0  502  0.75277988856E+02 -0.14588762007E+03 -0.38868189390E+03  0.45535385014E+03  0.17124117756E+03 0.  0.
        -24    2    5    5    0    0 -0.26306061686E+02 -0.67737324050E+02 -0.15558061746E+03  0.18929918814E+03  0.79677475801E+02 0.  0.
          5    1    3    3  501    0 -0.49564136167E+02  0.62246501354E+02 -0.56200771477E+02  0.97528699568E+02  0.47000000000E+01 0. -1.
        -11    1    4    4    0    0 -0.37306097914E+01  0.60429984285E+01  0.56602910894E+02  0.57046689659E+02  0.00000000000E+00 0.  1.
         12    1    4    4    0    0 -0.21983242898E+02  0.77598120289E+02  0.17069167763E+02  0.82438387471E+02  0.00000000000E+00 0. -1.
         -5    1    5    5    0  502  0.10158405054E+03 -0.78150296022E+02 -0.23310127644E+03  0.26605466200E+03  0.47000000000E+01 0.  1.
         13    1    6    6    0    0 -0.67896955420E+01 -0.82514843245E+02 -0.12776546570E+03  0.15224589829E+03  0.00000000000E+00 0. -1.
        -14    1    6    6    0    0 -0.19516366144E+02  0.14777519195E+02 -0.27815151761E+02  0.37053289847E+02  0.00000000000E+00 0.  1.
</event>
<event>
12    1  0.1050869E+000  0.2536176E+03  0.7818608E-02  0.1111329E+00
         21   -1    0    0  501  502  0.00000000000E+00  0.00000000000E+00  0.46477042425E+02  0.46477042425E+02  0.00000000000E+00 0. -1.
         21   -1    0    0  502  503 -0.00000000000E+00 -0.00000000000E+00 -0.19117578001E+04  0.19117578001E+04  0.00000000000E+00 0. -1.
         -6    2    1    2    0  503  0.16034080140E+03 -0.92862314254E+02 -0.14495507614E+04  0.14712509346E+04  0.17043861332E+03 0.  0.
        -24    2    3    3    0    0  0.18403998004E+03 -0.85687653114E+02 -0.11415113533E+04  0.11621821822E+04  0.80038532611E+02 0.  0.
          6    2    1    2  501    0 -0.16034080140E+03  0.92862314254E+02 -0.41572999629E+03  0.48698390786E+03  0.17317423221E+03 0.  0.
         24    2    5    5    0    0 -0.83514102092E+02  0.11551151382E+03 -0.35139424275E+03  0.38414176110E+03  0.61395958421E+02 0.  0.
          5    1    5    5  501    0 -0.76826699305E+02 -0.22649199570E+02 -0.64335753543E+02  0.10284214676E+03  0.47000000000E+01 0. -1.
        -11    1    6    6    0    0 -0.39733865230E+02  0.33447449810E+02 -0.19846619644E+03  0.20514956269E+03  0.00000000000E+00 0.  1.
         12    1    6    6    0    0 -0.43780236862E+02  0.82064064013E+02 -0.15292804631E+03  0.17899219841E+03  0.00000000000E+00 0. -1.
         -5    1    3    3    0  503 -0.23699178639E+02 -0.71746611398E+01 -0.30803940808E+03  0.30906875248E+03  0.47000000000E+01 0.  1.
         13    1    4    4    0    0  0.14912206837E+03 -0.46139388904E+02 -0.68112488525E+03  0.69878275865E+03  0.00000000000E+00 0. -1.
        -14    1    4    4    0    0  0.34917911669E+02 -0.39548264210E+02 -0.46038646804E+03  0.46339942351E+03  0.00000000000E+00 0.  1.
</event>
<event>
12    1  0.1050869E+000  0.2317203E+03  0.7818608E-02  0.1125452E+00
         21   -1    0    0  501  502  0.00000000000E+00  0.00000000000E+00  0.17132514184E+03  0.17132514184E+03  0.00000000000E+00 0.  1.
         21   -1    0    0  502  503 -0.00000000000E+00 -0.00000000000E+00 -0.32216217786E+03  0.32216217786E+03  0.00000000000E+00 0.  1.
         -6    2    1    2    0  503  0.14956279733E+03  0.41194132728E+02 -0.34405165655E+02  0.23415993827E+03  0.17199178571E+03 0.  0.
        -24    2    3    3    0    0  0.40309054758E+02  0.66172132958E+02 -0.48226561285E+02  0.12114046323E+03  0.79659522607E+02 0.  0.
          6    2    1    2  501    0 -0.14956279733E+03 -0.41194132728E+02 -0.11643187036E+03  0.25932738143E+03  0.17212879888E+03 0.  0.
         24    2    5    5    0    0 -0.84835224209E+02 -0.95187046499E+01 -0.13855243125E+03  0.18379989848E+03  0.85428364569E+02 0.  0.
          5    1    5    5  501    0 -0.64727573123E+02 -0.31675428078E+02  0.22120560885E+02  0.75527482946E+02  0.47000000000E+01 0. -1.
        -11    1    6    6    0    0  0.32720312166E+01  0.10563748035E+02 -0.68695621059E+02  0.69580078424E+02  0.00000000000E+00 0.  1.
         12    1    6    6    0    0 -0.88107255426E+02 -0.20082452685E+02 -0.69856810186E+02  0.11421982006E+03  0.00000000000E+00 0. -1.
         -5    1    3    3    0  503  0.10925374257E+03 -0.24978000230E+02  0.13821395630E+02  0.11301947504E+03  0.47000000000E+01 0.  1.
         13    1    4    4    0    0  0.56046371115E+02  0.17324909641E+02 -0.34341106023E+02  0.67975435064E+02  0.00000000000E+00 0. -1.
        -14    1    4    4    0    0 -0.15737316357E+02  0.48847223317E+02 -0.13885455262E+02  0.53165028164E+02  0.00000000000E+00 0.  1.
</event>
<event>
12    1  0.1050869E+000  0.2338489E+03  0.7818608E-02  0.1124283E+00
         21   -1    0    0  503  502  0.00000000000E+00  0.00000000000E+00  0.94201265870E+03  0.94201265870E+03  0.00000000000E+00 0. -1.
         21   -1    0    0  501  503 -0.00000000000E+00 -0.00000000000E+00 -0.65661433456E+02  0.65661433456E+02  0.00000000000E+00 0. -1.
          6    2    1    2  501    0  0.10511483800E+03  0.11684920788E+03  0.25997654949E+03  0.34842980665E+03  0.17062431633E+03 0.  0.
         24    2    3    3    0    0  0.27517533363E+02  0.76715551507E+02  0.22876265452E+03  0.25554035999E+03  0.79536362738E+02 0.  0.
         -6    2    1    2    0  502 -0.10511483800E+03 -0.11684920788E+03  0.61637467575E+03  0.65924428551E+03  0.17315432574E+03 0.  0.
        -24    2    5    5    0    0 -0.25742068044E+02 -0.11095405275E+03  0.26905483362E+03  0.30289059576E+03  0.79867099702E+02 0.  0.
          5    1    3    3  501    0  0.77597304634E+02  0.40133656372E+02  0.31213894977E+02  0.92889446655E+02  0.47000000000E+01 0. -1.
        -11    1    4    4    0    0  0.18324327895E+02  0.92722114438E+02  0.17819939939E+03  0.20171315634E+03  0.00000000000E+00 0.  1.
         12    1    4    4    0    0  0.91932054683E+01 -0.16006562931E+02  0.50563255133E+02  0.53827203654E+02  0.00000000000E+00 0. -1.
         -5    1    5    5    0  502 -0.79372769953E+02 -0.58951551331E+01  0.34731984213E+03  0.35635368975E+03  0.47000000000E+01 0.  1.
         11    1    6    6    0    0 -0.11024598600E+02 -0.83988367278E+02  0.25574846378E+03  0.26941207162E+03  0.00000000000E+00 0. -1.
        -12    1    6    6    0    0 -0.14717469444E+02 -0.26965685468E+02  0.13306369842E+02  0.33478524131E+02  0.00000000000E+00 0.  1.
</event>
<event>
12    1  0.1050869E+000  0.2134986E+03  0.7818608E-02  0.1138986E+00
         21   -1    0    0  503  502  0.00000000000E+00  0.00000000000E+00  0.84578259793E+02  0.84578259793E+02  0.00000000000E+00 0. -1.
         21   -1    0    0  501  503 -0.00000000000E+00 -0.00000000000E+00 -0.54269667984E+03  0.54269667984E+03  0.00000000000E+00 0. -1.
          6    2    1    2  501    0  0.11792149239E+03  0.42834768272E+02 -0.26120466191E+03  0.33683269419E+03  0.17172097347E+03 0.  0.
         24    2    3    3    0    0  0.70449249024E+02  0.90232227380E+02 -0.21269561624E+03  0.25391496067E+03  0.78284293049E+02 0.  0.
         -6    2    1    2    0  502 -0.11792149239E+03 -0.42834768272E+02 -0.19691375813E+03  0.29044224544E+03  0.17274656018E+03 0.  0.
        -24    2    5    5    0    0 -0.14284760963E+03 -0.12613260106E+02 -0.11643833119E+03  0.20081504411E+03  0.78767144579E+02 0.  0.
          5    1    3    3  501    0  0.47472243364E+02 -0.47397459107E+02 -0.48509045674E+02  0.82917733520E+02  0.47000000000E+01 0. -1.
        -13    1    4    4    0    0  0.16323356269E+02  0.14335809503E+02 -0.40096418212E-01  0.21724847565E+02  0.00000000000E+00 0.  1.
         14    1    4    4    0    0  0.54125892754E+02  0.75896417877E+02 -0.21265551982E+03  0.23219011310E+03  0.00000000000E+00 0. -1.
         -5    1    5    5    0  502  0.24926117239E+02 -0.30221508167E+02 -0.80475426942E+02  0.89627201329E+02  0.47000000000E+01 0.  1.
         13    1    6    6    0    0 -0.75354098171E+02  0.31440539266E+02 -0.45656518675E+02  0.93548197834E+02  0.00000000000E+00 0. -1.
        -14    1    6    6    0    0 -0.67493511456E+02 -0.44053799372E+02 -0.70781812512E+02  0.10726684628E+03  0.00000000000E+00 0.  1.
</event>
<event>
12    1  0.1050869E+000  0.1916384E+03  0.7818608E-02  0.1157283E+00
         21   -1    0    0  503  502  0.00000000000E+00  0.00000000000E+00  0.36000114787E+02  0.36000114787E+02  0.00000000000E+00 0.  1.
         21   -1    0    0  501  503 -0.00000000000E+00 -0.00000000000E+00 -0.13220967333E+04  0.13220967333E+04  0.00000000000E+00 0.  1.
          6    2    1    2  501    0 -0.12027314059E+02  0.83498532287E+02 -0.96957909278E+03  0.98808521175E+03  0.17062270467E+03 0.  0.
         24    2    3    3    0    0  0.57265437178E+02  0.38903811967E+02 -0.48669862380E+03  0.49820174420E+03  0.80849184528E+02 0.  0.
         -6    2    1    2    0  502  0.12027314059E+02 -0.83498532287E+02 -0.31651752570E+03  0.37001163630E+03  0.17207151346E+03 0.  0.
        -24    2    5    5    0    0  0.55163106296E+02 -0.10353311345E+03 -0.25722728220E+03  0.29385716179E+03  0.80150377088E+02 0.  0.
          5    1    3    3  501    0 -0.69292751237E+02  0.44594720321E+02 -0.48288046898E+03  0.48988346755E+03  0.47000000000E+01 0. -1.
        -13    1    4    4    0    0 -0.12098804701E+02 -0.10862699846E+02 -0.14878976115E+03  0.14967555695E+03  0.00000000000E+00 0.  1.
         14    1    4    4    0    0  0.69364241879E+02  0.49766511813E+02 -0.33790886265E+03  0.34852618726E+03  0.00000000000E+00 0. -1.
         -5    1    5    5    0  502 -0.43135792238E+02  0.20034581164E+02 -0.59290243497E+02  0.76154474513E+02  0.47000000000E+01 0.  1.
         11    1    6    6    0    0 -0.78506423051E+01 -0.63282090909E+02 -0.86409869994E+02  0.10739143936E+03  0.00000000000E+00 0. -1.
        -12    1    6    6    0    0  0.63013748601E+02 -0.40251022542E+02 -0.17081741221E+03  0.18646572243E+03  0.00000000000E+00 0.  1.
</event>
<event>
12    1  0.1050869E+000  0.1835941E+03  0.7818608E-02  0.1164627E+00
         21   -1    0    0  503  502  0.00000000000E+00  0.00000000000E+00  0.36341113817E+03  0.36341113817E+03  0.00000000000E+00 0. -1.
         21   -1    0    0  501  503 -0.00000000000E+00 -0.00000000000E+00 -0.93293521832E+02  0.93293521832E+02  0.00000000000E+00 0. -1.
          6    2    1    2  501    0  0.33458769409E+02 -0.52162728353E+02  0.15936761368E+03  0.24229298912E+03  0.17166076082E+03 0.  0.
         24    2    3    3    0    0  0.15635627623E+02 -0.98836487906E+02  0.95731596042E+02  0.16125141365E+03  0.82609658819E+02 0.  0.
         -6    2    1    2    0  502 -0.33458769409E+02  0.52162728353E+02  0.11075000266E+03  0.21441167088E+03  0.17281887062E+03 0.  0.
        -24    2    5    5    0    0 -0.36733094833E+02  0.64315530211E+00 -0.12569235666E+01  0.90991133141E+02  0.83235043994E+02 0.  0.
          5    1    3    3  501    0  0.17823141785E+02  0.46673759554E+02  0.63636017640E+02  0.81041575473E+02  0.47000000000E+01 0. -1.
        -11    1    4    4    0    0  0.36660933597E+02 -0.76291300583E+02  0.32062673286E+02  0.90511886596E+02  0.00000000000E+00 0.  1.
         12    1    4    4    0    0 -0.21025305974E+02 -0.22545187323E+02  0.63668922756E+02  0.70739527053E+02  0.00000000000E+00 0. -1.
         -5    1    5    5    0  502  0.32743254236E+01  0.51519573050E+02  0.11200692623E+03  0.12342053774E+03  0.47000000000E+01 0.  1.
         13    1    6    6    0    0 -0.42095093981E+02  0.31315962291E+02  0.16683372405E+02  0.55054712298E+02  0.00000000000E+00 0. -1.
        -14    1    6    6    0    0  0.53619991481E+01 -0.30672806989E+02 -0.17940295972E+02  0.35936420843E+02  0.00000000000E+00 0.  1.
</event>
<event>
12    1  0.1050869E+000  0.2021542E+03  0.7818608E-02  0.1151173E+00
         21   -1    0    0  503  502  0.00000000000E+00  0.00000000000E+00  0.12713240046E+03  0.12713240046E+03  0.00000000000E+00 0.  1.
         21   -1    0    0  501  503 -0.00000000000E+00 -0.00000000000E+00 -0.33625587174E+03  0.33625587174E+03  0.00000000000E+00 0.  1.
          6    2    1    2  501    0 -0.45765304822E+02  0.96094516541E+02 -0.30143812575E+02  0.20438928606E+03  0.17186538798E+03 0.  0.
         24    2    3    3    0    0  0.17770824991E+02  0.82511909563E+02 -0.62050113373E+02  0.13185357738E+03  0.80069543875E+02 0.  0.
         -6    2    1    2    0  502  0.45765304822E+02 -0.96094516541E+02 -0.17897965871E+03  0.25899898613E+03  0.15400693930E+03 0.  0.
        -24    2    5    5    0    0 -0.46372913517E+01 -0.34381428015E+02 -0.15119216237E+03  0.17448175742E+03  0.79882580370E+02 0.  0.
          5    1    3    3  501    0 -0.63536129813E+02  0.13582606978E+02  0.31906300798E+02  0.72535708686E+02  0.47000000000E+01 0. -1.
        -13    1    4    4    0    0  0.11297936238E+02 -0.32337806565E+01  0.13138807220E+02  0.17627505658E+02  0.00000000000E+00 0.  1.
         14    1    4    4    0    0  0.64728887534E+01  0.85745690220E+02 -0.75188920593E+02  0.11422607172E+03  0.00000000000E+00 0. -1.
         -5    1    5    5    0  502  0.50402596174E+02 -0.61713088526E+02 -0.27787496335E+02  0.84517228711E+02  0.47000000000E+01 0.  1.
         11    1    6    6    0    0  0.30860787895E+02 -0.34087240109E+02 -0.11468927345E+03  0.12356357721E+03  0.00000000000E+00 0. -1.
        -12    1    6    6    0    0 -0.35498079246E+02 -0.29418790610E+00 -0.36502888925E+02  0.50918180216E+02  0.00000000000E+00 0.  1.
</event>
<event>
12    1  0.1050869E+000  0.3247054E+03  0.7818608E-02  0.1073505E+00
         21   -1    0    0  501  502  0.00000000000E+00  0.00000000000E+00  0.55408315286E+03  0.55408315286E+03  0.00000000000E+00 0.  1.
         21   -1    0    0  502  503 -0.00000000000E+00 -0.00000000000E+00 -0.20624887801E+03  0.20624887801E+03  0.00000000000E+00 0.  1.
         -6    2    1    2    0  503 -0.45213138508E+00  0.27558898806E+03  0.27971307036E+03  0.42857086587E+03  0.17170932002E+03 0.  0.
        -24    2    3    3    0    0  0.33836038308E+01  0.23449008466E+03  0.29415601009E+03  0.38458767325E+03  0.79892875549E+02 0.  0.
          6    2    1    2  501    0  0.45213138508E+00 -0.27558898806E+03  0.68121204494E+02  0.33176116500E+03  0.17168423729E+03 0.  0.
         24    2    5    5    0    0 -0.32879396886E+02 -0.20630491231E+03 -0.77883445066E+01  0.22361485873E+03  0.79373642678E+02 0.  0.
          5    1    5    5  501    0  0.33331528272E+02 -0.69284075753E+02  0.75909549000E+02  0.10814630627E+03  0.47000000000E+01 0. -1.
        -13    1    6    6    0    0 -0.94456146798E+01  0.32712832257E+01  0.70177034981E+01  0.12213479971E+02  0.00000000000E+00 0.  1.
         14    1    6    6    0    0 -0.23433782207E+02 -0.20957619554E+03 -0.14806048005E+02  0.21140137876E+03  0.00000000000E+00 0. -1.
         -5    1    3    3    0  503 -0.38357352159E+01  0.41098903402E+02 -0.14442939730E+02  0.43983192626E+02  0.47000000000E+01 0.  1.
         11    1    4    4    0    0  0.37573962287E+02  0.17317814854E+03  0.20141109581E+03  0.26827020574E+03  0.00000000000E+00 0. -1.
        -12    1    4    4    0    0 -0.34190358456E+02  0.61311936122E+02  0.92744914277E+02  0.11631746750E+03  0.00000000000E+00 0.  1.
</event>
<event>
12    1  0.1050869E+000  0.4199792E+03  0.7818608E-02  0.1037103E+00
         21   -1    0    0  501  502  0.00000000000E+00  0.00000000000E+00  0.12553154141E+04  0.12553154141E+04  0.00000000000E+00 0.  1.
         21   -1    0    0  502  503 -0.00000000000E+00 -0.00000000000E+00 -0.15093006132E+03  0.15093006132E+03  0.00000000000E+00 0. -1.
         -6    2    1    2    0  503  0.37630176386E+03  0.69463832760E+02  0.73824541537E+03  0.84934612722E+03  0.17307313181E+03 0.  0.
        -24    2    3    3    0    0  0.15543276560E+03  0.89528102667E+02  0.38210622330E+03  0.42977145752E+03  0.80769511743E+02 0.  0.
          6    2    1    2  501    0 -0.37630176386E+03 -0.69463832760E+02  0.36613993744E+03  0.55689934824E+03  0.17219230161E+03 0.  0.
         24    2    5    5    0    0 -0.20846285736E+03 -0.42790116635E+01  0.27677575459E+03  0.35583466558E+03  0.80860485171E+02 0.  0.
          5    1    5    5  501    0 -0.16783890649E+03 -0.65184821097E+02  0.89364182855E+02  0.20106468265E+03  0.47000000000E+01 0. -1.
        -13    1    6    6    0    0 -0.12960402925E+03 -0.36560660295E+02  0.13677167327E+03  0.19193847162E+03  0.00000000000E+00 0.  1.
         14    1    6    6    0    0 -0.78858828113E+02  0.32281648632E+02  0.14000408132E+03  0.16389619396E+03  0.00000000000E+00 0. -1.
         -5    1    3    3    0  503  0.22086899826E+03 -0.20064269907E+02  0.35613919207E+03  0.41957466969E+03  0.47000000000E+01 0.  1.
         11    1    4    4    0    0  0.75087617743E+02  0.17363260697E+02  0.90839214542E+02  0.11912764607E+03  0.00000000000E+00 0. -1.
        -12    1    4    4    0    0  0.80345147855E+02  0.72164841970E+02  0.29126700876E+03  0.31064381145E+03  0.00000000000E+00 0.  1.
</event>
<event>
12    1  0.1050869E+000  0.2028035E+03  0.7818608E-02  0.1147456E+00
         21   -1    0    0  503  502  0.00000000000E+00  0.00000000000E+00  0.13285503333E+03  0.13285503333E+03  0.00000000000E+00 0. -1.
         21   -1    0    0  501  503 -0.00000000000E+00 -0.00000000000E+00 -0.31423816477E+03  0.31423816477E+03  0.00000000000E+00 0. -1.
          6    2    1    2  501    0 -0.10270697135E+03  0.29939639587E+02 -0.11913453363E+03  0.23495134942E+03  0.17194183758E+03 0.  0.
         24    2    3    3    0    0 -0.80362189459E+02  0.69722136758E+02 -0.33369808400E+02  0.13769080011E+03  0.80783379941E+02 0.  0.
         -6    2    1    2    0  502  0.10270697135E+03 -0.29939639587E+02 -0.62248597816E+02  0.21214184867E+03  0.17229095173E+03 0.  0.
        -24    2    5    5    0    0  0.66927339200E+02 -0.78848867805E+02 -0.74095094013E+02  0.15021669907E+03  0.79865894070E+02 0.  0.
          5    1    3    3  501    0 -0.22344781890E+02 -0.39782497171E+02 -0.85764725227E+02  0.97260549310E+02  0.47000000000E+01 0. -1.
        -11    1    4    4    0    0 -0.39436165900E+02  0.65111927849E+02 -0.52305444499E+02  0.92361430551E+02  0.00000000000E+00 0.  1.
         12    1    4    4    0    0 -0.40926023559E+02  0.46102089093E+01  0.18935636100E+02  0.45329369564E+02  0.00000000000E+00 0. -1.
         -5    1    5    5    0  502  0.35779632149E+02  0.48909228218E+02  0.11846496198E+02  0.61925149606E+02  0.47000000000E+01 0.  1.
         13    1    6    6    0    0 -0.23625069088E+01 -0.55328934089E+02 -0.18738673687E+02  0.58463751828E+02  0.00000000000E+00 0. -1.
        -14    1    6    6    0    0  0.69289846109E+02 -0.23519933716E+02 -0.55356420327E+02  0.91752947240E+02  0.00000000000E+00 0.  1.
</event>
<event>
12    1  0.1050869E+000  0.2757407E+03  0.7818608E-02  0.1098326E+00
         21   -1    0    0  501  502  0.00000000000E+00  0.00000000000E+00  0.59088983257E+03  0.59088983257E+03  0.00000000000E+00 0. -1.
         21   -1    0    0  502  503 -0.00000000000E+00 -0.00000000000E+00 -0.13690716556E+03  0.13690716556E+03  0.00000000000E+00 0. -1.
         -6    2    1    2    0  503 -0.11423051292E+03 -0.18296127081E+03  0.13190901908E+03  0.30381072983E+03  0.16845632534E+03 0.  0.
        -24    2    3    3    0    0 -0.12744150300E+03 -0.93309538882E+02  0.71001736403E+02  0.19452326312E+03  0.88600488655E+02 0.  0.
          6    2    1    2  501    0  0.11423051292E+03  0.18296127081E+03  0.32207364792E+03  0.42398626830E+03  0.17178324807E+03 0.  0.
         24    2    5    5    0    0  0.13510428778E+03  0.11617251487E+03  0.28718514691E+03  0.34565524060E+03  0.72477685961E+02 0.  0.
          5    1    5    5  501    0 -0.20873774860E+02  0.66788755938E+02  0.34888501015E+02  0.78331027695E+02  0.47000000000E+01 0. -1.
        -11    1    6    6    0    0  0.10638132863E+02  0.40457296182E+02  0.10044748750E+03  0.10881020371E+03  0.00000000000E+00 0.  1.
         12    1    6    6    0    0  0.12446615492E+03  0.75715218693E+02  0.18673765941E+03  0.23684503690E+03  0.00000000000E+00 0. -1.
         -5    1    3    3    0  503  0.13210990079E+02 -0.89651731931E+02  0.60907282680E+02  0.10928746671E+03  0.47000000000E+01 0.  1.
         13    1    4    4    0    0 -0.53081062577E+02 -0.14733386614E+02  0.66352355429E+02  0.86239822335E+02  0.00000000000E+00 0. -1.
        -14    1    4    4    0    0 -0.74360440424E+02 -0.78576152268E+02  0.46493809740E+01  0.10828344079E+03  0.00000000000E+00 0.  1.
</event>
<event>
12    1  0.1050869E+000  0.1854946E+03  0.7818608E-02  0.1163037E+00
         21   -1    0    0  503  502  0.00000000000E+00  0.00000000000E+00  0.27525896561E+03  0.27525896561E+03  0.00000000000E+00 0.  1.
         21   -1    0    0  501  503 -0.00000000000E+00 -0.00000000000E+00 -0.13320873272E+03  0.13320873272E+03  0.00000000000E+00 0.  1.
          6    2    1    2  501    0  0.15217624430E+02  0.63854484651E+02  0.12520153793E+03  0.22220945399E+03  0.17144283315E+03 0.  0.
         24    2    3    3    0    0 -0.31754537127E+00 -0.15122677029E+02  0.11359224535E+03  0.14075026641E+03  0.81722965520E+02 0.  0.
         -6    2    1    2    0  502 -0.15217624430E+02 -0.63854484651E+02  0.16848694957E+02  0.18625824434E+03  0.17349145154E+03 0.  0.
        -24    2    5    5    0    0 -0.13818672347E+02  0.21120117138E+02 -0.28030348926E+02  0.90035281404E+02  0.81753509914E+02 0.  0.
          5    1    3    3  501    0  0.15535169801E+02  0.78977161680E+02  0.11609292574E+02  0.81459187584E+02  0.47000000000E+01 0. -1.
        -13    1    4    4    0    0 -0.66803865419E+01  0.50879153733E+01 -0.11297146658E+02  0.14076220011E+02  0.00000000000E+00 0.  1.
         14    1    4    4    0    0  0.63628411707E+01 -0.20210592402E+02  0.12488939201E+03  0.12667404639E+03  0.00000000000E+00 0. -1.
         -5    1    5    5    0  502 -0.13989520826E+01 -0.84974601788E+02  0.44879043882E+02  0.96222962934E+02  0.47000000000E+01 0.  1.
         13    1    6    6    0    0 -0.50832278486E+01 -0.28899087016E+02 -0.26022284094E+02  0.39219328209E+02  0.00000000000E+00 0. -1.
        -14    1    6    6    0    0 -0.87354444984E+01  0.50019204153E+02 -0.20080648313E+01  0.50815953195E+02  0.00000000000E+00 0.  1.
</event>
<event>
12    1  0.1050869E+000  0.1911716E+03  0.7818608E-02  0.1158191E+00
         21   -1    0    0  501  502  0.00000000000E+00  0.00000000000E+00  0.38152434994E+03  0.38152434994E+03  0.00000000000E+00 0. -1.
         21   -1    0    0  502  503 -0.00000000000E+00 -0.00000000000E+00 -0.11227953686E+03  0.11227953686E+03  0.00000000000E+00 0. -1.
         -6    2    1    2    0  503  0.16099120230E+02  0.72909707597E+02  0.23509476232E+03  0.30301177647E+03  0.17598744920E+03 0.  0.
        -24    2    3    3    0    0  0.29538511027E+02  0.71838331672E+02  0.60980996803E+02  0.12831358411E+03  0.81929386462E+02 0.  0.
          6    2    1    2  501    0 -0.16099120230E+02 -0.72909707597E+02  0.34150050767E+02  0.19079211033E+03  0.17222193897E+03 0.  0.
         24    2    5    5    0    0  0.25909606480E+01 -0.11155545790E+03  0.11337252348E+01  0.13643237439E+03  0.78493147387E+02 0.  0.
          5    1    5    5  501    0 -0.18690080878E+02  0.38645750299E+02  0.33016325533E+02  0.54359735936E+02  0.47000000000E+01 0. -1.
        -13    1    6    6    0    0 -0.34619522887E+02 -0.81627685997E+02 -0.37328179307E-01  0.88665618362E+02  0.00000000000E+00 0.  1.
         14    1    6    6    0    0  0.37210483535E+02 -0.29927771899E+02  0.11710534141E+01  0.47766756032E+02  0.00000000000E+00 0. -1.
         -5    1    3    3    0  503 -0.13439390797E+02  0.10713759249E+01  0.17411376551E+03  0.17469819236E+03  0.47000000000E+01 0.  1.
         13    1    4    4    0    0 -0.13444664581E+02  0.29433381496E+02 -0.11168951873E+02  0.34231979755E+02  0.00000000000E+00 0. -1.
        -14    1    4    4    0    0  0.42983175608E+02  0.42404950176E+02  0.72149948676E+02  0.94081604359E+02  0.00000000000E+00 0.  1.
</event>
<event>
12    1  0.1050869E+000  0.1816144E+03  0.7818608E-02  0.1166297E+00
         21   -1    0    0  503  502  0.00000000000E+00  0.00000000000E+00  0.15143308234E+03  0.15143308234E+03  0.00000000000E+00 0. -1.
         21   -1    0    0  501  503 -0.00000000000E+00 -0.00000000000E+00 -0.25368750880E+03  0.25368750880E+03  0.00000000000E+00 0. -1.
          6    2    1    2  501    0 -0.40445701098E+02 -0.41463233215E+02 -0.12757687022E+03  0.22194516727E+03  0.17213002357E+03 0.  0.
         24    2    3    3    0    0 -0.90078780413E+02 -0.34731180164E+02 -0.11524865270E+03  0.17014904726E+03  0.79674367132E+02 0.  0.
         -6    2    1    2    0  502  0.40445701098E+02  0.41463233215E+02  0.25322443753E+02  0.18317542387E+03  0.17192136373E+03 0.  0.
        -24    2    5    5    0    0  0.89330585112E+02  0.47632048354E+02  0.31376471127E+02  0.13331033174E+03  0.80860349628E+02 0.  0.
          5    1    3    3  501    0  0.49633079316E+02 -0.67320530514E+01 -0.12328217516E+02  0.51796120007E+02  0.47000000000E+01 0. -1.
        -11    1    4    4    0    0 -0.67915650218E+02 -0.48754981460E+02 -0.44529386119E+02  0.94723017212E+02  0.00000000000E+00 0.  1.
         12    1    4    4    0    0 -0.22163130195E+02  0.14023801296E+02 -0.70719266583E+02  0.75426030049E+02  0.00000000000E+00 0. -1.
         -5    1    5    5    0  502 -0.48884884015E+02 -0.61688151393E+01 -0.60540273739E+01  0.49865092126E+02  0.47000000000E+01 0.  1.
         11    1    6    6    0    0  0.12340068937E+01  0.40839215360E+02  0.14503154448E+02  0.43355573727E+02  0.00000000000E+00 0. -1.
        -12    1    6    6    0    0  0.88096578218E+02  0.67928329946E+01  0.16873316679E+02  0.89954758016E+02  0.00000000000E+00 0.  1.
</event>
<event>
12    1  0.1050869E+000  0.2079934E+03  0.7818608E-02  0.1145533E+00
         21   -1    0    0  503  502  0.00000000000E+00  0.00000000000E+00  0.98687040942E+02  0.98687040942E+02  0.00000000000E+00 0.  1.
         21   -1    0    0  501  503 -0.00000000000E+00 -0.00000000000E+00 -0.44109650195E+03  0.44109650195E+03  0.00000000000E+00 0.  1.
          6    2    1    2  501    0 -0.45750119565E+02  0.94475290190E+02 -0.24195464067E+03  0.31906629278E+03  0.17956223753E+03 0.  0.
         24    2    3    3    0    0  0.43266882591E+02 -0.10851910484E+02 -0.58439251795E+02  0.89462647709E+02  0.50976779953E+02 0.  0.
         -6    2    1    2    0  502  0.45750119565E+02 -0.94475290190E+02 -0.10045482034E+03  0.22071725012E+03  0.16615137578E+03 0.  0.
        -24    2    5    5    0    0  0.53701255770E+02 -0.80363645145E+01 -0.14644399921E+02  0.98568051629E+02  0.80949331850E+02 0.  0.
          5    1    3    3  501    0 -0.89017002156E+02  0.10532720067E+03 -0.18351538887E+03  0.22960364507E+03  0.47000000000E+01 0. -1.
        -13    1    4    4    0    0  0.64469836189E+01 -0.10896239216E+02  0.69328394247E+01  0.14434538071E+02  0.00000000000E+00 0.  1.
         14    1    4    4    0    0  0.36819898972E+02  0.44328732483E-01 -0.65372091220E+02  0.75028109638E+02  0.00000000000E+00 0. -1.
         -5    1    5    5    0  502 -0.79511362043E+01 -0.86438925676E+02 -0.85810420421E+02  0.12214919849E+03  0.47000000000E+01 0.  1.
         13    1    6    6    0    0  0.66770592657E+02 -0.10094418494E+02 -0.33619977452E+02  0.75435483775E+02  0.00000000000E+00 0. -1.
        -14    1    6    6    0    0 -0.13069336888E+02  0.20580539793E+01  0.18975577531E+02  0.23132567854E+02  0.00000000000E+00 0.  1.
</event>
<event>
12    1  0.1050869E+000  0.2071360E+03  0.7818608E-02  0.1144179E+00
         21   -1    0    0  501  502  0.00000000000E+00  0.00000000000E+00  0.75926575055E+03  0.75926575055E+03  0.00000000000E+00 0. -1.
         21   -1    0    0  502  503 -0.00000000000E+00 -0.00000000000E+00 -0.96017021649E+02  0.96017021649E+02  0.00000000000E+00 0. -1.
         -6    2    1    2    0  503  0.43268775969E+02 -0.10289669527E+03  0.56550823957E+02  0.21471680131E+03  0.17448608025E+03 0.  0.
        -24    2    3    3    0    0  0.78916071723E+02 -0.78057435622E+02  0.86966910060E+02  0.16147258276E+03  0.78673006214E+02 0.  0.
          6    2    1    2  501    0 -0.43268775969E+02  0.10289669527E+03  0.60669790495E+03  0.64056597089E+03  0.17257606534E+03 0.  0.
         24    2    5    5    0    0  0.42024795171E+02  0.36950965300E+02  0.30427949125E+03  0.31946969324E+03  0.79645582791E+02 0.  0.
          5    1    5    5  501    0 -0.85293571140E+02  0.65945729973E+02  0.30241841369E+03  0.32109627765E+03  0.47000000000E+01 0. -1.
        -11    1    6    6    0    0 -0.59804623328E+01  0.47445815677E+02  0.13601319763E+03  0.14417510632E+03  0.00000000000E+00 0.  1.
         12    1    6    6    0    0  0.48005257504E+02 -0.10494850377E+02  0.16826629363E+03  0.17529458692E+03  0.00000000000E+00 0. -1.
         -5    1    3    3    0  503 -0.35647295755E+02 -0.24839259652E+02 -0.30416086103E+02  0.53244218545E+02  0.47000000000E+01 0.  1.
         11    1    4    4    0    0  0.39720293059E+02  0.12469273802E+01  0.54045750026E+02  0.67083527072E+02  0.00000000000E+00 0. -1.
        -12    1    4    4    0    0  0.39195778664E+02 -0.79304363002E+02  0.32921160035E+02  0.94389055691E+02  0.00000000000E+00 0.  1.
</event>
<event>
12    1  0.1050869E+000  0.2389336E+03  0.7818608E-02  0.1120920E+00
         21   -1    0    0  501  502  0.00000000000E+00  0.00000000000E+00  0.20006289434E+03  0.20006289434E+03  0.00000000000E+00 0.  1.
         21   -1    0    0  502  503 -0.00000000000E+00 -0.00000000000E+00 -0.30574640809E+03  0.30574640809E+03  0.00000000000E+00 0.  1.
         -6    2    1    2    0  503  0.16400234146E+03 -0.25962358832E+02 -0.12293903967E+03  0.26870664709E+03  0.17180932057E+03 0.  0.
        -24    2    3    3    0    0  0.19235154523E+03 -0.28200189050E+02 -0.11302488895E+03  0.23822606929E+03  0.78629936763E+02 0.  0.
          6    2    1    2  501    0 -0.16400234146E+03  0.25962358832E+02  0.17255525908E+02  0.23710265534E+03  0.16837192140E+03 0.  0.
         24    2    5    5    0    0 -0.38661379683E+02  0.34502669996E+02  0.49289779663E+02  0.10736608753E+03  0.80080321280E+02 0.  0.
          5    1    5    5  501    0 -0.12534096178E+03 -0.85403111649E+01 -0.32034253755E+02  0.12973656781E+03  0.47000000000E+01 0. -1.
        -11    1    6    6    0    0 -0.42994596681E+01  0.53474101055E+02  0.40303226206E+02  0.67099291201E+02  0.00000000000E+00 0.  1.
         12    1    6    6    0    0 -0.34361920015E+02 -0.18971431059E+02  0.89865534572E+01  0.40266796328E+02  0.00000000000E+00 0. -1.
         -5    1    3    3    0  503 -0.28349203766E+02  0.22378302182E+01 -0.99141507182E+01  0.30480577795E+02  0.47000000000E+01 0.  1.
         13    1    4    4    0    0  0.67314160306E+02 -0.14402451799E+02 -0.84941809392E+02  0.10933315041E+03  0.00000000000E+00 0. -1.
        -14    1    4    4    0    0  0.12503738492E+03 -0.13797737251E+02 -0.28083079557E+02  0.12889291888E+03  0.00000000000E+00 0.  1.
</event>
<event>
12    1  0.1050869E+000  0.1823157E+03  0.7818608E-02  0.1165686E+00
         21   -1    0    0  503  502  0.00000000000E+00  0.00000000000E+00  0.44407735940E+02  0.44407735940E+02  0.00000000000E+00 0.  1.
         21   -1    0    0  501  503 -0.00000000000E+00 -0.00000000000E+00 -0.98176590722E+03  0.98176590722E+03  0.00000000000E+00 0.  1.
          6    2    1    2  501    0  0.15168676441E+02 -0.60138064469E+02 -0.21803806460E+03  0.28421753815E+03  0.17144193138E+03 0.  0.
         24    2    3    3    0    0 -0.15718768857E+02 -0.27312284189E+01 -0.33918983155E+02  0.88842244795E+02  0.80547549553E+02 0.  0.
         -6    2    1    2    0  502 -0.15168676441E+02  0.60138064469E+02 -0.71932010668E+03  0.74195610501E+03  0.17097008610E+03 0.  0.
        -24    2    5    5    0    0 -0.13776368986E+02 -0.33709314351E+02 -0.35121125925E+03  0.36204100582E+03  0.79988968347E+02 0.  0.
          5    1    3    3  501    0  0.30887445297E+02 -0.57406836050E+02 -0.18411908144E+03  0.19537529335E+03  0.47000000000E+01 0. -1.
        -11    1    4    4    0    0 -0.34547236204E+01 -0.30586957013E+02  0.12592396347E+02  0.33257563055E+02  0.00000000000E+00 0.  1.
         12    1    4    4    0    0 -0.12264045236E+02  0.27855728594E+02 -0.46511379502E+02  0.55584681741E+02  0.00000000000E+00 0. -1.
         -5    1    5    5    0  502 -0.13923074545E+01  0.93847378820E+02 -0.36810884743E+03  0.37991509919E+03  0.47000000000E+01 0.  1.
         11    1    6    6    0    0 -0.30217897965E+01  0.24178663716E+02 -0.56897482170E+02  0.61895577143E+02  0.00000000000E+00 0. -1.
        -12    1    6    6    0    0 -0.10754579190E+02 -0.57887978067E+02 -0.29431377708E+03  0.30014542868E+03  0.00000000000E+00 0.  1.
</event>
<event>
12    1  0.1050869E+000  0.2231949E+03  0.7818608E-02  0.1131616E+00
         21   -1    0    0  503  502  0.00000000000E+00  0.00000000000E+00  0.19125386268E+04  0.19125386268E+04  0.00000000000E+00 0. -1.
         21   -1    0    0  501  503 -0.00000000000E+00 -0.00000000000E+00 -0.27715063947E+02  0.27715063947E+02  0.00000000000E+00 0. -1.
          6    2    1    2  501    0 -0.12449626819E+03 -0.68588061558E+02  0.11835902549E+04  0.12043568909E+04  0.17142341197E+03 0.  0.
         24    2    3    3    0    0 -0.76437584584E+02  0.23223782310E+02  0.76685984459E+03  0.77490913316E+03  0.77640807651E+02 0.  0.
         -6    2    1    2    0  502  0.12449626819E+03  0.68588061558E+02  0.70123330798E+03  0.73589679988E+03  0.17208226192E+03 0.  0.
        -24    2    5    5    0    0  0.96085889384E+02  0.13631887602E+02  0.24414718612E+03  0.27461907066E+03  0.79934091471E+02 0.  0.
          5    1    3    3  501    0 -0.48058683608E+02 -0.91811843868E+02  0.41673041028E+03  0.42944775771E+03  0.47000000000E+01 0. -1.
        -11    1    4    4    0    0 -0.44129557169E+02 -0.13189464244E+02  0.57953696378E+03  0.58136431966E+03  0.00000000000E+00 0.  1.
         12    1    4    4    0    0 -0.32308027415E+02  0.36413246553E+02  0.18732288081E+03  0.19354481350E+03  0.00000000000E+00 0. -1.
         -5    1    5    5    0  502  0.28410378809E+02  0.54956173956E+02  0.45708612186E+03  0.46127772922E+03  0.47000000000E+01 0.  1.
         13    1    6    6    0    0  0.36442259290E+01 -0.20693125264E+02  0.17126192311E+02  0.27107052199E+02  0.00000000000E+00 0. -1.
        -14    1    6    6    0    0  0.92441663454E+02  0.34325012867E+02  0.22702099381E+03  0.24751201846E+03  0.00000000000E+00 0.  1.
</event>
<event>
12    1  0.1050869E+000  0.1783758E+03  0.7818608E-02  0.1169975E+00
         21   -1    0    0  501  502  0.00000000000E+00  0.00000000000E+00  0.38446745776E+03  0.38446745776E+03  0.00000000000E+00 0. -1.
         21   -1    0    0  502  503 -0.00000000000E+00 -0.00000000000E+00 -0.10353513801E+03  0.10353513801E+03  0.00000000000E+00 0. -1.
         -6    2    1    2    0  503  0.51356661251E+01  0.42063620974E+02  0.25189530967E+03  0.30727884346E+03  0.17080198280E+03 0.  0.
        -24    2    3    3    0    0  0.94458476167E+01 -0.33113954877E+02  0.83196465484E+02  0.12247723198E+03  0.83025673382E+02 0.  0.
          6    2    1    2  501    0 -0.51356661251E+01 -0.42063620974E+02  0.29037010080E+02  0.18072375231E+03  0.17326916465E+03 0.  0.
         24    2    5    5    0    0 -0.26459794361E+01 -0.64833094607E+02 -0.37446809073E+02  0.11024797151E+03  0.80882756813E+02 0.  0.
          5    1    5    5  501    0 -0.24896866890E+01  0.22769473633E+02  0.66483819153E+02  0.70475780794E+02  0.47000000000E+01 0. -1.
        -11    1    6    6    0    0 -0.38791100208E+02 -0.51675937478E+02 -0.17626560228E+02  0.66976470458E+02  0.00000000000E+00 0.  1.
         12    1    6    6    0    0  0.36145120772E+02 -0.13157157129E+02 -0.19820248845E+02  0.43271501056E+02  0.00000000000E+00 0. -1.
         -5    1    3    3    0  503 -0.43101814916E+01  0.75177575851E+02  0.16869884419E+03  0.18480161148E+03  0.47000000000E+01 0.  1.
         11    1    4    4    0    0 -0.61462914474E+01 -0.25435898188E+02 -0.97458257055E+01  0.27923877486E+02  0.00000000000E+00 0. -1.
        -12    1    4    4    0    0  0.15592139064E+02 -0.76780566894E+01  0.92942291189E+02  0.94553354497E+02  0.00000000000E+00 0.  1.
</event>
<event>
12    1  0.1050869E+000  0.2676569E+03  0.7818608E-02  0.1102705E+00
         21   -1    0    0  503  502  0.00000000000E+00  0.00000000000E+00  0.52434567364E+03  0.52434567364E+03  0.00000000000E+00 0.  1.
         21   -1    0    0  501  503 -0.00000000000E+00 -0.00000000000E+00 -0.15377285577E+03  0.15377285577E+03  0.00000000000E+00 0. -1.
          6    2    1    2  501    0 -0.21955907360E+02  0.20328430345E+03  0.71015682681E+02  0.27640386847E+03  0.17189910245E+03 0.  0.
         24    2    3    3    0    0 -0.31582722482E+02  0.22521454885E+03  0.65571949666E+02  0.25139716013E+03  0.84745443323E+02 0.  0.
         -6    2    1    2    0  502  0.21955907360E+02 -0.20328430345E+03  0.29955713520E+03  0.40171466094E+03  0.17272412011E+03 0.  0.
        -24    2    5    5    0    0  0.66353340838E+02 -0.73185159488E+02  0.17671055831E+03  0.21729586902E+03  0.78943269927E+02 0.  0.
          5    1    3    3  501    0  0.96268151228E+01 -0.21930245405E+02  0.54437330155E+01  0.25006708341E+02  0.47000000000E+01 0. -1.
        -13    1    4    4    0    0  0.89920566195E+01  0.16400411076E+03  0.68357374164E+02  0.17790709944E+03  0.00000000000E+00 0.  1.
         14    1    4    4    0    0 -0.40574779102E+02  0.61210438098E+02 -0.27854244987E+01  0.73490060695E+02  0.00000000000E+00 0. -1.
         -5    1    5    5    0  502 -0.44397433478E+02 -0.13009914396E+03  0.12284657689E+03  0.18441879192E+03  0.47000000000E+01 0.  1.
         11    1    6    6    0    0  0.55604330858E+02 -0.43900985597E+02  0.49774960612E+02  0.86583398238E+02  0.00000000000E+00 0. -1.
        -12    1    6    6    0    0  0.10749009980E+02 -0.29284173891E+02  0.12693559769E+03  0.13071247078E+03  0.00000000000E+00 0.  1.
</event>
<event>
12    1  0.1050869E+000  0.1984888E+03  0.7818608E-02  0.1151155E+00
         21   -1    0    0  503  502  0.00000000000E+00  0.00000000000E+00  0.24782064461E+03  0.24782064461E+03  0.00000000000E+00 0.  1.
         21   -1    0    0  501  503 -0.00000000000E+00 -0.00000000000E+00 -0.24195949613E+03  0.24195949613E+03  0.00000000000E+00 0.  1.
          6    2    1    2  501    0  0.20607521115E+02 -0.96289350137E+02  0.14678471673E+03  0.24686749625E+03  0.17234122770E+03 0.  0.
         24    2    3    3    0    0  0.28953958772E+02  0.41140625345E+01  0.11428037263E+03  0.14089990364E+03  0.77055318051E+02 0.  0.
         -6    2    1    2    0  502 -0.20607521115E+02  0.96289350137E+02 -0.14092356825E+03  0.24291264449E+03  0.17161233024E+03 0.  0.
        -24    2    5    5    0    0  0.34236898575E+02  0.10334022929E+03 -0.79572517415E+02  0.16018618738E+03  0.86466530440E+02 0.  0.
          5    1    3    3  501    0 -0.83464376573E+01 -0.10040341267E+03  0.32504344100E+02  0.10596759261E+03  0.47000000000E+01 0. -1.
        -13    1    4    4    0    0  0.48881513005E+02 -0.52607476706E+01  0.10691705223E+03  0.11767894390E+03  0.00000000000E+00 0.  1.
         14    1    4    4    0    0 -0.19927554233E+02  0.93748102051E+01  0.73633203932E+01  0.23220959741E+02  0.00000000000E+00 0. -1.
         -5    1    5    5    0  502 -0.54844419690E+02 -0.70508791487E+01 -0.61351050834E+02  0.82726457112E+02  0.47000000000E+01 0.  1.
         11    1    6    6    0    0 -0.28735928197E+02  0.43627312224E+02 -0.29569204916E+02  0.60028608351E+02  0.00000000000E+00 0. -1.
        -12    1    6    6    0    0  0.62972826773E+02  0.59712917062E+02 -0.50003312499E+02  0.10015757903E+03  0.00000000000E+00 0.  1.
</event>
<event>
12    1  0.1050869E+000  0.2309782E+03  0.7818608E-02  0.1126056E+00
         21   -1    0    0  501  502  0.00000000000E+00  0.00000000000E+00  0.40039294321E+03  0.40039294321E+03  0.00000000000E+00 0. -1.
         21   -1    0    0  502  503 -0.00000000000E+00 -0.00000000000E+00 -0.14056700004E+03  0.14056700004E+03  0.00000000000E+00 0. -1.
         -6    2    1    2    0  503  0.92439123147E+02  0.12399369217E+03  0.19320927450E+03  0.30113247010E+03  0.17155615293E+03 0.  0.
        -24    2    3    3    0    0  0.10286354047E+03  0.15173504433E+03  0.16255556696E+03  0.25823735520E+03  0.81595267222E+02 0.  0.
          6    2    1    2  501    0 -0.92439123147E+02 -0.12399369217E+03  0.66616668667E+02  0.23982747315E+03  0.17076302044E+03 0.  0.
         24    2    5    5    0    0 -0.10477227135E+03 -0.50511745578E+02  0.82955523822E+02  0.16340266562E+03  0.79310446432E+02 0.  0.
          5    1    5    5  501    0  0.12333148203E+02 -0.73481946588E+02 -0.16338855155E+02  0.76424807535E+02  0.47000000000E+01 0. -1.
        -11    1    6    6    0    0 -0.75093795523E+02 -0.69503525894E+02  0.76071076613E+02  0.12750147817E+03  0.00000000000E+00 0.  1.
         12    1    6    6    0    0 -0.29678475827E+02  0.18991780316E+02  0.68844472087E+01  0.35901187450E+02  0.00000000000E+00 0. -1.
         -5    1    3    3    0  503 -0.10424417321E+02 -0.27741352167E+02  0.30653707532E+02  0.42895114896E+02  0.47000000000E+01 0.  1.
         13    1    4    4    0    0  0.51658325510E-01  0.35623885128E+01  0.40069536357E+02  0.40227615196E+02  0.00000000000E+00 0. -1.
        -14    1    4    4    0    0  0.10281188214E+03  0.14817265582E+03  0.12248603061E+03  0.21800974000E+03  0.00000000000E+00 0.  1.
</event>
<event>
12    1  0.1050869E+000  0.2337504E+03  0.7818608E-02  0.1124886E+00
         21   -1    0    0  503  502  0.00000000000E+00  0.00000000000E+00  0.14055827980E+03  0.14055827980E+03  0.00000000000E+00 0.  1.
         21   -1    0    0  501  503 -0.00000000000E+00 -0.00000000000E+00 -0.38824756217E+03  0.38824756217E+03  0.00000000000E+00 0.  1.
          6    2    1    2  501    0  0.52687308254E+02 -0.14980186777E+03 -0.16228668211E+03  0.28456322566E+03  0.17153049342E+03 0.  0.
         24    2    3    3    0    0  0.22454547285E+02 -0.10958456633E+03 -0.18431046248E+03  0.22943983614E+03  0.78481258637E+02 0.  0.
         -6    2    1    2    0  502 -0.52687308254E+02  0.14980186777E+03 -0.85402600257E+02  0.24424261630E+03  0.16475527139E+03 0.  0.
        -24    2    5    5    0    0  0.12661506921E+02  0.14734418900E+03 -0.39139834377E+02  0.16400022516E+03  0.59106035473E+02 0.  0.
          5    1    3    3  501    0  0.30232760969E+02 -0.40217301437E+02  0.22023780369E+02  0.55123389522E+02  0.47000000000E+01 0. -1.
        -13    1    4    4    0    0 -0.17233774715E+02 -0.89361063468E+02 -0.13687037756E+03  0.16436515113E+03  0.00000000000E+00 0.  1.
         14    1    4    4    0    0  0.39688322000E+02 -0.20223502863E+02 -0.47440084926E+02  0.65074685009E+02  0.00000000000E+00 0. -1.
         -5    1    5    5    0  502 -0.65348815175E+02  0.24576787724E+01 -0.46262765880E+02  0.80242391144E+02  0.47000000000E+01 0.  1.
         13    1    6    6    0    0 -0.16547961661E+02  0.98559078870E+02 -0.10955375698E+02  0.10053729318E+03  0.00000000000E+00 0. -1.
        -14    1    6    6    0    0  0.29209468582E+02  0.48785110126E+02 -0.28184458679E+02  0.63462931983E+02  0.00000000000E+00 0.  1.
</event>
<event>
12    1  0.1050869E+000  0.2501302E+03  0.7818608E-02  0.1113245E+00
         21   -1    0    0  503  502  0.00000000000E+00  0.00000000000E+00  0.55606751490E+03  0.55606751490E+03  0.00000000000E+00 0. -1.
         21   -1    0    0  501  503 -0.00000000000E+00 -0.00000000000E+00 -0.13554010290E+03  0.13554010290E+03  0.00000000000E+00 0. -1.
          6    2    1    2  501    0 -0.16319918326E+02  0.18191273911E+03  0.67488651286E+02  0.25893975791E+03  0.17069415862E+03 0.  0.
         24    2    3    3    0    0  0.31820686748E+02  0.73815793061E+02 -0.15993105037E+02  0.11404751781E+03  0.79307814870E+02 0.  0.
         -6    2    1    2    0  502  0.16319918326E+02 -0.18191273911E+03  0.35303876071E+03  0.43266785989E+03  0.17089916919E+03 0.  0.
        -24    2    5    5    0    0 -0.16861061589E+01 -0.36796859694E+02  0.20906965710E+03  0.22740698156E+03  0.81528902272E+02 0.  0.
          5    1    3    3  501    0 -0.48140605074E+02  0.10809694605E+03  0.83481756323E+02  0.14489224010E+03  0.47000000000E+01 0. -1.
        -11    1    4    4    0    0  0.29888940924E+02  0.22235894937E+02  0.27698817325E+02  0.46422066890E+02  0.00000000000E+00 0.  1.
         12    1    4    4    0    0  0.19317458240E+01  0.51579898124E+02 -0.43691922362E+02  0.67625450920E+02  0.00000000000E+00 0. -1.
         -5    1    5    5    0  502  0.18006024485E+02 -0.14511587942E+03  0.14396910362E+03  0.20526087833E+03  0.47000000000E+01 0.  1.
         13    1    6    6    0    0 -0.37350493188E+02 -0.26578329860E+02  0.71588481379E+02  0.85008103294E+02  0.00000000000E+00 0. -1.
        -14    1    6    6    0    0  0.35664387029E+02 -0.10218529835E+02  0.13748117572E+03  0.14239887827E+03  0.00000000000E+00 0.  1.
</event>
<event>
12    1  0.1050869E+000  0.2558563E+03  0.7818608E-02  0.1109703E+00
         21   -1    0    0  503  502  0.00000000000E+00  0.00000000000E+00  0.55635273983E+03  0.55635273983E+03  0.00000000000E+00 0. -1.
         21   -1    0    0  501  503 -0.00000000000E+00 -0.00000000000E+00 -0.12577859540E+03  0.12577859540E+03  0.00000000000E+00 0.  1.
          6    2    1    2  501    0 -0.17240219524E+03 -0.78099906708E+02  0.12805717365E+03  0.28611372389E+03  0.17216361673E+03 0.  0.
         24    2    3    3    0    0 -0.92696454770E+02 -0.62096029939E+02  0.14509640892E+03  0.20291784254E+03  0.87602130558E+02 0.  0.
         -6    2    1    2    0  502  0.17240219524E+03  0.78099906708E+02  0.30251697079E+03  0.39601761134E+03  0.17173036578E+03 0.  0.
        -24    2    5    5    0    0  0.11053551816E+03 -0.20703131057E+02  0.18119987620E+03  0.22770405443E+03  0.79806145478E+02 0.  0.
          5    1    3    3  501    0 -0.79705740467E+02 -0.16003876769E+02 -0.17039235273E+02  0.83195881351E+02  0.47000000000E+01 0. -1.
        -13    1    4    4    0    0 -0.97249985997E+02 -0.28562619346E+02  0.78446796553E+02  0.12816896227E+03  0.00000000000E+00 0.  1.
         14    1    4    4    0    0  0.45535312269E+01 -0.33533410593E+02  0.66649612367E+02  0.74748880268E+02  0.00000000000E+00 0. -1.
         -5    1    5    5    0  502  0.61866677076E+02  0.98803037765E+02  0.12131709459E+03  0.16831355692E+03  0.47000000000E+01 0.  1.
         11    1    6    6    0    0  0.10789550471E+03 -0.96519429201E+01  0.18609876707E+03  0.21533079446E+03  0.00000000000E+00 0. -1.
        -12    1    6    6    0    0  0.26400134549E+01 -0.11051188137E+02 -0.48988908737E+01  0.12373259962E+02  0.00000000000E+00 0.  1.
</event>
<event>
12    1  0.1050869E+000  0.3786719E+03  0.7818608E-02  0.1051536E+00
         21   -1    0    0  501  502  0.00000000000E+00  0.00000000000E+00  0.18230576604E+03  0.18230576604E+03  0.00000000000E+00 0. -1.
         21   -1    0    0  502  503 -0.00000000000E+00 -0.00000000000E+00 -0.10120890241E+04  0.10120890241E+04  0.00000000000E+00 0.  1.
         -6    2    1    2    0  503  0.23539322488E+03 -0.23970186909E+03 -0.13194440174E+03  0.40100091314E+03  0.17471534226E+03 0.  0.
        -24    2    3    3    0    0  0.71992589024E+02 -0.13814117057E+03 -0.15667585562E+02  0.17615267262E+03  0.80736453692E+02 0.  0.
          6    2    1    2  501    0 -0.23539322488E+03  0.23970186909E+03 -0.69783885636E+03  0.79339387704E+03  0.17212733170E+03 0.  0.
         24    2    5    5    0    0 -0.59450893043E+02  0.15122612182E+03 -0.35912788671E+03  0.40156371875E+03  0.76660502210E+02 0.  0.
          5    1    5    5  501    0 -0.17594233183E+03  0.88475747274E+02 -0.33871096965E+03  0.39183015829E+03  0.47000000000E+01 0. -1.
        -13    1    6    6    0    0 -0.33646608349E+01  0.59764099728E+02 -0.20649069960E+03  0.21499180817E+03  0.00000000000E+00 0.  1.
         14    1    6    6    0    0 -0.56086232208E+02  0.91462022089E+02 -0.15263718710E+03  0.18657191057E+03  0.00000000000E+00 0. -1.
         -5    1    3    3    0  503  0.16340063585E+03 -0.10156069853E+03 -0.11627681618E+03  0.22484824051E+03  0.47000000000E+01 0.  1.
         11    1    4    4    0    0  0.47355035759E+02 -0.98756077647E+02 -0.47972209228E+02  0.11956837016E+03  0.00000000000E+00 0. -1.
        -12    1    4    4    0    0  0.24637553265E+02 -0.39385092918E+02  0.32304623666E+02  0.56584302464E+02  0.00000000000E+00 0.  1.
</event>
<event>
12    1  0.1050869E+000  0.2166626E+03  0.7818608E-02  0.1137192E+00
         21   -1    0    0  501  502  0.00000000000E+00  0.00000000000E+00  0.11303381243E+04  0.11303381243E+04  0.00000000000E+00 0.  1.
         21   -1    0    0  502  503 -0.00000000000E+00 -0.00000000000E+00 -0.67542984872E+02  0.67542984872E+02  0.00000000000E+00 0.  1.
         -6    2    1    2    0  503 -0.14487989460E+02 -0.11007866713E+03  0.15101349604E+03  0.26071066872E+03  0.18121192567E+03 0.  0.
        -24    2    3    3    0    0 -0.18396845510E+02 -0.14948512839E+03  0.13659963589E+03  0.21830786564E+03  0.79464559028E+02 0.  0.
          6    2    1    2  501    0  0.14487989460E+02  0.11007866713E+03  0.91178164341E+03  0.93717044047E+03  0.18605228951E+03 0.  0.
         24    2    5    5    0    0 -0.38456743647E+02  0.71526957897E+01  0.55769386704E+03  0.56461555362E+03  0.78982225002E+02 0.  0.
          5    1    5    5  501    0  0.52944733107E+02  0.10292597134E+03  0.35408777637E+03  0.37255488685E+03  0.47000000000E+01 0. -1.
        -13    1    6    6    0    0 -0.38537002691E+02  0.34436627642E+02  0.22750410870E+03  0.23330045301E+03  0.00000000000E+00 0.  1.
         14    1    6    6    0    0  0.80259043867E-01 -0.27283931852E+02  0.33018975834E+03  0.33131510061E+03  0.00000000000E+00 0. -1.
         -5    1    3    3    0  503  0.39088560502E+01  0.39406461262E+02  0.14413860146E+02  0.42402803081E+02  0.47000000000E+01 0.  1.
         13    1    4    4    0    0  0.17532694969E+02 -0.97594331782E+02  0.11442430895E+03  0.15140994507E+03  0.00000000000E+00 0. -1.
        -14    1    4    4    0    0 -0.35929540479E+02 -0.51890796607E+02  0.22175326945E+02  0.66897920571E+02  0.00000000000E+00 0.  1.
</event>
<event>
12    1  0.1050869E+000  0.3468698E+03  0.7818608E-02  0.1064102E+00
         21   -1    0    0  503  502  0.00000000000E+00  0.00000000000E+00  0.18217021364E+03  0.18217021364E+03  0.00000000000E+00 0.  1.
         21   -1    0    0  501  503 -0.00000000000E+00 -0.00000000000E+00 -0.79238850234E+03  0.79238850234E+03  0.00000000000E+00 0. -1.
          6    2    1    2  501    0 -0.41679111067E+02  0.29667724712E+03 -0.10294624443E+03  0.36003157986E+03  0.17108556921E+03 0.  0.
         24    2    3    3    0    0 -0.86366807427E+02  0.15255287953E+03 -0.48107522328E+02  0.19941340224E+03  0.81974171600E+02 0.  0.
         -6    2    1    2    0  502  0.41679111067E+02 -0.29667724712E+03 -0.50727204427E+03  0.61452713611E+03  0.17482601882E+03 0.  0.
        -24    2    5    5    0    0 -0.28019827884E+02 -0.12664742717E+03 -0.31501621993E+03  0.34853376446E+03  0.73592693881E+02 0.  0.
          5    1    3    3  501    0  0.44687696361E+02  0.14412436760E+03 -0.54838722099E+02  0.16061817762E+03  0.47000000000E+01 0. -1.
        -11    1    4    4    0    0 -0.41766747878E+02  0.88649158754E+02  0.14999724964E+02  0.99136906978E+02  0.00000000000E+00 0.  1.
         12    1    4    4    0    0 -0.44600059549E+02  0.63903720772E+02 -0.63107247292E+02  0.10027649526E+03  0.00000000000E+00 0. -1.
         -5    1    5    5    0  502  0.69698938950E+02 -0.17002981996E+03 -0.19225582435E+03  0.26599337165E+03  0.47000000000E+01 0.  1.
         13    1    6    6    0    0 -0.89153176907E+01 -0.39088535655E+01 -0.97999354519E+02  0.98481650635E+02  0.00000000000E+00 0. -1.
        -14    1    6    6    0    0 -0.19104510193E+02 -0.12273857360E+03 -0.21701686541E+03  0.25005211383E+03  0.00000000000E+00 0.  1.
</event>
<event>
12    1  0.1050869E+000  0.1988235E+03  0.7818608E-02  0.1151182E+00
         21   -1    0    0  501  502  0.00000000000E+00  0.00000000000E+00  0.15918332694E+03  0.15918332694E+03  0.00000000000E+00 0. -1.
         21   -1    0    0  502  503 -0.00000000000E+00 -0.00000000000E+00 -0.46879473309E+03  0.46879473309E+03  0.00000000000E+00 0. -1.
         -6    2    1    2    0  503  0.20257970046E+02 -0.95389442597E+02 -0.37182004928E+03  0.42164076464E+03  0.17326642563E+03 0.  0.
        -24    2    3    3    0    0  0.71858233652E+02 -0.45261491032E+02 -0.28939472535E+03  0.31213540971E+03  0.80417651199E+02 0.  0.
          6    2    1    2  501    0 -0.20257970046E+02  0.95389442597E+02  0.62208643128E+02  0.20633729539E+03  0.17086729670E+03 0.  0.
         24    2    5    5    0    0  0.10061251040E+02  0.10459423537E+03  0.94180311052E+02  0.16107957862E+03  0.77688588702E+02 0.  0.
          5    1    5    5  501    0 -0.30319221086E+02 -0.92047927741E+01 -0.31971667924E+02  0.45257716769E+02  0.47000000000E+01 0. -1.
        -11    1    6    6    0    0 -0.19159198424E+02  0.31329317994E+02 -0.18963907016E+01  0.36772236102E+02  0.00000000000E+00 0.  1.
         12    1    6    6    0    0  0.29220449464E+02  0.73264917377E+02  0.96076701754E+02  0.12430734252E+03  0.00000000000E+00 0. -1.
         -5    1    3    3    0  503 -0.51600263606E+02 -0.50127951565E+02 -0.82425323932E+02  0.10950535493E+03  0.47000000000E+01 0.  1.
         11    1    4    4    0    0  0.30177127345E+02 -0.44319150935E+02 -0.24670598231E+03  0.25246522109E+03  0.00000000000E+00 0. -1.
        -12    1    4    4    0    0  0.41681106307E+02 -0.94234009715E+00 -0.42688743038E+02  0.59670188620E+02  0.00000000000E+00 0.  1.
</event>
<event>
12    1  0.1050869E+000  0.1804622E+03  0.7818608E-02  0.1168971E+00
         21   -1    0    0  501  502  0.00000000000E+00  0.00000000000E+00  0.14702053484E+03  0.14702053484E+03  0.00000000000E+00 0.  1.
         21   -1    0    0  502  503 -0.00000000000E+00 -0.00000000000E+00 -0.22945100628E+03  0.22945100628E+03  0.00000000000E+00 0.  1.
         -6    2    1    2    0  503 -0.54465495216E+02 -0.33195205744E+01  0.90750057233E+01  0.17413552072E+03  0.16511606361E+03 0.  0.
        -24    2    3    3    0    0 -0.97618196662E+02 -0.62939769575E+01 -0.10630236064E+02  0.12637162654E+03  0.79296025189E+02 0.  0.
          6    2    1    2  501    0  0.54465495216E+02  0.33195205744E+01 -0.91505477158E+02  0.20233602040E+03  0.17201483487E+03 0.  0.
         24    2    5    5    0    0  0.45095394268E+02  0.39705543688E+02  0.68211821434E+01  0.96970165402E+02  0.75806066172E+02 0.  0.
          5    1    5    5  501    0  0.93701009472E+01 -0.36386023114E+02 -0.98326659301E+02  0.10536585500E+03  0.47000000000E+01 0. -1.
        -13    1    6    6    0    0  0.46356363791E+02  0.22673371484E+02 -0.27617167707E+02  0.58529498465E+02  0.00000000000E+00 0.  1.
         14    1    6    6    0    0 -0.12609695226E+01  0.17032172204E+02  0.34438349851E+02  0.38440666937E+02  0.00000000000E+00 0. -1.
         -5    1    3    3    0  503  0.43152701447E+02  0.29744563831E+01  0.19705241788E+02  0.47763894176E+02  0.47000000000E+01 0.  1.
         11    1    4    4    0    0  0.60498828404E+01  0.17068400276E+02  0.54105323789E+01  0.18899873836E+02  0.00000000000E+00 0. -1.
        -12    1    4    4    0    0 -0.10366807950E+03 -0.23362377234E+02 -0.16040768443E+02  0.10747175271E+03  0.00000000000E+00 0.  1.
</event>
<event>
12    1  0.1050869E+000  0.2417306E+03  0.7818608E-02  0.1119142E+00
         21   -1    0    0  503  502  0.00000000000E+00  0.00000000000E+00  0.46906380103E+03  0.46906380103E+03  0.00000000000E+00 0.  1.
         21   -1    0    0  501  503 -0.00000000000E+00 -0.00000000000E+00 -0.19985399832E+03  0.19985399832E+03  0.00000000000E+00 0.  1.
          6    2    1    2  501    0 -0.96466811538E+02  0.13680353205E+03  0.34247130414E+03  0.41919002560E+03  0.17439217669E+03 0.  0.
         24    2    3    3    0    0 -0.58280016632E+02  0.10340575025E+03  0.10883953378E+03  0.18006759408E+03  0.80554235152E+02 0.  0.
         -6    2    1    2    0  502  0.96466811538E+02 -0.13680353205E+03 -0.73261501428E+02  0.24972777376E+03  0.17022238774E+03 0.  0.
        -24    2    5    5    0    0  0.93491589680E+02 -0.40326621591E+02 -0.86028252291E+02  0.15225097588E+03  0.73570277393E+02 0.  0.
          5    1    3    3  501    0 -0.38186794907E+02  0.33397781801E+02  0.23363177036E+03  0.23912243152E+03  0.47000000000E+01 0. -1.
        -13    1    4    4    0    0  0.11842018539E+02  0.14163195025E+02  0.47707460141E+02  0.51154972872E+02  0.00000000000E+00 0.  1.
         14    1    4    4    0    0 -0.70122035170E+02  0.89242555222E+02  0.61132073641E+02  0.12891262121E+03  0.00000000000E+00 0. -1.
         -5    1    5    5    0  502  0.29752218587E+01 -0.96476910458E+02  0.12766750863E+02  0.97476797877E+02  0.47000000000E+01 0.  1.
         13    1    6    6    0    0  0.10102508286E+02 -0.29190673695E+02 -0.54040267535E+02  0.62245534938E+02  0.00000000000E+00 0. -1.
        -14    1    6    6    0    0  0.83389081394E+02 -0.11135947896E+02 -0.31987984756E+02  0.90005440946E+02  0.00000000000E+00 0.  1.
</event>
<event>
12    1  0.1050869E+000  0.2761405E+03  0.7818608E-02  0.1097861E+00
         21   -1    0    0  503  502  0.00000000000E+00  0.00000000000E+00  0.44506971680E+03  0.44506971680E+03  0.00000000000E+00 0.  1.
         21   -1    0    0  501  503 -0.00000000000E+00 -0.00000000000E+00 -0.18987166564E+03  0.18987166564E+03  0.00000000000E+00 0.  1.
          6    2    1    2  501    0  0.21188298074E+03 -0.37743457529E+02  0.27781922130E+02  0.27721007654E+03  0.17249529044E+03 0.  0.
         24    2    3    3    0    0  0.12697866940E+03 -0.84313810854E+02  0.47328783613E+02  0.17830755035E+03  0.79505770672E+02 0.  0.
         -6    2    1    2    0  502 -0.21188298074E+03  0.37743457529E+02  0.22741612903E+03  0.35773130590E+03  0.17301625750E+03 0.  0.
        -24    2    5    5    0    0 -0.33307146729E+01  0.14474868636E+02  0.80338490202E+02  0.10143187797E+03  0.60112705632E+02 0.  0.
          5    1    3    3  501    0  0.84904311337E+02  0.46570353325E+02 -0.19546861483E+02  0.98902526187E+02  0.47000000000E+01 0. -1.
        -13    1    4    4    0    0  0.12157355385E+03 -0.53492279307E+02  0.58429067879E+02  0.14510516502E+03  0.00000000000E+00 0.  1.
         14    1    4    4    0    0  0.54051155495E+01 -0.30821531547E+02 -0.11100284266E+02  0.33202385333E+02  0.00000000000E+00 0. -1.
         -5    1    5    5    0  502 -0.20855226607E+03  0.23268588893E+02  0.14707763883E+03  0.25629942793E+03  0.47000000000E+01 0.  1.
         11    1    6    6    0    0 -0.67380956693E+01  0.28082963042E+02  0.82343475344E+02  0.87261117791E+02  0.00000000000E+00 0. -1.
        -12    1    6    6    0    0  0.34073809964E+01 -0.13608094407E+02 -0.20049851420E+01  0.14170760179E+02  0.00000000000E+00 0.  1.
</event>
<event>
12    1  0.1050869E+000  0.1994148E+03  0.7818608E-02  0.1150440E+00
         21   -1    0    0  501  502  0.00000000000E+00  0.00000000000E+00  0.38374925846E+03  0.38374925846E+03  0.00000000000E+00 0.  1.
         21   -1    0    0  502  503 -0.00000000000E+00 -0.00000000000E+00 -0.12097210539E+03  0.12097210539E+03  0.00000000000E+00 0.  1.
         -6    2    1    2    0  503  0.25323475238E+02  0.95557174096E+02  0.34720683214E+02  0.20241493829E+03  0.17318726709E+03 0.  0.
        -24    2    3    3    0    0  0.80764745218E+01 -0.16918071934E+02  0.34466045402E+02  0.88527736009E+02  0.79358686724E+02 0.  0.
          6    2    1    2  501    0 -0.25323475238E+02 -0.95557174096E+02  0.22805646985E+03  0.30230642556E+03  0.17206675906E+03 0.  0.
         24    2    5    5    0    0  0.19266003643E+02  0.14154028768E+02  0.10265587255E+03  0.12976028835E+03  0.75683477970E+02 0.  0.
          5    1    5    5  501    0 -0.44589478881E+02 -0.10971120286E+03  0.12540059731E+03  0.17254613721E+03  0.47000000000E+01 0. -1.
        -13    1    6    6    0    0 -0.13799424930E+02  0.12285570845E+02  0.93628183248E+02  0.95433726102E+02  0.00000000000E+00 0.  1.
         14    1    6    6    0    0  0.33065428573E+02  0.18684579224E+01  0.90276892992E+01  0.34326562249E+02  0.00000000000E+00 0. -1.
         -5    1    3    3    0  503  0.17247000716E+02  0.11247524603E+03  0.25463781257E+00  0.11388720228E+03  0.47000000000E+01 0.  1.
         13    1    4    4    0    0  0.14970163095E+02  0.26880863053E+02 -0.24047502897E+01  0.30862103063E+02  0.00000000000E+00 0. -1.
        -14    1    4    4    0    0 -0.68936885728E+01 -0.43798934986E+02  0.36870795691E+02  0.57665632946E+02  0.00000000000E+00 0.  1.
</event>
<event>
12    1  0.1050869E+000  0.4954611E+03  0.7818608E-02  0.1014977E+00
         21   -1    0    0  503  502  0.00000000000E+00  0.00000000000E+00  0.11087579237E+04  0.11087579237E+04  0.00000000000E+00 0. -1.
         21   -1    0    0  501  503 -0.00000000000E+00 -0.00000000000E+00 -0.24610351433E+03  0.24610351433E+03  0.00000000000E+00 0. -1.
          6    2    1    2  501    0  0.45895061670E+03 -0.70876102452E+02  0.64618103298E+03  0.81426754404E+03  0.17269225643E+03 0.  0.
         24    2    3    3    0    0  0.26437853670E+03 -0.91359290128E+02  0.45782522503E+03  0.54264675014E+03  0.81357410254E+02 0.  0.
         -6    2    1    2    0  502 -0.45895061670E+03  0.70876102452E+02  0.21647337639E+03  0.54059389399E+03  0.17240053673E+03 0.  0.
        -24    2    5    5    0    0 -0.11950366467E+03  0.39383364596E+02  0.10207850559E+03  0.18097701140E+03  0.80625567123E+02 0.  0.
          5    1    3    3  501    0  0.19457208000E+03  0.20483187676E+02  0.18835580795E+03  0.27162079390E+03  0.47000000000E+01 0. -1.
        -11    1    4    4    0    0  0.26596069632E+03 -0.79813734058E+02  0.42367331452E+03  0.50656135025E+03  0.00000000000E+00 0.  1.
         12    1    4    4    0    0 -0.15821596117E+01 -0.11545556070E+02  0.34151910509E+02  0.36085399892E+02  0.00000000000E+00 0. -1.
         -5    1    5    5    0  502 -0.33944695203E+03  0.31492737856E+02  0.11439487080E+03  0.35961688260E+03  0.47000000000E+01 0.  1.
         11    1    6    6    0    0 -0.82662654156E+02 -0.14084113760E+02  0.49070792780E+02  0.97156674277E+02  0.00000000000E+00 0. -1.
        -12    1    6    6    0    0 -0.36841010514E+02  0.53467478356E+02  0.53007712809E+02  0.83820337119E+02  0.00000000000E+00 0.  1.
</event>
<event>
12    1  0.1050869E+000  0.1913136E+03  0.7818608E-02  0.1157448E+00
         21   -1    0    0  501  502  0.00000000000E+00  0.00000000000E+00  0.30900855782E+02  0.30900855782E+02  0.00000000000E+00 0. -1.
         21   -1    0    0  502  503 -0.00000000000E+00 -0.00000000000E+00 -0.12900528925E+04  0.12900528925E+04  0.00000000000E+00 0. -1.
         -6    2    1    2    0  503 -0.81406568058E+02 -0.98669084396E+01 -0.82371578536E+03  0.84564093576E+03  0.17284823395E+03 0.  0.
        -24    2    3    3    0    0 -0.99692259508E+01  0.19097171016E+02 -0.18941605601E+03  0.20665701702E+03  0.79778399368E+02 0.  0.
          6    2    1    2  501    0  0.81406568058E+02  0.98669084396E+01 -0.43543625138E+03  0.47531281255E+03  0.17202661290E+03 0.  0.
         24    2    5    5    0    0  0.79717560004E+02  0.40809016862E+02 -0.17357628053E+03  0.21158378275E+03  0.81355434544E+02 0.  0.
          5    1    5    5  501    0  0.16890080546E+01 -0.30942108423E+02 -0.26185997086E+03  0.26372902980E+03  0.47000000000E+01 0. -1.
        -13    1    6    6    0    0  0.65183470170E+02  0.20277778814E+02 -0.17348074530E+03  0.18642865146E+03  0.00000000000E+00 0.  1.
         14    1    6    6    0    0  0.14534089833E+02  0.20531238048E+02 -0.95535231581E-01  0.25155131287E+02  0.00000000000E+00 0. -1.
         -5    1    3    3    0  503 -0.71437342108E+02 -0.28964079455E+02 -0.63429972936E+03  0.63898391874E+03  0.47000000000E+01 0.  1.
         13    1    4    4    0    0  0.32475606992E+02  0.22955275943E+02 -0.99422243050E+02  0.10708124092E+03  0.00000000000E+00 0. -1.
        -14    1    4    4    0    0 -0.42444832943E+02 -0.38581049269E+01 -0.89993812957E+02  0.99575776109E+02  0.00000000000E+00 0.  1.
</event>
<event>
12    1  0.1050869E+000  0.2729798E+03  0.7818608E-02  0.1099749E+00
         21   -1    0    0  503  502  0.00000000000E+00  0.00000000000E+00  0.98048060669E+02  0.98048060669E+02  0.00000000000E+00 0. -1.
         21   -1    0    0  501  503 -0.00000000000E+00 -0.00000000000E+00 -0.91705366097E+03  0.91705366097E+03  0.00000000000E+00 0. -1.
          6    2    1    2  501    0 -0.17529605213E+03 -0.11717517790E+03 -0.62095280695E+03  0.67784384398E+03  0.17155512276E+03 0.  0.
         24    2    3    3    0    0 -0.14041730666E+03 -0.13973892381E+03 -0.58535741121E+03  0.62293690713E+03  0.78505442957E+02 0.  0.
         -6    2    1    2    0  502  0.17529605213E+03  0.11717517790E+03 -0.19805279335E+03  0.33725787766E+03  0.17337600435E+03 0.  0.
        -24    2    5    5    0    0  0.50729246282E+02  0.62801809622E+01 -0.11169191729E+03  0.14938856037E+03  0.85023293758E+02 0.  0.
          5    1    3    3  501    0 -0.34878745471E+02  0.22563745913E+02 -0.35595395741E+02  0.54906936841E+02  0.47000000000E+01 0. -1.
        -11    1    4    4    0    0 -0.65161017034E+02 -0.89596154000E+02 -0.42112385005E+03  0.43545232349E+03  0.00000000000E+00 0.  1.
         12    1    4    4    0    0 -0.75256289627E+02 -0.50142769811E+02 -0.16423356116E+03  0.18748458364E+03  0.00000000000E+00 0. -1.
         -5    1    5    5    0  502  0.12456680585E+03  0.11089499694E+03 -0.86360876060E+02  0.18786931729E+03  0.47000000000E+01 0.  1.
         11    1    6    6    0    0  0.45647989292E+02 -0.35042378238E+02 -0.66453875441E+02  0.87908047186E+02  0.00000000000E+00 0. -1.
        -12    1    6    6    0    0  0.50812569899E+01  0.41322559201E+02 -0.45238041848E+02  0.61480513187E+02  0.00000000000E+00 0.  1.
</event>
<event>
12    1  0.1050869E+000  0.2217244E+03  0.7818608E-02  0.1132966E+00
         21   -1    0    0  501  502  0.00000000000E+00  0.00000000000E+00  0.15904674039E+03  0.15904674039E+03  0.00000000000E+00 0.  1.
         21   -1    0    0  502  503 -0.00000000000E+00 -0.00000000000E+00 -0.30698334933E+03  0.30698334933E+03  0.00000000000E+00 0.  1.
         -6    2    1    2    0  503  0.13737014868E+03 -0.20436830343E+02 -0.84569831264E+02  0.23730518701E+03  0.17283944468E+03 0.  0.
        -24    2    3    3    0    0  0.28888188199E+02 -0.78842884224E+01 -0.96335244543E+02  0.12736694521E+03  0.77750691123E+02 0.  0.
          6    2    1    2  501    0 -0.13737014868E+03  0.20436830343E+02 -0.63366777674E+02  0.22872490272E+03  0.17032765726E+03 0.  0.
         24    2    5    5    0    0 -0.97887103247E+02  0.18690925747E+02  0.28895153635E+02  0.12824449155E+03  0.75368985808E+02 0.  0.
          5    1    5    5  501    0 -0.39483045437E+02  0.17459045956E+01 -0.92261931309E+02  0.10048041117E+03  0.47000000000E+01 0. -1.
        -13    1    6    6    0    0  0.49864787062E+01  0.20028665233E+02  0.12314929960E+02  0.24034764422E+02  0.00000000000E+00 0.  1.
         14    1    6    6    0    0 -0.10287358195E+03 -0.13377394857E+01  0.16580223675E+02  0.10420972713E+03  0.00000000000E+00 0. -1.
         -5    1    3    3    0  503  0.10848196048E+03 -0.12552541920E+02  0.11765413278E+02  0.10993824179E+03  0.47000000000E+01 0.  1.
         13    1    4    4    0    0  0.46092544869E+02 -0.24602466503E+02 -0.38947067401E+02  0.65166541336E+02  0.00000000000E+00 0. -1.
        -14    1    4    4    0    0 -0.17204356669E+02  0.16718178080E+02 -0.57388177142E+02  0.62200403876E+02  0.00000000000E+00 0.  1.
</event>
<event>
12    1  0.1050869E+000  0.3447908E+03  0.7818608E-02  0.1064774E+00
         21   -1    0    0  503  502  0.00000000000E+00  0.00000000000E+00  0.96261121155E+02  0.96261121155E+02  0.00000000000E+00 0.  1.
         21   -1    0    0  501  503 -0.00000000000E+00 -0.00000000000E+00 -0.14020485634E+04  0.14020485634E+04  0.00000000000E+00 0.  1.
          6    2    1    2  501    0 -0.18726006342E+03 -0.23250122475E+03 -0.39427616842E+03  0.52376939833E+03  0.17250372396E+03 0.  0.
         24    2    3    3    0    0 -0.17111599942E+03 -0.12627681900E+03 -0.32275870721E+03  0.39461409477E+03  0.79502078183E+02 0.  0.
         -6    2    1    2    0  502  0.18726006342E+03  0.23250122475E+03 -0.91151127382E+03  0.97454028623E+03  0.17249004697E+03 0.  0.
        -24    2    5    5    0    0  0.82153137547E+02  0.42818955694E+02 -0.24964245333E+03  0.27803525781E+03  0.79997806887E+02 0.  0.
          5    1    3    3  501    0 -0.16144064003E+02 -0.10622440575E+03 -0.71517461202E+02  0.12915530356E+03  0.47000000000E+01 0. -1.
        -13    1    4    4    0    0 -0.13878795880E+02  0.99526462390E+01 -0.12946447447E+02  0.21430973934E+02  0.00000000000E+00 0.  1.
         14    1    4    4    0    0 -0.15723720354E+03 -0.13622946524E+03 -0.30981225977E+03  0.37318312084E+03  0.00000000000E+00 0. -1.
         -5    1    5    5    0  502  0.10510692588E+03  0.18968226905E+03 -0.66186882049E+03  0.69650502841E+03  0.47000000000E+01 0.  1.
         13    1    6    6    0    0 -0.81009787733E+01  0.89730651633E+01 -0.19464264267E+01  0.12244604173E+02  0.00000000000E+00 0. -1.
        -14    1    6    6    0    0  0.90254116320E+02  0.33845890531E+02 -0.24769602690E+03  0.26579065364E+03  0.00000000000E+00 0.  1.
</event>
<event>
12    1  0.1050869E+000  0.6049217E+03  0.7818608E-02  0.9895602E-01
         21   -1    0    0  501  502  0.00000000000E+00  0.00000000000E+00  0.13855275079E+04  0.13855275079E+04  0.00000000000E+00 0. -1.
         21   -1    0    0  502  503 -0.00000000000E+00 -0.00000000000E+00 -0.27614943347E+03  0.27614943347E+03  0.00000000000E+00 0.  1.
         -6    2    1    2    0  503  0.51778111487E+03  0.26115271557E+03  0.37934865381E+03  0.71402779546E+03  0.17214025612E+03 0.  0.
        -24    2    3    3    0    0  0.42422264916E+03  0.26813340691E+03  0.29475946685E+03  0.58761839270E+03  0.80943512242E+02 0.  0.
          6    2    1    2  501    0 -0.51778111487E+03 -0.26115271557E+03  0.73002942062E+03  0.94764914591E+03  0.16969951383E+03 0.  0.
         24    2    5    5    0    0 -0.15883476859E+03 -0.92161077456E+02  0.17708272700E+03  0.26708115573E+03  0.79068980227E+02 0.  0.
          5    1    5    5  501    0 -0.35894634628E+03 -0.16899163811E+03  0.55294669362E+03  0.68056799018E+03  0.47000000000E+01 0. -1.
        -13    1    6    6    0    0 -0.15493163131E+03 -0.86716928171E+02  0.18519828221E+03  0.25655806311E+03  0.00000000000E+00 0.  1.
         14    1    6    6    0    0 -0.39031372798E+01 -0.54441492846E+01 -0.81155552082E+01  0.10523092625E+02  0.00000000000E+00 0. -1.
         -5    1    3    3    0  503  0.93558465712E+02 -0.69806913383E+01  0.84589186950E+02  0.12640940276E+03  0.47000000000E+01 0.  1.
         13    1    4    4    0    0  0.22465208849E+03  0.10823188424E+03  0.17871345406E+03  0.30679178654E+03  0.00000000000E+00 0. -1.
        -14    1    4    4    0    0  0.19957056067E+03  0.15990152267E+03  0.11604601280E+03  0.28082660615E+03  0.00000000000E+00 0.  1.
</event>
<event>
12    1  0.1050869E+000  0.1931775E+03  0.7818608E-02  0.1156754E+00
         21   -1    0    0  503  502  0.00000000000E+00  0.00000000000E+00  0.80836139828E+02  0.80836139828E+02  0.00000000000E+00 0.  1.
         21   -1    0    0  501  503 -0.00000000000E+00 -0.00000000000E+00 -0.63580359736E+03  0.63580359736E+03  0.00000000000E+00 0.  1.
          6    2    1    2  501    0 -0.73755612071E+02 -0.21872747652E+02 -0.86220494350E+02  0.21154553335E+03  0.17719828338E+03 0.  0.
         24    2    3    3    0    0  0.28567115241E+02 -0.36492832906E+01 -0.58969884795E+02  0.10399684252E+03  0.80675266345E+02 0.  0.
         -6    2    1    2    0  502  0.73755612071E+02  0.21872747652E+02 -0.46874696318E+03  0.50509420384E+03  0.17169196795E+03 0.  0.
        -24    2    5    5    0    0  0.72384578635E+02  0.64139745003E+02 -0.37822455934E+03  0.40507033471E+03  0.10804963981E+03 0.  0.
          5    1    3    3  501    0 -0.10232272731E+03 -0.18223464361E+02 -0.27250609555E+02  0.10754869083E+03  0.47000000000E+01 0. -1.
        -13    1    4    4    0    0 -0.63648760796E+01 -0.12919033589E+02  0.15538201064E+02  0.21186051276E+02  0.00000000000E+00 0.  1.
         14    1    4    4    0    0  0.34931991321E+02  0.92697502982E+01 -0.74508085858E+02  0.82810791244E+02  0.00000000000E+00 0. -1.
         -5    1    5    5    0  502  0.13710334352E+01 -0.42266997352E+02 -0.90522403842E+02  0.10002386913E+03  0.47000000000E+01 0.  1.
         13    1    6    6    0    0 -0.44106116402E+01 -0.23916723874E+02 -0.35955070840E+02  0.43407721606E+02  0.00000000000E+00 0. -1.
        -14    1    6    6    0    0  0.76795190275E+02  0.88056468877E+02 -0.34226948850E+03  0.36166261311E+03  0.00000000000E+00 0.  1.
</event>
<event>
12    1  0.1050869E+000  0.1858410E+03  0.7818608E-02  0.1162413E+00
         21   -1    0    0  501  502  0.00000000000E+00  0.00000000000E+00  0.35351442782E+03  0.35351442782E+03  0.00000000000E+00 0.  1.
         21   -1    0    0  502  503 -0.00000000000E+00 -0.00000000000E+00 -0.99069847902E+02  0.99069847902E+02  0.00000000000E+00 0.  1.
         -6    2    1    2    0  503  0.22579556204E+02  0.65033735461E+02  0.15669043094E+03  0.24260150095E+03  0.17194293824E+03 0.  0.
        -24    2    3    3    0    0 -0.43818785376E+02  0.40450997216E+02  0.28411340235E+02  0.96004550452E+02  0.69665632315E+02 0.  0.
          6    2    1    2  501    0 -0.22579556204E+02 -0.65033735461E+02  0.97754148980E+02  0.20998277477E+03  0.17262001318E+03 0.  0.
         24    2    5    5    0    0 -0.27728470847E+02  0.30070086907E+02  0.24913907198E+02  0.89986778279E+02  0.76182932938E+02 0.  0.
          5    1    5    5  501    0  0.51489146429E+01 -0.95103822368E+02  0.72840241783E+02  0.11999599649E+03  0.47000000000E+01 0. -1.
        -11    1    6    6    0    0  0.15664831463E+02 -0.34978503491E+01 -0.15136176463E+02  0.22061861656E+02  0.00000000000E+00 0.  1.
         12    1    6    6    0    0 -0.43393302310E+02  0.33567937256E+02  0.40050083661E+02  0.67924916623E+02  0.00000000000E+00 0. -1.
         -5    1    3    3    0  503  0.66398341580E+02  0.24582738245E+02  0.12827909071E+03  0.14659695050E+03  0.47000000000E+01 0.  1.
         13    1    4    4    0    0 -0.50556756924E+02  0.31035985452E+02  0.45916598474E+02  0.75017011931E+02  0.00000000000E+00 0. -1.
        -14    1    4    4    0    0  0.67379715474E+01  0.94150117639E+01 -0.17505258240E+02  0.20987538520E+02  0.00000000000E+00 0.  1.
</event>
<event>
12    1  0.1050869E+000  0.1985378E+03  0.7818608E-02  0.1151133E+00
         21   -1    0    0  503  502  0.00000000000E+00  0.00000000000E+00  0.75047821177E+02  0.75047821177E+02  0.00000000000E+00 0. -1.
         21   -1    0    0  501  503 -0.00000000000E+00 -0.00000000000E+00 -0.78750850495E+03  0.78750850495E+03  0.00000000000E+00 0.  1.
          6    2    1    2  501    0  0.34113384319E+02 -0.92763045476E+02 -0.10686552443E+03  0.22547171736E+03  0.17218754142E+03 0.  0.
         24    2    3    3    0    0  0.46542160525E+02  0.31923081544E+01 -0.87409736402E+02  0.12666624152E+03  0.78914581576E+02 0.  0.
         -6    2    1    2    0  502 -0.34113384319E+02  0.92763045476E+02 -0.60559515934E+03  0.63708460877E+03  0.17135517533E+03 0.  0.
        -24    2    5    5    0    0 -0.66351491639E+02  0.95711804171E+01 -0.24877333389E+03  0.26924756999E+03  0.78178989216E+02 0.  0.
          5    1    3    3  501    0 -0.12428776207E+02 -0.95955353630E+02 -0.19455788031E+02  0.98805475841E+02  0.47000000000E+01 0. -1.
        -13    1    4    4    0    0 -0.17569926451E+02 -0.70687136116E+01 -0.45769203076E+02  0.49532706143E+02  0.00000000000E+00 0.  1.
         14    1    4    4    0    0  0.64112086976E+02  0.10261021766E+02 -0.41640533326E+02  0.77133535377E+02  0.00000000000E+00 0. -1.
         -5    1    5    5    0  502  0.32238107320E+02  0.83191865058E+02 -0.35682182545E+03  0.36783703877E+03  0.47000000000E+01 0.  1.
         11    1    6    6    0    0  0.43846055480E+01  0.28859701695E+02 -0.59651413014E+02  0.66410829104E+02  0.00000000000E+00 0. -1.
        -12    1    6    6    0    0 -0.70736097187E+02 -0.19288521278E+02 -0.18912192088E+03  0.20283674089E+03  0.00000000000E+00 0.  1.
</event>
<event>
12    1  0.1050869E+000  0.2030206E+03  0.7818608E-02  0.1147389E+00
         21   -1    0    0  501  502  0.00000000000E+00  0.00000000000E+00  0.44666664166E+03  0.44666664166E+03  0.00000000000E+00 0.  1.
         21   -1    0    0  502  503 -0.00000000000E+00 -0.00000000000E+00 -0.10478108515E+03  0.10478108515E+03  0.00000000000E+00 0.  1.
         -6    2    1    2    0  503 -0.11850641725E+02  0.10874628162E+03  0.26731642537E+03  0.33516572301E+03  0.17003469979E+03 0.  0.
        -24    2    3    3    0    0 -0.70346801213E+02  0.71841700148E+02  0.20665218223E+03  0.24304629398E+03  0.79097877839E+02 0.  0.
          6    2    1    2  501    0  0.11850641725E+02 -0.10874628162E+03  0.74569131142E+02  0.21628200381E+03  0.17102970028E+03 0.  0.
         24    2    5    5    0    0 -0.20470860569E+02 -0.22138282344E+02  0.87912645236E+02  0.12276321203E+03  0.80206068081E+02 0.  0.
          5    1    5    5  501    0  0.32321502294E+02 -0.86607999271E+02 -0.13343514094E+02  0.93518791783E+02  0.47000000000E+01 0. -1.
        -11    1    6    6    0    0 -0.36707051721E+02  0.22131941999E+01  0.79646775991E+01  0.37626346672E+02  0.00000000000E+00 0.  1.
         12    1    6    6    0    0  0.16236191152E+02 -0.24351476544E+02  0.79947967637E+02  0.85136865354E+02  0.00000000000E+00 0. -1.
         -5    1    3    3    0  503  0.58496159488E+02  0.36904581467E+02  0.60664243141E+02  0.92119429025E+02  0.47000000000E+01 0.  1.
         13    1    4    4    0    0 -0.17379107468E+02  0.72834650245E+02  0.12509855537E+03  0.14579632440E+03  0.00000000000E+00 0. -1.
        -14    1    4    4    0    0 -0.52967693745E+02 -0.99295009643E+00  0.81553626860E+02  0.97249969586E+02  0.00000000000E+00 0.  1.
</event>
<event>
12    1  0.1051450E+000  0.2139308E+03  0.7818608E-02  0.1138722E+00
         21   -1    0    0  501  502  0.00000000000E+00  0.00000000000E+00  0.28808645799E+03  0.28808645799E+03  0.00000000000E+00 0. -1.
         21   -1    0    0  502  503 -0.00000000000E+00 -0.00000000000E+00 -0.42296208474E+03  0.42296208474E+03  0.00000000000E+00 0. -1.
         -6    2    1    2    0  503  0.11218216341E+03  0.56232279720E+02  0.21389475432E+03  0.30251833200E+03  0.17326127149E+03 0.  0.
        -24    2    3    3    0    0  0.88781572987E+02  0.84266539903E+02  0.85904726570E+02  0.16933783576E+03  0.79452269457E+02 0.  0.
          6    2    1    2  501    0 -0.11218216341E+03 -0.56232279720E+02 -0.34877038107E+03  0.40853021074E+03  0.17178255819E+03 0.  0.
         24    2    5    5    0    0 -0.29342302221E+02  0.28597526101E+02 -0.11306701245E+03  0.14464253285E+03  0.80364941404E+02 0.  0.
          5    1    5    5  501    0 -0.82839861193E+02 -0.84829805821E+02 -0.23570336863E+03  0.26388767789E+03  0.47000000000E+01 0. -1.
        -11    1    6    6    0    0 -0.40020401683E+02 -0.93721246983E+01 -0.90020495472E+02  0.98960390446E+02  0.00000000000E+00 0.  1.
         12    1    6    6    0    0  0.10678099462E+02  0.37969650799E+02 -0.23046516975E+02  0.45682142404E+02  0.00000000000E+00 0. -1.
         -5    1    3    3    0  503  0.23400590427E+02 -0.28034260183E+02  0.12799002775E+03  0.13318049625E+03  0.47000000000E+01 0.  1.
         13    1    4    4    0    0  0.99053648177E+01  0.29124085782E+02 -0.11088824562E+02  0.32700010015E+02  0.00000000000E+00 0. -1.
        -14    1    4    4    0    0  0.78876208170E+02  0.55142454121E+02  0.96993551132E+02  0.13663782574E+03  0.00000000000E+00 0.  1.
</event>
<event>
12    1  0.1050869E+000  0.4584865E+03  0.7818608E-02  0.1025331E+00
         21   -1    0    0  503  502  0.00000000000E+00  0.00000000000E+00  0.37115814251E+03  0.37115814251E+03  0.00000000000E+00 0.  1.
         21   -1    0    0  501  503 -0.00000000000E+00 -0.00000000000E+00 -0.56846293376E+03  0.56846293376E+03  0.00000000000E+00 0.  1.
          6    2    1    2  501    0  0.40306621280E+03  0.12882206247E+03 -0.13799560937E+03  0.47880339839E+03  0.17650045447E+03 0.  0.
         24    2    3    3    0    0  0.36245453426E+03  0.14107769583E+03 -0.77149661381E+02  0.40448093632E+03  0.79853315048E+02 0.  0.
         -6    2    1    2    0  502 -0.40306621280E+03 -0.12882206247E+03 -0.59309181884E+02  0.46081767788E+03  0.17256261910E+03 0.  0.
        -24    2    5    5    0    0 -0.33792828284E+03 -0.44379834247E+02 -0.42497053786E+02  0.35275206134E+03  0.80392307895E+02 0.  0.
          5    1    3    3  501    0  0.40611678536E+02 -0.12255633362E+02 -0.60845947985E+02  0.74322462075E+02  0.47000000000E+01 0. -1.
        -11    1    4    4    0    0  0.14604461795E+03  0.99372557755E+02 -0.36179188662E+02  0.18031325342E+03  0.00000000000E+00 0.  1.
         12    1    4    4    0    0  0.21640991631E+03  0.41705138077E+02 -0.40970472719E+02  0.22416768290E+03  0.00000000000E+00 0. -1.
         -5    1    5    5    0  502 -0.65137929960E+02 -0.84442228223E+02 -0.16812128098E+02  0.10806561654E+03  0.47000000000E+01 0.  1.
         11    1    6    6    0    0 -0.16483055696E+03 -0.50337110745E+02 -0.49805669057E+02  0.17939771987E+03  0.00000000000E+00 0. -1.
        -12    1    6    6    0    0 -0.17309772588E+03  0.59572764977E+01  0.73086152707E+01  0.17335434146E+03  0.00000000000E+00 0.  1.
</event>
<event>
12    1  0.1050869E+000  0.1866362E+03  0.7818608E-02  0.1161541E+00
         21   -1    0    0  501  502  0.00000000000E+00  0.00000000000E+00  0.41186275357E+03  0.41186275357E+03  0.00000000000E+00 0. -1.
         21   -1    0    0  502  503 -0.00000000000E+00 -0.00000000000E+00 -0.84776572774E+02  0.84776572774E+02  0.00000000000E+00 0. -1.
         -6    2    1    2    0  503 -0.28560880926E+02  0.68135601527E+02  0.15081805037E+03  0.23992252220E+03  0.17134336354E+03 0.  0.
        -24    2    3    3    0    0  0.47778281676E+02  0.19758599098E+02  0.96686305503E+02  0.13446950938E+03  0.77850117809E+02 0.  0.
          6    2    1    2  501    0  0.28560880926E+02 -0.68135601527E+02  0.17626813043E+03  0.25671680414E+03  0.17139101380E+03 0.  0.
         24    2    5    5    0    0  0.74112001540E+02 -0.59158810504E+02  0.62073945623E+02  0.13335599510E+03  0.70272989620E+02 0.  0.
          5    1    5    5  501    0 -0.45551120614E+02 -0.89767910228E+01  0.11419418480E+03  0.12336080905E+03  0.47000000000E+01 0. -1.
        -13    1    6    6    0    0  0.11189026620E+02 -0.43610176958E+02  0.50252579498E+02  0.67471205689E+02  0.00000000000E+00 0.  1.
         14    1    6    6    0    0  0.62922974921E+02 -0.15548633546E+02  0.11821366126E+02  0.65884789406E+02  0.00000000000E+00 0. -1.
         -5    1    3    3    0  503 -0.76339162603E+02  0.48377002429E+02  0.54131744869E+02  0.10545301282E+03  0.47000000000E+01 0.  1.
         11    1    4    4    0    0  0.14269931971E+02 -0.10316373507E+02 -0.88662934452E+01  0.19714707207E+02  0.00000000000E+00 0. -1.
        -12    1    4    4    0    0  0.33508349705E+02  0.30074972605E+02  0.10555259895E+03  0.11475480217E+03  0.00000000000E+00 0.  1.
</event>
<event>
12    1  0.1050869E+000  0.2380694E+03  0.7818608E-02  0.1121135E+00
         21   -1    0    0  501  502  0.00000000000E+00  0.00000000000E+00  0.82632898858E+02  0.82632898858E+02  0.00000000000E+00 0.  1.
         21   -1    0    0  502  503 -0.00000000000E+00 -0.00000000000E+00 -0.85657440475E+03  0.85657440475E+03  0.00000000000E+00 0.  1.
         -6    2    1    2    0  503 -0.15450739285E+03  0.56174465145E+02 -0.17662912247E+03  0.29619943660E+03  0.17177937699E+03 0.  0.
        -24    2    3    3    0    0 -0.31313085684E+02 -0.26119997222E+02 -0.59756949144E+02  0.10743924283E+03  0.79432577316E+02 0.  0.
          6    2    1    2  501    0  0.15450739285E+03 -0.56174465145E+02 -0.59731238342E+03  0.64300786700E+03  0.17218864267E+03 0.  0.
         24    2    5    5    0    0  0.10921281183E+03  0.19720388035E+02 -0.26768265361E+03  0.30170231975E+03  0.83987824892E+02 0.  0.
          5    1    5    5  501    0  0.45294581021E+02 -0.75894853181E+02 -0.32962972981E+03  0.34130554725E+03  0.47000000000E+01 0. -1.
        -13    1    6    6    0    0 -0.11469622751E+02  0.73358061542E+01 -0.56849361060E+02  0.58456959816E+02  0.00000000000E+00 0.  1.
         14    1    6    6    0    0  0.12068243458E+03  0.12384581881E+02 -0.21083329255E+03  0.24324535994E+03  0.00000000000E+00 0. -1.
         -5    1    3    3    0  503 -0.12319430717E+03  0.82294462367E+02 -0.11687217333E+03  0.18876019377E+03  0.47000000000E+01 0.  1.
         13    1    4    4    0    0  0.10571818798E+02  0.11088374172E+02  0.97533928906E+01  0.18161609713E+02  0.00000000000E+00 0. -1.
        -14    1    4    4    0    0 -0.41884904483E+02 -0.37208371394E+02 -0.69510342034E+02  0.89277633117E+02  0.00000000000E+00 0.  1.
</event>
<event>
12    1  0.1050869E+000  0.2064184E+03  0.7818608E-02  0.1145589E+00
         21   -1    0    0  503  502  0.00000000000E+00  0.00000000000E+00  0.21921605428E+03  0.21921605428E+03  0.00000000000E+00 0.  1.
         21   -1    0    0  501  503 -0.00000000000E+00 -0.00000000000E+00 -0.26280125368E+03  0.26280125368E+03  0.00000000000E+00 0. -1.
          6    2    1    2  501    0 -0.10363062951E+03 -0.77761913512E+01  0.10560245658E+03  0.23186294523E+03  0.17835013319E+03 0.  0.
         24    2    3    3    0    0 -0.13670414967E+03 -0.16536288093E+02  0.11475775955E+03  0.19613471265E+03  0.79611612013E+02 0.  0.
         -6    2    1    2    0  502  0.10363062951E+03  0.77761913512E+01 -0.14918765598E+03  0.25015436273E+03  0.17181522624E+03 0.  0.
        -24    2    5    5    0    0  0.62446559887E+02 -0.58498939224E+02 -0.57148055300E+02  0.12939883028E+03  0.78463101648E+02 0.  0.
          5    1    3    3  501    0  0.33073520162E+02  0.87600967419E+01 -0.91553029687E+01  0.35728232580E+02  0.47000000000E+01 0. -1.
        -11    1    4    4    0    0 -0.11066450811E+03 -0.38572235824E+02  0.60101046111E+02  0.13170644052E+03  0.00000000000E+00 0.  1.
         12    1    4    4    0    0 -0.26039641562E+02  0.22035947730E+02  0.54656713440E+02  0.64428272126E+02  0.00000000000E+00 0. -1.
         -5    1    5    5    0  502  0.41184069622E+02  0.66275130575E+02 -0.92039600685E+02  0.12075553245E+03  0.47000000000E+01 0.  1.
         13    1    6    6    0    0  0.31584284881E+02 -0.23470329546E+02 -0.70590308185E+02  0.80817170391E+02  0.00000000000E+00 0. -1.
        -14    1    6    6    0    0  0.30862275007E+02 -0.35028609678E+02  0.13442252885E+02  0.48581659885E+02  0.00000000000E+00 0.  1.
</event>
<event>
12    1  0.1050869E+000  0.2162114E+03  0.7818608E-02  0.1137804E+00
         21   -1    0    0  501  502  0.00000000000E+00  0.00000000000E+00  0.18650642618E+03  0.18650642618E+03  0.00000000000E+00 0.  1.
         21   -1    0    0  502  503 -0.00000000000E+00 -0.00000000000E+00 -0.24433036383E+03  0.24433036383E+03  0.00000000000E+00 0.  1.
         -6    2    1    2    0  503 -0.12157917535E+03 -0.85206194780E+01 -0.27106839505E+02  0.21790403849E+03  0.17858693235E+03 0.  0.
        -24    2    3    3    0    0 -0.65532953036E+02 -0.48699326648E+02  0.39212227447E+02  0.12211355782E+03  0.81901952795E+02 0.  0.
          6    2    1    2  501    0  0.12157917535E+03  0.85206194780E+01 -0.30717098144E+02  0.21293275151E+03  0.17187995728E+03 0.  0.
         24    2    5    5    0    0  0.75762873364E+02 -0.36664740978E+02  0.33254734777E+02  0.12207387339E+03  0.81925801595E+02 0.  0.
          5    1    5    5  501    0  0.45816301988E+02  0.45185360457E+02 -0.63971832921E+02  0.90858878128E+02  0.47000000000E+01 0. -1.
        -11    1    6    6    0    0  0.44706970431E+02 -0.22504256557E+02 -0.23929642748E+02  0.55477766451E+02  0.00000000000E+00 0.  1.
         12    1    6    6    0    0  0.31055902932E+02 -0.14160484421E+02  0.57184377525E+02  0.66596106935E+02  0.00000000000E+00 0. -1.
         -5    1    3    3    0  503 -0.56046222316E+02  0.40178707170E+02 -0.66319066953E+02  0.95790480671E+02  0.47000000000E+01 0.  1.
         13    1    4    4    0    0 -0.29725466160E+02 -0.97114933039E+01 -0.24176967802E+02  0.39527739787E+02  0.00000000000E+00 0. -1.
        -14    1    4    4    0    0 -0.35807486876E+02 -0.38987833344E+02  0.63389195249E+02  0.82585818030E+02  0.00000000000E+00 0.  1.
</event>
<event>
12    1  0.1050869E+000  0.1868024E+03  0.7818608E-02  0.1162355E+00
         21   -1    0    0  501  502  0.00000000000E+00  0.00000000000E+00  0.54538499948E+02  0.54538499948E+02  0.00000000000E+00 0.  1.
         21   -1    0    0  502  503 -0.00000000000E+00 -0.00000000000E+00 -0.90734137530E+03  0.90734137530E+03  0.00000000000E+00 0.  1.
         -6    2    1    2    0  503 -0.66470441871E+02  0.45665448501E+01 -0.16172931373E+03  0.24708604762E+03  0.17451639188E+03 0.  0.
        -24    2    3    3    0    0  0.37317196996E+01  0.30720128291E+02 -0.26302236298E+02  0.92247626297E+02  0.82826112483E+02 0.  0.
          6    2    1    2  501    0  0.66470441871E+02 -0.45665448501E+01 -0.69107356163E+03  0.71479382763E+03  0.17002463194E+03 0.  0.
         24    2    5    5    0    0  0.30084392822E+02  0.61371163581E+02 -0.33992513364E+03  0.35562947189E+03  0.79067909955E+02 0.  0.
          5    1    5    5  501    0  0.36386049049E+02 -0.65937708431E+02 -0.35114842799E+03  0.35916435574E+03  0.47000000000E+01 0. -1.
        -11    1    6    6    0    0  0.54873009348E+01 -0.10137556330E+02 -0.55204054825E+01  0.12781056161E+02  0.00000000000E+00 0.  1.
         12    1    6    6    0    0  0.24597091887E+02  0.71508719912E+02 -0.33440472816E+03  0.34284841573E+03  0.00000000000E+00 0. -1.
         -5    1    3    3    0  503 -0.70202161571E+02 -0.26153583441E+02 -0.13542707743E+03  0.15483842132E+03  0.47000000000E+01 0.  1.
         13    1    4    4    0    0 -0.25650410436E+02  0.53619405233E+01 -0.42711566500E+02  0.50109598628E+02  0.00000000000E+00 0. -1.
        -14    1    4    4    0    0  0.29382130136E+02  0.25358187768E+02  0.16409330202E+02  0.42138027669E+02  0.00000000000E+00 0.  1.
</event>
<event>
12    1  0.1050869E+000  0.7469802E+03  0.7818608E-02  0.9640263E-01
         21   -1    0    0  503  502  0.00000000000E+00  0.00000000000E+00  0.34557905125E+03  0.34557905125E+03  0.00000000000E+00 0.  1.
         21   -1    0    0  501  503 -0.00000000000E+00 -0.00000000000E+00 -0.22042210088E+04  0.22042210088E+04  0.00000000000E+00 0.  1.
          6    2    1    2  501    0  0.49337836321E+03 -0.53336261680E+03 -0.26926457069E+03  0.79363951446E+03  0.17164608822E+03 0.  0.
         24    2    3    3    0    0  0.36942596719E+03 -0.33880257160E+03 -0.23820253714E+03  0.56082038382E+03  0.80723766285E+02 0.  0.
         -6    2    1    2    0  502 -0.49337836321E+03  0.53336261680E+03 -0.15893773868E+04  0.17561605456E+04  0.17344017332E+03 0.  0.
        -24    2    5    5    0    0 -0.34656164974E+03  0.27884361162E+03 -0.10148444414E+04  0.11108348396E+04  0.78651534471E+02 0.  0.
          5    1    3    3  501    0  0.12395239602E+03 -0.19456004520E+03 -0.31062033551E+02  0.23281913065E+03  0.47000000000E+01 0. -1.
        -11    1    4    4    0    0  0.91477649594E+02 -0.70328610652E+02 -0.20229632796E+02  0.11714739389E+03  0.00000000000E+00 0.  1.
         12    1    4    4    0    0  0.27794831760E+03 -0.26847396095E+03 -0.21797290435E+03  0.44367298993E+03  0.00000000000E+00 0. -1.
         -5    1    5    5    0  502 -0.14681671347E+03  0.25451900518E+03 -0.57453294544E+03  0.64532570594E+03  0.47000000000E+01 0.  1.
         13    1    6    6    0    0 -0.17691107385E+03  0.19217153412E+03 -0.58810120353E+03  0.64349860308E+03  0.00000000000E+00 0. -1.
        -14    1    6    6    0    0 -0.16965057589E+03  0.86672077503E+02 -0.42674323786E+03  0.46733623654E+03  0.00000000000E+00 0.  1.
</event>
<event>
12    1  0.1050869E+000  0.1803552E+03  0.7818608E-02  0.1167491E+00
         21   -1    0    0  501  502  0.00000000000E+00  0.00000000000E+00  0.15159892719E+04  0.15159892719E+04  0.00000000000E+00 0.  1.
         21   -1    0    0  502  503 -0.00000000000E+00 -0.00000000000E+00 -0.21461673526E+02  0.21461673526E+02  0.00000000000E+00 0.  1.
         -6    2    1    2    0  503 -0.52008974810E+02 -0.15812731334E+02  0.77129210794E+03  0.79209816472E+03  0.17196805184E+03 0.  0.
        -24    2    3    3    0    0 -0.65562465480E+02 -0.64357128507E+02  0.62737425480E+03  0.63953770438E+03  0.83484985913E+02 0.  0.
          6    2    1    2  501    0  0.52008974810E+02  0.15812731334E+02  0.72323549040E+03  0.74535278067E+03  0.17183194449E+03 0.  0.
         24    2    5    5    0    0 -0.21422775023E+02  0.42257997626E+02  0.27244783081E+03  0.28783428046E+03  0.79850352811E+02 0.  0.
          5    1    5    5  501    0  0.73431749832E+02 -0.26445266292E+02  0.45078765959E+03  0.45751850021E+03  0.47000000000E+01 0. -1.
        -11    1    6    6    0    0 -0.50730711167E+02  0.20488367304E+02  0.18877218574E+03  0.19654087707E+03  0.00000000000E+00 0.  1.
         12    1    6    6    0    0  0.29307936145E+02  0.21769630322E+02  0.83675645069E+02  0.91293403393E+02  0.00000000000E+00 0. -1.
         -5    1    3    3    0  503  0.13553490670E+02  0.48544397173E+02  0.14391785314E+03  0.15256046034E+03  0.47000000000E+01 0.  1.
         11    1    4    4    0    0 -0.54511791806E+02 -0.17112918905E+02  0.16474605535E+03  0.17437216003E+03  0.00000000000E+00 0. -1.
        -12    1    4    4    0    0 -0.11050673674E+02 -0.47244209602E+02  0.46262819945E+03  0.46516554436E+03  0.00000000000E+00 0.  1.
</event>
<event>
12    1  0.1050869E+000  0.2027280E+03  0.7818608E-02  0.1148089E+00
         21   -1    0    0  501  502  0.00000000000E+00  0.00000000000E+00  0.38189045675E+03  0.38189045675E+03  0.00000000000E+00 0.  1.
         21   -1    0    0  502  503 -0.00000000000E+00 -0.00000000000E+00 -0.12626583387E+03  0.12626583387E+03  0.00000000000E+00 0.  1.
         -6    2    1    2    0  503  0.69445386700E+02  0.75256270576E+02  0.23035720673E+03  0.30686006804E+03  0.17496425541E+03 0.  0.
        -24    2    3    3    0    0  0.32326739553E+02  0.83046986896E+02  0.62019802314E+02  0.13423891942E+03  0.78941823419E+02 0.  0.
          6    2    1    2  501    0 -0.69445386700E+02 -0.75256270576E+02  0.25267416148E+02  0.20129622257E+03  0.17145133102E+03 0.  0.
         24    2    5    5    0    0 -0.15944312716E+02 -0.89815063232E+02  0.60567776988E+02  0.13539835586E+03  0.79644789346E+02 0.  0.
          5    1    5    5  501    0 -0.53501073984E+02  0.14558792657E+02 -0.35300360840E+02  0.65897866707E+02  0.47000000000E+01 0. -1.
        -13    1    6    6    0    0  0.27324233228E+02 -0.29460528030E+02  0.99333552479E+00  0.40193570988E+02  0.00000000000E+00 0.  1.
         14    1    6    6    0    0 -0.43268545944E+02 -0.60354535203E+02  0.59574441463E+02  0.95204784876E+02  0.00000000000E+00 0. -1.
         -5    1    3    3    0  503  0.37118647147E+02 -0.77907163200E+01  0.16833740442E+03  0.17262114862E+03  0.47000000000E+01 0.  1.
         13    1    4    4    0    0  0.44074968916E+02  0.71319831423E+02  0.75523616094E+02  0.11284032004E+03  0.00000000000E+00 0. -1.
        -14    1    4    4    0    0 -0.11748229363E+02  0.11727155473E+02 -0.13503813780E+02  0.21398599376E+02  0.00000000000E+00 0.  1.
</event>
<event>
12    1  0.1050869E+000  0.4352779E+03  0.7818608E-02  0.1032359E+00
         21   -1    0    0  501  502  0.00000000000E+00  0.00000000000E+00  0.24157377505E+03  0.24157377505E+03  0.00000000000E+00 0. -1.
         21   -1    0    0  502  503 -0.00000000000E+00 -0.00000000000E+00 -0.14544503855E+04  0.14544503855E+04  0.00000000000E+00 0. -1.
         -6    2    1    2    0  503 -0.83786595830E+02 -0.38892741998E+03 -0.30035015782E+02  0.43631289822E+03  0.17658457274E+03 0.  0.
        -24    2    3    3    0    0 -0.49513369402E+02 -0.38216555094E+03 -0.60181460391E+01  0.39365991527E+03  0.80186212871E+02 0.  0.
          6    2    1    2  501    0  0.83786595830E+02  0.38892741998E+03 -0.11828415946E+04  0.12597112623E+04  0.17167846310E+03 0.  0.
         24    2    5    5    0    0  0.45526710257E+01  0.31326407882E+03 -0.86741787119E+03  0.92576939408E+03  0.80499055004E+02 0.  0.
          5    1    5    5  501    0  0.79233924804E+02  0.75663341163E+02 -0.31542372345E+03  0.33394186822E+03  0.47000000000E+01 0. -1.
        -13    1    6    6    0    0  0.35011417464E+02  0.25144809461E+03 -0.70591482107E+03  0.75017843094E+03  0.00000000000E+00 0.  1.
         14    1    6    6    0    0 -0.30458746438E+02  0.61815984207E+02 -0.16150305012E+03  0.17559096314E+03  0.00000000000E+00 0. -1.
         -5    1    3    3    0  503 -0.34273226428E+02 -0.67618690438E+01 -0.24016869743E+02  0.42652982955E+02  0.47000000000E+01 0.  1.
         11    1    4    4    0    0 -0.16520298327E+02 -0.35983327180E+02  0.21077347555E+02  0.44855040649E+02  0.00000000000E+00 0. -1.
        -12    1    4    4    0    0 -0.32993071075E+02 -0.34618222376E+03 -0.27095493594E+02  0.34880487462E+03  0.00000000000E+00 0.  1.
</event>
<event>
12    1  0.1050869E+000  0.1844112E+03  0.7818608E-02  0.1164092E+00
         21   -1    0    0  501  502  0.00000000000E+00  0.00000000000E+00  0.45276233470E+02  0.45276233470E+02  0.00000000000E+00 0. -1.
         21   -1    0    0  502  503 -0.00000000000E+00 -0.00000000000E+00 -0.10289596315E+04  0.10289596315E+04  0.00000000000E+00 0. -1.
         -6    2    1    2    0  503  0.58853419181E+02 -0.20594412362E+02 -0.21053547284E+03  0.27987975737E+03  0.17355010369E+03 0.  0.
        -24    2    3    3    0    0  0.94942465419E+01  0.52201825837E+02 -0.10579832621E+03  0.14303100837E+03  0.80308232380E+02 0.  0.
          6    2    1    2  501    0 -0.58853419181E+02  0.20594412362E+02 -0.77314792515E+03  0.79435610756E+03  0.17133609276E+03 0.  0.
         24    2    5    5    0    0 -0.60811615455E+02 -0.15699956054E+02 -0.24393074974E+03  0.26387140046E+03  0.78621651728E+02 0.  0.
          5    1    5    5  501    0  0.19581962736E+01  0.36294368416E+02 -0.52921717541E+03  0.53048470710E+03  0.47000000000E+01 0. -1.
        -11    1    6    6    0    0  0.77038419840E+01 -0.15739240793E+02 -0.10135758623E+02  0.20243677653E+02  0.00000000000E+00 0.  1.
         12    1    6    6    0    0 -0.68515457439E+02  0.39284738403E-01 -0.23379499111E+03  0.24362772281E+03  0.00000000000E+00 0. -1.
         -5    1    3    3    0  503  0.49359172639E+02 -0.72796238199E+02 -0.10473714663E+03  0.13684874900E+03  0.47000000000E+01 0.  1.
         13    1    4    4    0    0 -0.22812900109E+02  0.12544470586E+02 -0.58325830388E+00  0.26040974327E+02  0.00000000000E+00 0. -1.
        -14    1    4    4    0    0  0.32307146651E+02  0.39657355251E+02 -0.10521506791E+03  0.11699003404E+03  0.00000000000E+00 0.  1.
</event>
<event>
12    1  0.1050869E+000  0.2234247E+03  0.7818608E-02  0.1132164E+00
         21   -1    0    0  501  502  0.00000000000E+00  0.00000000000E+00  0.47404398338E+02  0.47404398338E+02  0.00000000000E+00 0.  1.
         21   -1    0    0  502  503 -0.00000000000E+00 -0.00000000000E+00 -0.17820886835E+04  0.17820886835E+04  0.00000000000E+00 0.  1.
         -6    2    1    2    0  503 -0.76268322304E+02  0.11574139445E+03 -0.14556161960E+04  0.14720051834E+04  0.16961079790E+03 0.  0.
        -24    2    3    3    0    0 -0.74564693249E+02  0.14675477979E+03 -0.13260862908E+04  0.13387204553E+04  0.81060150225E+02 0.  0.
          6    2    1    2  501    0  0.76268322304E+02 -0.11574139445E+03 -0.27906808923E+03  0.35748789843E+03  0.17523033903E+03 0.  0.
         24    2    5    5    0    0  0.58663537195E+02  0.55084656404E+01 -0.10292872920E+03  0.14287517470E+03  0.79669557935E+02 0.  0.
          5    1    5    5  501    0  0.17604785109E+02 -0.12124986009E+03 -0.17613936003E+03  0.21461272373E+03  0.47000000000E+01 0. -1.
        -13    1    6    6    0    0  0.27011836589E+02  0.92382006437E+01  0.61781337056E+01  0.29208782979E+02  0.00000000000E+00 0.  1.
         14    1    6    6    0    0  0.31651700606E+02 -0.37297350033E+01 -0.10910686290E+03  0.11366639172E+03  0.00000000000E+00 0. -1.
         -5    1    3    3    0  503 -0.17036290554E+01 -0.31013385336E+02 -0.12952990515E+03  0.13328472812E+03  0.47000000000E+01 0.  1.
         13    1    4    4    0    0 -0.10295280538E+02  0.23321554361E+02 -0.62575640308E+02  0.67569212362E+02  0.00000000000E+00 0. -1.
        -14    1    4    4    0    0 -0.64269412711E+02  0.12343322543E+03 -0.12635106505E+04  0.12711512430E+04  0.00000000000E+00 0.  1.
</event>
<event>
12    1  0.1050869E+000  0.4966152E+03  0.7818608E-02  0.1014679E+00
         21   -1    0    0  503  502  0.00000000000E+00  0.00000000000E+00  0.24976534468E+03  0.24976534468E+03  0.00000000000E+00 0.  1.
         21   -1    0    0  501  503 -0.00000000000E+00 -0.00000000000E+00 -0.11117957484E+04  0.11117957484E+04  0.00000000000E+00 0. -1.
          6    2    1    2  501    0 -0.27658193578E+03  0.37458369302E+03 -0.20304590485E+03  0.53652058611E+03  0.17267365047E+03 0.  0.
         24    2    3    3    0    0 -0.20800586533E+03  0.18641370948E+03 -0.78644732055E+02  0.30070633307E+03  0.78884686569E+02 0.  0.
         -6    2    1    2    0  502  0.27658193578E+03 -0.37458369302E+03 -0.65898449886E+03  0.82504050696E+03  0.17210682179E+03 0.  0.
        -24    2    5    5    0    0  0.86898534256E+02 -0.13187032283E+03 -0.33901372890E+03  0.38086378930E+03  0.72012362241E+02 0.  0.
          5    1    3    3  501    0 -0.68576070452E+02  0.18816998355E+03 -0.12440117279E+03  0.23581425305E+03  0.47000000000E+01 0. -1.
        -11    1    4    4    0    0 -0.89918703782E+02  0.89093315464E+02  0.42899293125E+01  0.12665463135E+03  0.00000000000E+00 0.  1.
         12    1    4    4    0    0 -0.11808716155E+03  0.97320394013E+02 -0.82934661367E+02  0.17405170171E+03  0.00000000000E+00 0. -1.
         -5    1    5    5    0  502  0.18968340152E+03 -0.24271337019E+03 -0.31997076996E+03  0.44417671766E+03  0.47000000000E+01 0.  1.
         13    1    6    6    0    0  0.72575908838E+02 -0.10497180747E+03 -0.19076995170E+03  0.22952018947E+03  0.00000000000E+00 0. -1.
        -14    1    6    6    0    0  0.14322625418E+02 -0.26898515367E+02 -0.14824377720E+03  0.15134359982E+03  0.00000000000E+00 0.  1.
</event>
<event>
12    1  0.1050869E+000  0.1987933E+03  0.7818608E-02  0.1150834E+00
         21   -1    0    0  503  502  0.00000000000E+00  0.00000000000E+00  0.91637412309E+03  0.91637412309E+03  0.00000000000E+00 0.  1.
         21   -1    0    0  501  503 -0.00000000000E+00 -0.00000000000E+00 -0.47978978391E+02  0.47978978391E+02  0.00000000000E+00 0.  1.
          6    2    1    2  501    0 -0.75531945731E+01  0.98544954507E+02  0.58906835743E+03  0.62170758038E+03  0.17248370057E+03 0.  0.
         24    2    3    3    0    0 -0.67574331748E+01 -0.19024886461E+02  0.23376669174E+03  0.24742872126E+03  0.78527044560E+02 0.  0.
         -6    2    1    2    0  502  0.75531945731E+01 -0.98544954507E+02  0.27932678726E+03  0.34264552110E+03  0.17208817577E+03 0.  0.
        -24    2    5    5    0    0 -0.35656607925E+02 -0.11449540952E+03  0.24749695965E+03  0.28646071913E+03  0.80152392830E+02 0.  0.
          5    1    3    3  501    0 -0.79576139825E+00  0.11756984097E+03  0.35530166569E+03  0.37427885912E+03  0.47000000000E+01 0. -1.
        -13    1    4    4    0    0 -0.31869462503E+02 -0.36761091495E+02  0.11769418788E+03  0.12735368997E+03  0.00000000000E+00 0.  1.
         14    1    4    4    0    0  0.25112029328E+02  0.17736205034E+02  0.11607250387E+03  0.12007503129E+03  0.00000000000E+00 0. -1.
         -5    1    5    5    0  502  0.43209802498E+02  0.15950455010E+02  0.31829827606E+02  0.56184801970E+02  0.47000000000E+01 0.  1.
         13    1    6    6    0    0 -0.37041766906E+01 -0.88248612205E+02  0.21927900340E+03  0.23639970350E+03  0.00000000000E+00 0. -1.
        -14    1    6    6    0    0 -0.31952431234E+02 -0.26246797311E+02  0.28217956253E+02  0.50061015631E+02  0.00000000000E+00 0.  1.
</event>
<event>
12    1  0.1050869E+000  0.1775186E+03  0.7818608E-02  0.1170424E+00
         21   -1    0    0  501  502  0.00000000000E+00  0.00000000000E+00  0.34595845787E+02  0.34595845787E+02  0.00000000000E+00 0.  1.
         21   -1    0    0  502  503 -0.00000000000E+00 -0.00000000000E+00 -0.10297985600E+04  0.10297985600E+04  0.00000000000E+00 0.  1.
         -6    2    1    2    0  503 -0.29312252443E+02 -0.31440737181E+02 -0.31266384791E+03  0.35914824385E+03  0.17140901719E+03 0.  0.
        -24    2    3    3    0    0 -0.91219045120E+02 -0.25855780753E+02 -0.16699793011E+03  0.20070490279E+03  0.58349925045E+02 0.  0.
          6    2    1    2  501    0  0.29312252443E+02  0.31440737181E+02 -0.68253886630E+03  0.70524616193E+03  0.17223564327E+03 0.  0.
         24    2    5    5    0    0  0.51002313081E+02 -0.30092270836E+02 -0.53281004035E+03  0.54185221735E+03  0.78806761415E+02 0.  0.
          5    1    5    5  501    0 -0.21690060638E+02  0.61533008017E+02 -0.14972882595E+03  0.16339394458E+03  0.47000000000E+01 0. -1.
        -11    1    6    6    0    0 -0.12196277614E+02 -0.13575971243E+02 -0.32312136061E+02  0.37109706542E+02  0.00000000000E+00 0.  1.
         12    1    6    6    0    0  0.63198590695E+02 -0.16516299593E+02 -0.50049790429E+03  0.50474251081E+03  0.00000000000E+00 0. -1.
         -5    1    3    3    0  503  0.61906792677E+02 -0.55849564274E+01 -0.14566591780E+03  0.15844334106E+03  0.47000000000E+01 0.  1.
         13    1    4    4    0    0 -0.32343064063E+02 -0.25369048669E+02 -0.11509779035E+03  0.12221769007E+03  0.00000000000E+00 0. -1.
        -14    1    4    4    0    0 -0.58875981057E+02 -0.48673208408E+00 -0.51900139767E+02  0.78487212725E+02  0.00000000000E+00 0.  1.
</event>
<event>
12    1  0.1050869E+000  0.2441522E+03  0.7818608E-02  0.1117177E+00
         21   -1    0    0  503  502  0.00000000000E+00  0.00000000000E+00  0.66360875193E+02  0.66360875193E+02  0.00000000000E+00 0. -1.
         21   -1    0    0  501  503 -0.00000000000E+00 -0.00000000000E+00 -0.90625192464E+03  0.90625192464E+03  0.00000000000E+00 0. -1.
          6    2    1    2  501    0  0.62099029932E+01 -0.17298966193E+03 -0.47208183048E+03  0.53114488821E+03  0.17114219694E+03 0.  0.
         24    2    3    3    0    0 -0.17106086633E+02 -0.80673721217E+02 -0.11972117643E+03  0.16611613755E+03  0.80377506650E+02 0.  0.
         -6    2    1    2    0  502 -0.62099029932E+01  0.17298966193E+03 -0.36780921896E+03  0.44146791162E+03  0.17218103672E+03 0.  0.
        -24    2    5    5    0    0 -0.40996157614E+02  0.17408469664E+03 -0.24956970593E+03  0.31812304932E+03  0.83253047109E+02 0.  0.
          5    1    3    3  501    0  0.23315989627E+02 -0.92315940710E+02 -0.35236065406E+03  0.36502875066E+03  0.47000000000E+01 0. -1.
        -11    1    4    4    0    0 -0.46147963039E+02 -0.70250389449E+02 -0.92307657146E+02  0.12484172090E+03  0.00000000000E+00 0.  1.
         12    1    4    4    0    0  0.29041876406E+02 -0.10423331768E+02 -0.27413519279E+02  0.41274416647E+02  0.00000000000E+00 0. -1.
         -5    1    5    5    0  502  0.34786254621E+02 -0.10950347095E+01 -0.11823951304E+03  0.12334486230E+03  0.47000000000E+01 0.  1.
         11    1    6    6    0    0 -0.34769298077E+02  0.20586600955E+02 -0.77870023295E+02  0.87729429245E+02  0.00000000000E+00 0. -1.
        -12    1    6    6    0    0 -0.62268595369E+01  0.15349809568E+03 -0.17169968263E+03  0.23039362008E+03  0.00000000000E+00 0.  1.
</event>
<event>
12    1  0.1050869E+000  0.1999212E+03  0.7818608E-02  0.1150265E+00
         21   -1    0    0  501  502  0.00000000000E+00  0.00000000000E+00  0.10561123981E+03  0.10561123981E+03  0.00000000000E+00 0.  1.
         21   -1    0    0  502  503 -0.00000000000E+00 -0.00000000000E+00 -0.39267065964E+03  0.39267065964E+03  0.00000000000E+00 0.  1.
         -6    2    1    2    0  503  0.91081815251E+02  0.35548223318E+02 -0.88994262028E+02  0.21685999714E+03  0.17189737182E+03 0.  0.
        -24    2    3    3    0    0  0.97505596747E+02  0.18208919541E+02 -0.12304973342E+03  0.17782435246E+03  0.81494523038E+02 0.  0.
          6    2    1    2  501    0 -0.91081815251E+02 -0.35548223318E+02 -0.19806515781E+03  0.28142190230E+03  0.17438149875E+03 0.  0.
         24    2    5    5    0    0 -0.34730236987E+02 -0.28657064824E+02 -0.32968626353E+02  0.10677384724E+03  0.91029156897E+02 0.  0.
          5    1    5    5  501    0 -0.56351578264E+02 -0.68911584936E+01 -0.16509653145E+03  0.17464805506E+03  0.47000000000E+01 0. -1.
        -13    1    6    6    0    0  0.25131559690E+02 -0.19206484402E+02 -0.33629032661E+02  0.46167046399E+02  0.00000000000E+00 0.  1.
         14    1    6    6    0    0 -0.59861796677E+02 -0.94505804225E+01  0.66040630791E+00  0.60606800841E+02  0.00000000000E+00 0. -1.
         -5    1    3    3    0  503 -0.64237814954E+01  0.17339303776E+02  0.34055471393E+02  0.39035644685E+02  0.47000000000E+01 0.  1.
         11    1    4    4    0    0  0.92418610928E+02 -0.15731515610E+02 -0.84482158664E+02  0.12619792138E+03  0.00000000000E+00 0. -1.
        -12    1    4    4    0    0  0.50869858184E+01  0.33940435151E+02 -0.38567574757E+02  0.51626431076E+02  0.00000000000E+00 0.  1.
</event>
<event>
12    1  0.1050869E+000  0.2217849E+03  0.7818608E-02  0.1132832E+00
         21   -1    0    0  501  502  0.00000000000E+00  0.00000000000E+00  0.45663144248E+03  0.45663144248E+03  0.00000000000E+00 0. -1.
         21   -1    0    0  502  503 -0.00000000000E+00 -0.00000000000E+00 -0.13589153052E+03  0.13589153052E+03  0.00000000000E+00 0. -1.
         -6    2    1    2    0  503 -0.12381539161E+03  0.61729030467E+02  0.29653651851E+03  0.36942128312E+03  0.17145685525E+03 0.  0.
        -24    2    3    3    0    0 -0.71660872374E+02  0.96358095540E+01  0.63847321437E+02  0.12528986365E+03  0.79955862966E+02 0.  0.
          6    2    1    2  501    0  0.12381539161E+03 -0.61729030467E+02  0.24203393446E+02  0.22310168988E+03  0.17334311457E+03 0.  0.
         24    2    5    5    0    0  0.13852786767E+02 -0.59713239053E+02  0.40354121672E+02  0.11184175144E+03  0.84395210816E+02 0.  0.
          5    1    5    5  501    0  0.10996260485E+03 -0.20157914140E+01 -0.16150728226E+02  0.11125993844E+03  0.47000000000E+01 0. -1.
        -13    1    6    6    0    0 -0.26193635355E+02 -0.28320368588E+02 -0.10419152260E+02  0.39958835617E+02  0.00000000000E+00 0.  1.
         14    1    6    6    0    0  0.40046422122E+02 -0.31392870465E+02  0.50773273931E+02  0.71882915818E+02  0.00000000000E+00 0. -1.
         -5    1    3    3    0  503 -0.52154519240E+02  0.52093220913E+02  0.23268919707E+03  0.24413141948E+03  0.47000000000E+01 0.  1.
         11    1    4    4    0    0 -0.74508463010E+02  0.13256887937E+02  0.79031502430E+02  0.10942227613E+03  0.00000000000E+00 0. -1.
        -12    1    4    4    0    0  0.28475906354E+01 -0.36210783830E+01 -0.15184180992E+02  0.15867587513E+02  0.00000000000E+00 0.  1.
</event>
<event>
12    1  0.1050869E+000  0.3174803E+03  0.7818608E-02  0.1076845E+00
         21   -1    0    0  501  502  0.00000000000E+00  0.00000000000E+00  0.23027037258E+03  0.23027037258E+03  0.00000000000E+00 0. -1.
         21   -1    0    0  502  503 -0.00000000000E+00 -0.00000000000E+00 -0.55395448009E+03  0.55395448009E+03  0.00000000000E+00 0.  1.
         -6    2    1    2    0  503 -0.39848622673E+02 -0.26376962786E+03 -0.34178518234E+03  0.46648777213E+03  0.17213773953E+03 0.  0.
        -24    2    3    3    0    0  0.69181854141E+01 -0.24521672963E+03 -0.23977041473E+03  0.35264381234E+03  0.81784477856E+02 0.  0.
          6    2    1    2  501    0  0.39848622673E+02  0.26376962786E+03  0.18101074828E+02  0.31773708054E+03  0.17165918015E+03 0.  0.
         24    2    5    5    0    0  0.57448069359E+02  0.15465437646E+03 -0.48042559792E+02  0.18884585115E+03  0.78335248228E+02 0.  0.
          5    1    5    5  501    0 -0.17599446686E+02  0.10911525139E+03  0.66143634620E+02  0.12889122938E+03  0.47000000000E+01 0. -1.
        -11    1    6    6    0    0  0.16439583148E+02  0.17005724833E+02 -0.38138131943E+02  0.44877295811E+02  0.00000000000E+00 0.  1.
         12    1    6    6    0    0  0.41008486211E+02  0.13764865163E+03 -0.99044278484E+01  0.14396855534E+03  0.00000000000E+00 0. -1.
         -5    1    3    3    0  503 -0.46766808087E+02 -0.18552898227E+02 -0.10201476760E+03  0.11384395979E+03  0.47000000000E+01 0.  1.
         13    1    4    4    0    0 -0.33451379073E+02 -0.95790667497E+02 -0.72224364596E+02  0.12454399055E+03  0.00000000000E+00 0. -1.
        -14    1    4    4    0    0  0.40369564487E+02 -0.14942606213E+03 -0.16754605014E+03  0.22809982178E+03  0.00000000000E+00 0.  1.
</event>
<event>
12    1  0.1050869E+000  0.1774133E+03  0.7818608E-02  0.1170696E+00
         21   -1    0    0  503  502  0.00000000000E+00  0.00000000000E+00  0.18850183722E+03  0.18850183722E+03  0.00000000000E+00 0. -1.
         21   -1    0    0  501  503 -0.00000000000E+00 -0.00000000000E+00 -0.17826779359E+03  0.17826779359E+03  0.00000000000E+00 0. -1.
          6    2    1    2  501    0  0.45622832399E+02  0.58386336539E+01 -0.43804612810E+02  0.18130899886E+03  0.16981924651E+03 0.  0.
         24    2    3    3    0    0  0.79153427386E+02  0.42169692082E+02 -0.67750184530E+01  0.11936121871E+03  0.78470705745E+02 0.  0.
         -6    2    1    2    0  502 -0.45622832399E+02 -0.58386336539E+01  0.54038656442E+02  0.18546063195E+03  0.17134741648E+03 0.  0.
        -24    2    5    5    0    0 -0.97029346762E+02 -0.86784335136E+01  0.34466469268E+02  0.13018084637E+03  0.79177685731E+02 0.  0.
          5    1    3    3  501    0 -0.33530594987E+02 -0.36331058429E+02 -0.37029594357E+02  0.61947780146E+02  0.47000000000E+01 0. -1.
        -13    1    4    4    0    0  0.68482372797E+02 -0.44298069250E+01  0.85573529129E+01  0.69156972622E+02  0.00000000000E+00 0.  1.
         14    1    4    4    0    0  0.10671054589E+02  0.46599499008E+02 -0.15332371366E+02  0.50204246090E+02  0.00000000000E+00 0. -1.
         -5    1    5    5    0  502  0.51406514363E+02  0.28397998596E+01  0.19572187175E+02  0.55279785573E+02  0.47000000000E+01 0.  1.
         11    1    6    6    0    0 -0.61017330591E+02 -0.35887189225E+02 -0.39665483499E+01  0.70899495687E+02  0.00000000000E+00 0. -1.
        -12    1    6    6    0    0 -0.36012016171E+02  0.27208755712E+02  0.38433017618E+02  0.59281350687E+02  0.00000000000E+00 0.  1.
</event>
<event>
12    1  0.1050869E+000  0.4925773E+03  0.7818608E-02  0.1015755E+00
         21   -1    0    0  501  502  0.00000000000E+00  0.00000000000E+00  0.65437186820E+03  0.65437186820E+03  0.00000000000E+00 0. -1.
         21   -1    0    0  502  503 -0.00000000000E+00 -0.00000000000E+00 -0.54600395272E+03  0.54600395272E+03  0.00000000000E+00 0. -1.
         -6    2    1    2    0  503  0.17501289490E+03  0.42696938638E+03 -0.28602572649E+03  0.56959904557E+03  0.17233683939E+03 0.  0.
        -24    2    3    3    0    0  0.15012948903E+03  0.28203421982E+03 -0.25937530914E+03  0.42007406057E+03  0.84288200526E+02 0.  0.
          6    2    1    2  501    0 -0.17501289490E+03 -0.42696938638E+03  0.39439364197E+03  0.63077677536E+03  0.17146610517E+03 0.  0.
         24    2    5    5    0    0 -0.10268476400E+03 -0.12292102849E+03  0.12605872677E+03  0.21882716780E+03  0.79629057321E+02 0.  0.
          5    1    5    5  501    0 -0.72328130897E+02 -0.30404835789E+03  0.26833491520E+03  0.41194960756E+03  0.47000000000E+01 0. -1.
        -11    1    6    6    0    0 -0.31442158361E+02 -0.97355816033E+02  0.83034224076E+02  0.13176284228E+03  0.00000000000E+00 0.  1.
         12    1    6    6    0    0 -0.71242605641E+02 -0.25565212460E+02  0.43024502693E+02  0.87064325522E+02  0.00000000000E+00 0. -1.
         -5    1    3    3    0  503  0.24883405871E+02  0.14493516656E+03 -0.26650417349E+02  0.14952498500E+03  0.47000000000E+01 0.  1.
         11    1    4    4    0    0  0.92075927913E+02  0.11237765448E+03 -0.77466986000E+02  0.16464461014E+03  0.00000000000E+00 0. -1.
        -12    1    4    4    0    0  0.58053561115E+02  0.16965656534E+03 -0.18190832314E+03  0.25542945043E+03  0.00000000000E+00 0.  1.
</event>
<event>
12    1  0.1050869E+000  0.2646208E+03  0.7818608E-02  0.1104558E+00
         21   -1    0    0  501  502  0.00000000000E+00  0.00000000000E+00  0.18374716988E+03  0.18374716988E+03  0.00000000000E+00 0. -1.
         21   -1    0    0  502  503 -0.00000000000E+00 -0.00000000000E+00 -0.44850419723E+03  0.44850419723E+03  0.00000000000E+00 0. -1.
         -6    2    1    2    0  503 -0.26742514937E+02  0.19812838984E+03 -0.25657609005E+03  0.36858574428E+03  0.17336129885E+03 0.  0.
        -24    2    3    3    0    0 -0.28033872227E+02  0.20951271095E+03 -0.17349604448E+03  0.28458780179E+03  0.78790008487E+02 0.  0.
          6    2    1    2  501    0  0.26742514937E+02 -0.19812838984E+03 -0.81809373011E+01  0.26366562283E+03  0.17170501439E+03 0.  0.
         24    2    5    5    0    0  0.43672835548E+02 -0.21328375976E+03 -0.28396207049E+02  0.23289115087E+03  0.77683105240E+02 0.  0.
          5    1    5    5  501    0 -0.16930320611E+02  0.15155369921E+02  0.20215269748E+02  0.30774471960E+02  0.47000000000E+01 0. -1.
        -11    1    6    6    0    0 -0.15544160750E+02 -0.65170932564E+02  0.12649918335E+02  0.68182782420E+02  0.00000000000E+00 0.  1.
         12    1    6    6    0    0  0.59216996298E+02 -0.14811282719E+03 -0.41046125384E+02  0.16470836845E+03  0.00000000000E+00 0. -1.
         -5    1    3    3    0  503  0.12913572897E+01 -0.11384321113E+02 -0.83080045570E+02  0.83997942491E+02  0.47000000000E+01 0.  1.
         11    1    4    4    0    0  0.10379184081E+02  0.43599401323E+02 -0.76333591375E+02  0.88518090976E+02  0.00000000000E+00 0. -1.
        -12    1    4    4    0    0 -0.38413056308E+02  0.16591330963E+03 -0.97162453105E+02  0.19606971082E+03  0.00000000000E+00 0.  1.
</event>
<event>
12    1  0.1050869E+000  0.1871754E+03  0.7818608E-02  0.1161244E+00
         21   -1    0    0  501  502  0.00000000000E+00  0.00000000000E+00  0.56149455700E+02  0.56149455700E+02  0.00000000000E+00 0. -1.
         21   -1    0    0  502  503 -0.00000000000E+00 -0.00000000000E+00 -0.99404028947E+03  0.99404028947E+03  0.00000000000E+00 0. -1.
         -6    2    1    2    0  503  0.70961159068E+02 -0.17421037829E+02 -0.14652841744E+03  0.23699291290E+03  0.17133617537E+03 0.  0.
        -24    2    3    3    0    0  0.52958191583E+02  0.40042767831E+02 -0.34935714690E+02  0.11010234151E+03  0.80585533037E+02 0.  0.
          6    2    1    2  501    0 -0.70961159068E+02  0.17421037829E+02 -0.79136241633E+03  0.81319683227E+03  0.17232421588E+03 0.  0.
         24    2    5    5    0    0 -0.47635198003E+02  0.32146139400E+02 -0.22195683470E+03  0.24310408941E+03  0.80822493458E+02 0.  0.
          5    1    5    5  501    0 -0.23325961065E+02 -0.14725101571E+02 -0.56940558162E+03  0.57009274286E+03  0.47000000000E+01 0. -1.
        -11    1    6    6    0    0  0.38903806651E+01 -0.13451715347E+02 -0.11551468402E+03  0.11636032800E+03  0.00000000000E+00 0.  1.
         12    1    6    6    0    0 -0.51525578668E+02  0.45597854747E+02 -0.10644215068E+03  0.12674376141E+03  0.00000000000E+00 0. -1.
         -5    1    3    3    0  503  0.18002967485E+02 -0.57463805660E+02 -0.11159270275E+03  0.12689057139E+03  0.47000000000E+01 0.  1.
         13    1    4    4    0    0 -0.19894524144E+02  0.21086208126E+02 -0.71427431526E+01  0.29856976468E+02  0.00000000000E+00 0. -1.
        -14    1    4    4    0    0  0.72852715727E+02  0.18956559705E+02 -0.27792971537E+02  0.80245365047E+02  0.00000000000E+00 0.  1.
</event>
<event>
12    1  0.1050869E+000  0.2119125E+03  0.7818608E-02  0.1140092E+00
         21   -1    0    0  503  502  0.00000000000E+00  0.00000000000E+00  0.13169646966E+03  0.13169646966E+03  0.00000000000E+00 0.  1.
         21   -1    0    0  501  503 -0.00000000000E+00 -0.00000000000E+00 -0.49624074081E+03  0.49624074081E+03  0.00000000000E+00 0.  1.
          6    2    1    2  501    0 -0.10823390378E+03 -0.58956686358E+02 -0.35807927631E+03  0.41608615749E+03  0.17238460934E+03 0.  0.
         24    2    3    3    0    0 -0.46634038759E+02 -0.93151401736E+02 -0.28797407144E+03  0.31658413901E+03  0.80277855207E+02 0.  0.
         -6    2    1    2    0  502  0.10823390378E+03  0.58956686358E+02 -0.64649948377E+01  0.21185105297E+03  0.17218769902E+03 0.  0.
        -24    2    5    5    0    0  0.31332510626E+02  0.67383141410E+02  0.48138354968E+02  0.11704364174E+03  0.76548670041E+02 0.  0.
          5    1    3    3  501    0 -0.61599865025E+02  0.34194715378E+02 -0.70105204869E+02  0.99502018475E+02  0.47000000000E+01 0. -1.
        -13    1    4    4    0    0  0.21554574247E+02 -0.16504177332E+02 -0.83766921266E+02  0.88056144810E+02  0.00000000000E+00 0.  1.
         14    1    4    4    0    0 -0.68188613006E+02 -0.76647224404E+02 -0.20420715017E+03  0.22852799420E+03  0.00000000000E+00 0. -1.
         -5    1    5    5    0  502  0.76901393158E+02 -0.84264550522E+01 -0.54603349806E+02  0.94807411231E+02  0.47000000000E+01 0.  1.
         11    1    6    6    0    0  0.13575757970E+02  0.53142977782E+02 -0.89591798348E+01  0.55576471599E+02  0.00000000000E+00 0. -1.
        -12    1    6    6    0    0  0.17756752656E+02  0.14240163628E+02  0.57097534803E+02  0.61467170144E+02  0.00000000000E+00 0.  1.
</event>
<event>
12    1  0.1050869E+000  0.2160029E+03  0.7818608E-02  0.1137215E+00
         21   -1    0    0  503  502  0.00000000000E+00  0.00000000000E+00  0.44802494850E+03  0.44802494850E+03  0.00000000000E+00 0.  1.
         21   -1    0    0  501  503 -0.00000000000E+00 -0.00000000000E+00 -0.13454791828E+03  0.13454791828E+03  0.00000000000E+00 0.  1.
          6    2    1    2  501    0  0.62740390711E+02 -0.11162896398E+03  0.16927829503E+02  0.21666520769E+03  0.17395366793E+03 0.  0.
         24    2    3    3    0    0  0.96697705702E+02 -0.12238172700E+03 -0.39027314487E+01  0.17513541810E+03  0.79557840398E+02 0.  0.
         -6    2    1    2    0  502 -0.62740390711E+02  0.11162896398E+03  0.29654920072E+03  0.36590765908E+03  0.17189998341E+03 0.  0.
        -24    2    5    5    0    0 -0.53149219945E+01  0.12207708529E+03  0.25804953052E+03  0.29582797371E+03  0.77418128865E+02 0.  0.
          5    1    3    3  501    0 -0.33957314991E+02  0.10752763019E+02  0.20830560951E+02  0.41529789591E+02  0.47000000000E+01 0. -1.
        -11    1    4    4    0    0  0.58479932827E+02 -0.25960104592E+02 -0.26041394344E+02  0.69079546852E+02  0.00000000000E+00 0.  1.
         12    1    4    4    0    0  0.38217772875E+02 -0.96421622412E+02  0.22138662895E+02  0.10605587125E+03  0.00000000000E+00 0. -1.
         -5    1    5    5    0  502 -0.57425468717E+02 -0.10448121309E+02  0.38499670202E+02  0.70079685372E+02  0.47000000000E+01 0.  1.
         11    1    6    6    0    0 -0.32992559037E+02  0.36299756509E+02  0.55141920214E+02  0.73802524613E+02  0.00000000000E+00 0. -1.
        -12    1    6    6    0    0  0.27677637042E+02  0.85777328785E+02  0.20290761031E+03  0.22202544910E+03  0.00000000000E+00 0.  1.
</event>
<event>
12    1  0.1050869E+000  0.2140344E+03  0.7818608E-02  0.1138869E+00
         21   -1    0    0  503  502  0.00000000000E+00  0.00000000000E+00  0.29738509153E+03  0.29738509153E+03  0.00000000000E+00 0.  1.
         21   -1    0    0  501  503 -0.00000000000E+00 -0.00000000000E+00 -0.16257787065E+03  0.16257787065E+03  0.00000000000E+00 0.  1.
          6    2    1    2  501    0  0.12625227709E+03  0.58496461226E+01  0.12543181925E+03  0.24808033064E+03  0.17273347487E+03 0.  0.
         24    2    3    3    0    0  0.98384021396E+02  0.57563530013E+02  0.41989338195E+02  0.14592504146E+03  0.80858132246E+02 0.  0.
         -6    2    1    2    0  502 -0.12625227709E+03 -0.58496461226E+01  0.93754016321E+01  0.21188263154E+03  0.16980134146E+03 0.  0.
        -24    2    5    5    0    0 -0.62693708495E+02  0.13595886967E+02  0.67399726720E+02  0.12352691468E+03  0.81245469178E+02 0.  0.
          5    1    3    3  501    0  0.27868255692E+02 -0.51713883890E+02  0.83442481050E+02  0.10215528917E+03  0.47000000000E+01 0. -1.
        -11    1    4    4    0    0 -0.56078272550E+01  0.23482188306E+02  0.25741183105E+02  0.35291208562E+02  0.00000000000E+00 0.  1.
         12    1    4    4    0    0  0.10399184865E+03  0.34081341707E+02  0.16248155090E+02  0.11063383290E+03  0.00000000000E+00 0. -1.
         -5    1    5    5    0  502 -0.63558568594E+02 -0.19445533090E+02 -0.58024325088E+02  0.88355716854E+02  0.47000000000E+01 0.  1.
         11    1    6    6    0    0 -0.61646413353E+02  0.24653023478E+02  0.12556171248E+02  0.67570032428E+02  0.00000000000E+00 0. -1.
        -12    1    6    6    0    0 -0.10472951417E+01 -0.11057136511E+02  0.54843555472E+02  0.55956882255E+02  0.00000000000E+00 0.  1.
</event>
<event>
12    1  0.1050869E+000  0.2215819E+03  0.7818608E-02  0.1132934E+00
         21   -1    0    0  503  502  0.00000000000E+00  0.00000000000E+00  0.41513931049E+03  0.41513931049E+03  0.00000000000E+00 0.  1.
         21   -1    0    0  501  503 -0.00000000000E+00 -0.00000000000E+00 -0.13838715214E+03  0.13838715214E+03  0.00000000000E+00 0.  1.
          6    2    1    2  501    0  0.12600655689E+02  0.13643404665E+03  0.24526069069E+03  0.32971795066E+03  0.17259227961E+03 0.  0.
         24    2    3    3    0    0  0.57041713377E+01  0.16313976319E+03  0.16803124597E+03  0.24757640256E+03  0.80077809519E+02 0.  0.
         -6    2    1    2    0  502 -0.12600655689E+02 -0.13643404665E+03  0.31491467668E+02  0.22380851198E+03  0.17414221742E+03 0.  0.
        -24    2    5    5    0    0 -0.25601507348E+02 -0.95800431509E+02 -0.44692073397E+02  0.13636633250E+03  0.82251050801E+02 0.  0.
          5    1    3    3  501    0  0.68964843511E+01 -0.26705716544E+02  0.77229444713E+02  0.82141548094E+02  0.47000000000E+01 0. -1.
        -11    1    4    4    0    0 -0.25250253835E+02  0.95569427769E+02  0.57425023829E+02  0.11431852083E+03  0.00000000000E+00 0.  1.
         12    1    4    4    0    0  0.30954425173E+02  0.67570335424E+02  0.11060622214E+03  0.13325788173E+03  0.00000000000E+00 0. -1.
         -5    1    5    5    0  502  0.13000851660E+02 -0.40633615141E+02  0.76183541065E+02  0.87442179482E+02  0.47000000000E+01 0.  1.
         11    1    6    6    0    0 -0.20903319607E+02 -0.18917444620E+02  0.20981679985E+02  0.35143269292E+02  0.00000000000E+00 0. -1.
        -12    1    6    6    0    0 -0.46981877413E+01 -0.76882986890E+02 -0.65673753382E+02  0.10122306320E+03  0.00000000000E+00 0.  1.
</event>
<event>
12    1  0.1050869E+000  0.1838238E+03  0.7818608E-02  0.1165034E+00
         21   -1    0    0  503  502  0.00000000000E+00  0.00000000000E+00  0.11695977395E+03  0.11695977395E+03  0.00000000000E+00 0.  1.
         21   -1    0    0  501  503 -0.00000000000E+00 -0.00000000000E+00 -0.30136031395E+03  0.30136031395E+03  0.00000000000E+00 0.  1.
          6    2    1    2  501    0 -0.58333427615E+02  0.11798370383E+02 -0.14276966282E+03  0.22984112123E+03  0.17000521776E+03 0.  0.
         24    2    3    3    0    0  0.17255524258E+02 -0.22989741798E+02 -0.30747883356E+02  0.90217085091E+02  0.79796044802E+02 0.  0.
         -6    2    1    2    0  502  0.58333427615E+02 -0.11798370383E+02 -0.41630877189E+02  0.18847896667E+03  0.17392297324E+03 0.  0.
        -24    2    5    5    0    0  0.14914953906E+02 -0.68698154245E+02 -0.27394621341E+01  0.10688618863E+03  0.80469002858E+02 0.  0.
          5    1    3    3  501    0 -0.75588951872E+02  0.34788112181E+02 -0.11202177946E+03  0.13962403614E+03  0.47000000000E+01 0. -1.
        -11    1    4    4    0    0  0.40279263088E+02  0.12263105211E+02 -0.99926716508E+01  0.43274198676E+02  0.00000000000E+00 0.  1.
         12    1    4    4    0    0 -0.23023738831E+02 -0.35252847010E+02 -0.20755211705E+02  0.46942886415E+02  0.00000000000E+00 0. -1.
         -5    1    5    5    0  502  0.43418473709E+02  0.56899783861E+02 -0.38891415054E+02  0.81592778036E+02  0.47000000000E+01 0.  1.
         13    1    6    6    0    0  0.33197617525E+02 -0.54489883375E+02  0.26925377460E+02  0.69254639923E+02  0.00000000000E+00 0. -1.
        -14    1    6    6    0    0 -0.18282663619E+02 -0.14208270870E+02 -0.29664839594E+02  0.37631548709E+02  0.00000000000E+00 0.  1.
</event>
<event>
12    1  0.1050869E+000  0.2559963E+03  0.7818608E-02  0.1109959E+00
         21   -1    0    0  503  502  0.00000000000E+00  0.00000000000E+00  0.35348711248E+03  0.35348711248E+03  0.00000000000E+00 0. -1.
         21   -1    0    0  501  503 -0.00000000000E+00 -0.00000000000E+00 -0.29091095280E+03  0.29091095280E+03  0.00000000000E+00 0.  1.
          6    2    1    2  501    0 -0.54589314434E+02 -0.17839261191E+03  0.22689397429E+03  0.34020333125E+03  0.17162026044E+03 0.  0.
         24    2    3    3    0    0 -0.11366503299E+02 -0.18890544205E+03  0.15843141040E+03  0.25842348254E+03  0.76601051533E+02 0.  0.
         -6    2    1    2    0  502  0.54589314434E+02  0.17839261191E+03 -0.16431781461E+03  0.30419473402E+03  0.17530024180E+03 0.  0.
        -24    2    5    5    0    0  0.90453561907E+02  0.88441875266E+02 -0.57713604220E+02  0.16009779810E+03  0.79351324385E+02 0.  0.
          5    1    3    3  501    0 -0.43222811135E+02  0.10512830145E+02  0.68462563895E+02  0.81779848710E+02  0.47000000000E+01 0. -1.
        -13    1    4    4    0    0  0.28962982513E+02 -0.11977920466E+03  0.10775090958E+03  0.16369535955E+03  0.00000000000E+00 0.  1.
         14    1    4    4    0    0 -0.40329485812E+02 -0.69126237391E+02  0.50680500820E+02  0.94728122989E+02  0.00000000000E+00 0. -1.
         -5    1    5    5    0  502 -0.35864247474E+02  0.89950736642E+02 -0.10660421039E+03  0.14409693592E+03  0.47000000000E+01 0.  1.
         11    1    6    6    0    0  0.43686287854E+00  0.33471609701E+01 -0.33764142557E+02  0.33932457299E+02  0.00000000000E+00 0. -1.
        -12    1    6    6    0    0  0.90016699029E+02  0.85094714296E+02 -0.23949461663E+02  0.12616534080E+03  0.00000000000E+00 0.  1.
</event>
<event>
12    1  0.1050869E+000  0.2072231E+03  0.7818608E-02  0.1143933E+00
         21   -1    0    0  503  502  0.00000000000E+00  0.00000000000E+00  0.54777218201E+03  0.54777218201E+03  0.00000000000E+00 0. -1.
         21   -1    0    0  501  503 -0.00000000000E+00 -0.00000000000E+00 -0.25754162157E+03  0.25754162157E+03  0.00000000000E+00 0. -1.
          6    2    1    2  501    0 -0.10863788449E+03  0.40188569477E+02  0.48112733855E+03  0.52356392203E+03  0.17093376931E+03 0.  0.
         24    2    3    3    0    0  0.12279081993E+02  0.25824942690E+02  0.21196708544E+03  0.22810401204E+03  0.79269738736E+02 0.  0.
         -6    2    1    2    0  502  0.10863788449E+03 -0.40188569477E+02 -0.19089677811E+03  0.28174988155E+03  0.17182579783E+03 0.  0.
        -24    2    5    5    0    0  0.51417661560E+01  0.25997016794E+02 -0.87501325267E+02  0.12111150504E+03  0.79430674728E+02 0.  0.
          5    1    3    3  501    0 -0.12091696649E+03  0.14363626787E+02  0.26916025311E+03  0.29545990999E+03  0.47000000000E+01 0. -1.
        -11    1    4    4    0    0 -0.17686383243E+01  0.23522589370E+02  0.21255191565E+03  0.21385686133E+03  0.00000000000E+00 0.  1.
         12    1    4    4    0    0  0.14047720317E+02  0.23023533204E+01 -0.58483021034E+00  0.14247150708E+02  0.00000000000E+00 0. -1.
         -5    1    5    5    0  502  0.10349611834E+03 -0.66185586271E+02 -0.10339545284E+03  0.16063837652E+03  0.47000000000E+01 0.  1.
         11    1    6    6    0    0 -0.21676901906E+02  0.14805661367E+02  0.26577323567E+01  0.26384829468E+02  0.00000000000E+00 0. -1.
        -12    1    6    6    0    0  0.26818668062E+02  0.11191355427E+02 -0.90159057624E+02  0.94726675570E+02  0.00000000000E+00 0.  1.
</event>
<event>
12    1  0.1050869E+000  0.2085010E+03  0.7818608E-02  0.1143289E+00
         21   -1    0    0  501  502  0.00000000000E+00  0.00000000000E+00  0.14193026273E+04  0.14193026273E+04  0.00000000000E+00 0.  1.
         21   -1    0    0  502  503 -0.00000000000E+00 -0.00000000000E+00 -0.30971832682E+02  0.30971832682E+02  0.00000000000E+00 0.  1.
         -6    2    1    2    0  503  0.71842414441E+02 -0.93280118393E+02  0.80966128187E+03  0.83607657465E+03  0.17207595510E+03 0.  0.
        -24    2    3    3    0    0  0.44750448840E+02 -0.11173985193E+03  0.77456094120E+03  0.78781830824E+03  0.78896374951E+02 0.  0.
          6    2    1    2  501    0 -0.71842414441E+02  0.93280118393E+02  0.57866951272E+03  0.61419788531E+03  0.16887310135E+03 0.  0.
         24    2    5    5    0    0  0.11566350889E+02  0.40857868211E+02  0.42020753066E+03  0.42755007737E+03  0.66494766475E+02 0.  0.
          5    1    5    5  501    0 -0.83408765329E+02  0.52422250181E+02  0.15846198207E+03  0.18664780794E+03  0.47000000000E+01 0. -1.
        -11    1    6    6    0    0 -0.72272974526E+01 -0.16407665681E+02  0.12227243490E+03  0.12357990799E+03  0.00000000000E+00 0.  1.
         12    1    6    6    0    0  0.18793648341E+02  0.57265533892E+02  0.29793509576E+03  0.30397016938E+03  0.00000000000E+00 0. -1.
         -5    1    3    3    0  503  0.27091965600E+02  0.18459733535E+02  0.35100340670E+02  0.48258266416E+02  0.47000000000E+01 0.  1.
         13    1    4    4    0    0  0.83655131150E+01 -0.55757144971E+01  0.73773945763E+01  0.12469817664E+02  0.00000000000E+00 0. -1.
        -14    1    4    4    0    0  0.36384935725E+02 -0.10616413743E+03  0.76718354662E+03  0.77534849057E+03  0.00000000000E+00 0.  1.
</event>
<event>
12    1  0.1050869E+000  0.1795572E+03  0.7818608E-02  0.1168373E+00
         21   -1    0    0  501  502  0.00000000000E+00  0.00000000000E+00  0.96321556773E+03  0.96321556773E+03  0.00000000000E+00 0.  1.
         21   -1    0    0  502  503 -0.00000000000E+00 -0.00000000000E+00 -0.33590221869E+02  0.33590221869E+02  0.00000000000E+00 0.  1.
         -6    2    1    2    0  503 -0.43156651200E+01  0.46424098499E+02  0.42318949622E+03  0.45948087182E+03  0.17279901611E+03 0.  0.
        -24    2    3    3    0    0  0.20375446239E+02 -0.33723189145E+02  0.16298330724E+03  0.18605338695E+03  0.80621908074E+02 0.  0.
          6    2    1    2  501    0  0.43156651200E+01 -0.46424098499E+02  0.50643584964E+03  0.53732491778E+03  0.17339831481E+03 0.  0.
         24    2    5    5    0    0 -0.58148446691E+01 -0.97135952186E+02  0.38975422435E+03  0.40961034926E+03  0.80019230151E+02 0.  0.
          5    1    5    5  501    0  0.10130509789E+02  0.50711853687E+02  0.11668162529E+03  0.12771456853E+03  0.47000000000E+01 0. -1.
        -13    1    6    6    0    0  0.13723690169E+02 -0.18917302674E+01  0.87253616412E+01  0.16372240257E+02  0.00000000000E+00 0.  1.
         14    1    6    6    0    0 -0.19538534838E+02 -0.95244221919E+02  0.38102886271E+03  0.39323810900E+03  0.00000000000E+00 0. -1.
         -5    1    3    3    0  503 -0.24691111359E+02  0.80147287644E+02  0.26020618898E+03  0.27342748487E+03  0.47000000000E+01 0.  1.
         11    1    4    4    0    0  0.49887740890E+02 -0.14309609256E+02  0.11759540096E+03  0.12853882657E+03  0.00000000000E+00 0. -1.
        -12    1    4    4    0    0 -0.29512294652E+02 -0.19413579889E+02  0.45387906280E+02  0.57514560384E+02  0.00000000000E+00 0.  1.
</event>
<event>
12    1  0.1050869E+000  0.2075291E+03  0.7818608E-02  0.1143618E+00
         21   -1    0    0  501  502  0.00000000000E+00  0.00000000000E+00  0.56033515824E+02  0.56033515824E+02  0.00000000000E+00 0.  1.
         21   -1    0    0  502  503 -0.00000000000E+00 -0.00000000000E+00 -0.10112628401E+04  0.10112628401E+04  0.00000000000E+00 0.  1.
         -6    2    1    2    0  503  0.68588359493E+02  0.93336958266E+02 -0.73946119205E+03  0.76792329390E+03  0.17171831564E+03 0.  0.
        -24    2    3    3    0    0  0.74760647541E+02  0.45307843696E+02 -0.25518968085E+03  0.28121405879E+03  0.79483448113E+02 0.  0.
          6    2    1    2  501    0 -0.68588359493E+02 -0.93336958266E+02 -0.21576813226E+03  0.29937306207E+03  0.17219812006E+03 0.  0.
         24    2    5    5    0    0 -0.58719390323E+02 -0.71418636022E+02 -0.50032651488E+02  0.13183754645E+03  0.79556797755E+02 0.  0.
          5    1    5    5  501    0 -0.98689691700E+01 -0.21918322244E+02 -0.16573548078E+03  0.16753551561E+03  0.47000000000E+01 0. -1.
        -13    1    6    6    0    0  0.16110196342E+02  0.28883406388E+01 -0.90122123297E+01  0.18684242262E+02  0.00000000000E+00 0.  1.
         14    1    6    6    0    0 -0.74829586665E+02 -0.74306976661E+02 -0.41020439158E+02  0.11315330419E+03  0.00000000000E+00 0. -1.
         -5    1    3    3    0  503 -0.61722880473E+01  0.48029114570E+02 -0.48427151120E+03  0.48670923512E+03  0.47000000000E+01 0.  1.
         13    1    4    4    0    0  0.77341939250E+02  0.24889742222E+02 -0.24525178189E+03  0.25835965504E+03  0.00000000000E+00 0. -1.
        -14    1    4    4    0    0 -0.25812917090E+01  0.20418101473E+02 -0.99378989678E+01  0.22854403745E+02  0.00000000000E+00 0.  1.
</event>
<event>
12    1  0.1050869E+000  0.1770542E+03  0.7818608E-02  0.1171875E+00
         21   -1    0    0  501  502  0.00000000000E+00  0.00000000000E+00  0.13333350755E+03  0.13333350755E+03  0.00000000000E+00 0.  1.
         21   -1    0    0  502  503 -0.00000000000E+00 -0.00000000000E+00 -0.50042511821E+03  0.50042511821E+03  0.00000000000E+00 0.  1.
         -6    2    1    2    0  503 -0.17331542841E+02 -0.13719798680E+02  0.51019322305E+02  0.17970473694E+03  0.17088652954E+03 0.  0.
        -24    2    3    3    0    0  0.25638804483E+02  0.43251663168E+02  0.21558131535E+01  0.93091050145E+02  0.78315014043E+02 0.  0.
          6    2    1    2  501    0  0.17331542841E+02  0.13719798680E+02 -0.41811093296E+03  0.45405388882E+03  0.17566891142E+03 0.  0.
         24    2    5    5    0    0 -0.29538567319E+02  0.59733161684E+02 -0.31613981167E+03  0.33266922596E+03  0.79270775265E+02 0.  0.
          5    1    5    5  501    0  0.46870110160E+02 -0.46013363004E+02 -0.10197112129E+03  0.12138466286E+03  0.47000000000E+01 0. -1.
        -13    1    6    6    0    0 -0.56722304651E+02  0.38091686213E+02 -0.19384468786E+03  0.20553384007E+03  0.00000000000E+00 0.  1.
         14    1    6    6    0    0  0.27183737332E+02  0.21641475471E+02 -0.12229512381E+03  0.12713538588E+03  0.00000000000E+00 0. -1.
         -5    1    3    3    0  503 -0.42970347324E+02 -0.56971461849E+02  0.48863509152E+02  0.86613686799E+02  0.47000000000E+01 0.  1.
         11    1    4    4    0    0  0.70632837812E+00  0.42809190936E+02  0.32545197018E+02  0.53780252671E+02  0.00000000000E+00 0. -1.
        -12    1    4    4    0    0  0.24932476105E+02  0.44247223199E+00 -0.30389383864E+02  0.39310797474E+02  0.00000000000E+00 0.  1.
</event>
<event>
12    1  0.1050869E+000  0.2769591E+03  0.7818608E-02  0.1097428E+00
         21   -1    0    0  503  502  0.00000000000E+00  0.00000000000E+00  0.97636639277E+03  0.97636639277E+03  0.00000000000E+00 0. -1.
         21   -1    0    0  501  503 -0.00000000000E+00 -0.00000000000E+00 -0.80516860079E+02  0.80516860079E+02  0.00000000000E+00 0. -1.
          6    2    1    2  501    0 -0.57426371523E+01  0.21679043597E+03  0.53345398884E+03  0.60106532242E+03  0.17226518106E+03 0.  0.
         24    2    3    3    0    0 -0.18533216450E+02  0.23674341319E+03  0.51105568654E+03  0.56811848396E+03  0.72040081013E+02 0.  0.
         -6    2    1    2    0  502  0.57426371523E+01 -0.21679043597E+03  0.36239554386E+03  0.45581793043E+03  0.17148872990E+03 0.  0.
        -24    2    5    5    0    0  0.54284751697E+00 -0.42318130324E+02  0.18907434898E+03  0.20978957873E+03  0.80445255057E+02 0.  0.
          5    1    3    3  501    0  0.12790579297E+02 -0.19952977224E+02  0.22398302299E+02  0.32946838463E+02  0.47000000000E+01 0. -1.
        -11    1    4    4    0    0  0.68417078019E+01  0.14950506365E+03  0.24627198384E+03  0.28818130239E+03  0.00000000000E+00 0.  1.
         12    1    4    4    0    0 -0.25374924252E+02  0.87238349547E+02  0.26478370270E+03  0.27993718157E+03  0.00000000000E+00 0. -1.
         -5    1    5    5    0  502  0.51997896354E+01 -0.17447230564E+03  0.17332119488E+03  0.24602835170E+03  0.47000000000E+01 0.  1.
         11    1    6    6    0    0 -0.13011219164E+02 -0.64006428012E+02  0.13710295238E+03  0.15186617201E+03  0.00000000000E+00 0. -1.
        -12    1    6    6    0    0  0.13554066681E+02  0.21688297688E+02  0.51971396607E+02  0.57923406716E+02  0.00000000000E+00 0.  1.
</event>
<event>
12    1  0.1050869E+000  0.2833854E+03  0.7818608E-02  0.1093986E+00
         21   -1    0    0  501  502  0.00000000000E+00  0.00000000000E+00  0.12004239807E+03  0.12004239807E+03  0.00000000000E+00 0. -1.
         21   -1    0    0  502  503 -0.00000000000E+00 -0.00000000000E+00 -0.69755762052E+03  0.69755762052E+03  0.00000000000E+00 0. -1.
         -6    2    1    2    0  503  0.22331250918E+03  0.16069442222E+01 -0.20322698410E+03  0.34872412693E+03  0.17445988252E+03 0.  0.
        -24    2    3    3    0    0  0.65168269110E+02  0.24493769348E+02 -0.14273760800E+03  0.17780174087E+03  0.79953650859E+02 0.  0.
          6    2    1    2  501    0 -0.22331250918E+03 -0.16069442222E+01 -0.37428823834E+03  0.46887589166E+03  0.17286369599E+03 0.  0.
         24    2    5    5    0    0 -0.17090584781E+03  0.82685000153E+01 -0.15802866317E+03  0.24608837763E+03  0.79430814630E+02 0.  0.
          5    1    5    5  501    0 -0.52406661375E+02 -0.98754442376E+01 -0.21625957518E+03  0.22278751404E+03  0.47000000000E+01 0. -1.
        -13    1    6    6    0    0 -0.13015298257E+03 -0.20958767740E+02 -0.14123687455E+03  0.19320176902E+03  0.00000000000E+00 0.  1.
         14    1    6    6    0    0 -0.40752865237E+02  0.29227267756E+02 -0.16791788616E+02  0.52886608611E+02  0.00000000000E+00 0. -1.
         -5    1    3    3    0  503  0.15814424007E+03 -0.22886825125E+02 -0.60489376105E+02  0.17092238605E+03  0.47000000000E+01 0.  1.
         11    1    4    4    0    0 -0.73199675763E+01  0.28858852875E+02 -0.64590087198E+02  0.71121689229E+02  0.00000000000E+00 0. -1.
        -12    1    4    4    0    0  0.72488236686E+02 -0.43650835270E+01 -0.78147520799E+02  0.10668005165E+03  0.00000000000E+00 0.  1.
</event>
<event>
12    1  0.1050869E+000  0.1880609E+03  0.7818608E-02  0.1161046E+00
         21   -1    0    0  503  502  0.00000000000E+00  0.00000000000E+00  0.14421225511E+04  0.14421225511E+04  0.00000000000E+00 0. -1.
         21   -1    0    0  501  503 -0.00000000000E+00 -0.00000000000E+00 -0.24104433781E+02  0.24104433781E+02  0.00000000000E+00 0. -1.
          6    2    1    2  501    0 -0.11558749924E+02  0.64500777615E+02  0.74680840734E+03  0.77012317002E+03  0.17627519599E+03 0.  0.
         24    2    3    3    0    0  0.29268695108E+02  0.46325361696E+02  0.69407335826E+03  0.70083896250E+03  0.80216762910E+02 0.  0.
         -6    2    1    2    0  502  0.11558749924E+02 -0.64500777615E+02  0.67120970994E+03  0.69610381482E+03  0.17246475372E+03 0.  0.
        -24    2    5    5    0    0  0.42530584955E+02  0.19216685247E+02  0.23491472367E+03  0.25074634806E+03  0.74233900746E+02 0.  0.
          5    1    3    3  501    0 -0.40827445032E+02  0.18175415919E+02  0.52735049079E+02  0.69284207529E+02  0.47000000000E+01 0. -1.
        -11    1    4    4    0    0  0.31834324734E+02  0.31276718219E+02  0.14871284699E+03  0.15526483244E+03  0.00000000000E+00 0.  1.
         12    1    4    4    0    0 -0.25656296263E+01  0.15048643477E+02  0.54536051128E+03  0.54557413005E+03  0.00000000000E+00 0. -1.
         -5    1    5    5    0  502 -0.30971835031E+02 -0.83717462862E+02  0.43629498627E+03  0.44535746676E+03  0.47000000000E+01 0.  1.
         13    1    6    6    0    0 -0.50786622774E+01  0.89251538822E+01  0.16621054930E+03  0.16652746885E+03  0.00000000000E+00 0. -1.
        -14    1    6    6    0    0  0.47609247232E+02  0.10291531365E+02  0.68704174370E+02  0.84218879212E+02  0.00000000000E+00 0.  1.
</event>
<event>
12    1  0.1050869E+000  0.3586443E+03  0.7818608E-02  0.1059126E+00
         21   -1    0    0  503  502  0.00000000000E+00  0.00000000000E+00  0.16107755028E+04  0.16107755028E+04  0.00000000000E+00 0.  1.
         21   -1    0    0  501  503 -0.00000000000E+00 -0.00000000000E+00 -0.83832422092E+02  0.83832422092E+02  0.00000000000E+00 0.  1.
          6    2    1    2  501    0 -0.20577078088E+03  0.23784395894E+03  0.94823168074E+03  0.10137756192E+04  0.17229719280E+03 0.  0.
         24    2    3    3    0    0 -0.13698488617E+03  0.81860329794E+02  0.35034985701E+03  0.39204645226E+03  0.74090659258E+02 0.  0.
         -6    2    1    2    0  502  0.20577078088E+03 -0.23784395894E+03  0.57871139999E+03  0.68083230572E+03  0.17237859776E+03 0.  0.
        -24    2    5    5    0    0  0.84861381031E+02 -0.16129517193E+03  0.43280106293E+03  0.47640452819E+03  0.80168122898E+02 0.  0.
          5    1    3    3  501    0 -0.68785894713E+02  0.15598362914E+03  0.59788182373E+03  0.62172916694E+03  0.47000000000E+01 0. -1.
        -13    1    4    4    0    0  0.15378373008E+01  0.24790550642E+02  0.68293029573E+02  0.72669623867E+02  0.00000000000E+00 0.  1.
         14    1    4    4    0    0 -0.13852272347E+03  0.57069779151E+02  0.28205682743E+03  0.31937682839E+03  0.00000000000E+00 0. -1.
         -5    1    5    5    0  502  0.12090939985E+03 -0.76548787009E+02  0.14591033707E+03  0.20442777754E+03  0.47000000000E+01 0.  1.
         13    1    6    6    0    0  0.73613355775E+02 -0.15365366997E+03  0.31769078196E+03  0.36049384099E+03  0.00000000000E+00 0. -1.
        -14    1    6    6    0    0  0.11248025256E+02 -0.76415019593E+01  0.11511028096E+03  0.11591068720E+03  0.00000000000E+00 0.  1.
</event>
<event>
12    1  0.1050869E+000  0.2049269E+03  0.7818608E-02  0.1145857E+00
         21   -1    0    0  501  502  0.00000000000E+00  0.00000000000E+00  0.34695808689E+03  0.34695808689E+03  0.00000000000E+00 0. -1.
         21   -1    0    0  502  503 -0.00000000000E+00 -0.00000000000E+00 -0.12584458447E+03  0.12584458447E+03  0.00000000000E+00 0. -1.
         -6    2    1    2    0  503  0.10505684602E+03  0.33991059392E+02  0.61279410646E+02  0.21291432284E+03  0.17142056377E+03 0.  0.
        -24    2    3    3    0    0  0.59920022716E+02 -0.34022999603E+02  0.76193768570E+02  0.12980130874E+03  0.79340505158E+02 0.  0.
          6    2    1    2  501    0 -0.10505684602E+03 -0.33991059392E+02  0.15983409177E+03  0.25988834853E+03  0.17263453824E+03 0.  0.
         24    2    5    5    0    0 -0.10761279982E+03 -0.32638546401E+02  0.18693504757E+03  0.23223126993E+03  0.79629525466E+02 0.  0.
          5    1    5    5  501    0  0.25559537987E+01 -0.13525129910E+01 -0.27100955799E+02  0.27657078595E+02  0.47000000000E+01 0. -1.
        -11    1    6    6    0    0 -0.50198195563E+02 -0.55895339505E+02  0.11414985691E+03  0.13665408025E+03  0.00000000000E+00 0.  1.
         12    1    6    6    0    0 -0.57414604257E+02  0.23256793105E+02  0.72785190666E+02  0.95577189684E+02  0.00000000000E+00 0. -1.
         -5    1    3    3    0  503  0.45136823305E+02  0.68014058994E+02 -0.14914357924E+02  0.83113014091E+02  0.47000000000E+01 0.  1.
         11    1    4    4    0    0 -0.88616386210E+01  0.73015836539E+01  0.40289353687E+02  0.41893600745E+02  0.00000000000E+00 0. -1.
        -12    1    4    4    0    0  0.68781661337E+02 -0.41324583256E+02  0.35904414884E+02  0.87907708000E+02  0.00000000000E+00 0.  1.
</event>
<event>
12    1  0.1050869E+000  0.2939280E+03  0.7818608E-02  0.1088419E+00
         21   -1    0    0  503  502  0.00000000000E+00  0.00000000000E+00  0.20992106375E+03  0.20992106375E+03  0.00000000000E+00 0. -1.
         21   -1    0    0  501  503 -0.00000000000E+00 -0.00000000000E+00 -0.55414361074E+03  0.55414361074E+03  0.00000000000E+00 0.  1.
          6    2    1    2  501    0  0.70262313023E+02 -0.22789864449E+03  0.22268780479E+02  0.29477036388E+03  0.17181118719E+03 0.  0.
         24    2    3    3    0    0  0.38605025818E+02 -0.65782704453E+02  0.59229057582E+02  0.12544253412E+03  0.80062699684E+02 0.  0.
         -6    2    1    2    0  502 -0.70262313023E+02  0.22789864449E+03 -0.36649132747E+03  0.46929431061E+03  0.17043084248E+03 0.  0.
        -24    2    5    5    0    0 -0.54467652334E+02  0.17368702636E+03 -0.36120253259E+03  0.41238708613E+03  0.80386136771E+02 0.  0.
          5    1    3    3  501    0  0.31657287205E+02 -0.16211594004E+03 -0.36960277103E+02  0.16932782976E+03  0.47000000000E+01 0. -1.
        -13    1    4    4    0    0  0.34393254790E+02  0.60605016625E+01  0.48866528146E+01  0.35263366702E+02  0.00000000000E+00 0.  1.
         14    1    4    4    0    0  0.42117710286E+01 -0.71843206115E+02  0.54342404768E+02  0.90179167417E+02  0.00000000000E+00 0. -1.
         -5    1    5    5    0  502 -0.15794660690E+02  0.54211618130E+02 -0.52887948870E+01  0.56907224479E+02  0.47000000000E+01 0.  1.
         13    1    6    6    0    0 -0.71591676624E+02  0.13718038919E+03 -0.31574063111E+03  0.35161907439E+03  0.00000000000E+00 0. -1.
        -14    1    6    6    0    0  0.17124024290E+02  0.36506637172E+02 -0.45461901478E+02  0.60768011746E+02  0.00000000000E+00 0.  1.
</event>
<event>
12    1  0.1050869E+000  0.2024022E+03  0.7818608E-02  0.1147860E+00
         21   -1    0    0  503  502  0.00000000000E+00  0.00000000000E+00  0.76229437012E+03  0.76229437012E+03  0.00000000000E+00 0. -1.
         21   -1    0    0  501  503 -0.00000000000E+00 -0.00000000000E+00 -0.67712063231E+02  0.67712063231E+02  0.00000000000E+00 0. -1.
          6    2    1    2  501    0  0.73019818625E+02  0.76088817113E+02  0.15722287712E+03  0.25579237094E+03  0.17201541193E+03 0.  0.
         24    2    3    3    0    0  0.53712719670E+02  0.10424311779E+03  0.62589341323E+02  0.15507978576E+03  0.79878848536E+02 0.  0.
         -6    2    1    2    0  502 -0.73019818625E+02 -0.76088817113E+02  0.53735942977E+03  0.57421406240E+03  0.17275772255E+03 0.  0.
        -24    2    5    5    0    0 -0.10546642412E+02 -0.10445395691E+03  0.31533109879E+03  0.34177880548E+03  0.79731983772E+02 0.  0.
          5    1    3    3  501    0  0.19307098955E+02 -0.28154300679E+02  0.94633535796E+02  0.10071258518E+03  0.47000000000E+01 0. -1.
        -13    1    4    4    0    0  0.73924198776E+02  0.69075708270E+02  0.41400486738E+02  0.10931715757E+03  0.00000000000E+00 0.  1.
         14    1    4    4    0    0 -0.20211479106E+02  0.35167409521E+02  0.21188854585E+02  0.45762628189E+02  0.00000000000E+00 0. -1.
         -5    1    5    5    0  502 -0.62473176213E+02  0.28365139794E+02  0.22202833098E+03  0.23243525692E+03  0.47000000000E+01 0.  1.
         13    1    6    6    0    0 -0.38354740380E+02 -0.63079707201E+02  0.12638451001E+03  0.14636659435E+03  0.00000000000E+00 0. -1.
        -14    1    6    6    0    0  0.27808097968E+02 -0.41374249705E+02  0.18894658877E+03  0.19541221113E+03  0.00000000000E+00 0.  1.
</event>
<event>
12    1  0.1050869E+000  0.1930249E+03  0.7818608E-02  0.1156183E+00
         21   -1    0    0  503  502  0.00000000000E+00  0.00000000000E+00  0.34069940820E+03  0.34069940820E+03  0.00000000000E+00 0. -1.
         21   -1    0    0  501  503 -0.00000000000E+00 -0.00000000000E+00 -0.10847845466E+03  0.10847845466E+03  0.00000000000E+00 0. -1.
          6    2    1    2  501    0  0.69068244772E+01  0.83756594652E+02  0.12498510577E+03  0.22836545370E+03  0.17165847608E+03 0.  0.
         24    2    3    3    0    0 -0.31208005997E+02 -0.86240003939E+01  0.91089555545E+02  0.12273443095E+03  0.75618254343E+02 0.  0.
         -6    2    1    2    0  502 -0.69068244772E+01 -0.83756594652E+02  0.10723584777E+03  0.22081240915E+03  0.17376916187E+03 0.  0.
        -24    2    5    5    0    0 -0.40738079729E+02 -0.92840317978E+02  0.28270375459E+02  0.13429822720E+03  0.83413931202E+02 0.  0.
          5    1    3    3  501    0  0.38114830474E+02  0.92380595046E+02  0.33895550227E+02  0.10563102276E+03  0.47000000000E+01 0. -1.
        -13    1    4    4    0    0  0.24876000995E+02 -0.81343576435E+01  0.28961483570E+02  0.39035249844E+02  0.00000000000E+00 0.  1.
         14    1    4    4    0    0 -0.56084006992E+02 -0.48964275038E+00  0.62128071975E+02  0.83699181105E+02  0.00000000000E+00 0. -1.
         -5    1    5    5    0  502  0.33831255251E+02  0.90837233260E+01  0.78965472310E+02  0.86514181950E+02  0.47000000000E+01 0.  1.
         11    1    6    6    0    0 -0.53318252906E+02 -0.78542810919E+02 -0.59700101794E+01  0.95118085881E+02  0.00000000000E+00 0. -1.
        -12    1    6    6    0    0  0.12580173177E+02 -0.14297507059E+02  0.34240385638E+02  0.39180141321E+02  0.00000000000E+00 0.  1.
</event>
<event>
12    1  0.1050869E+000  0.1840086E+03  0.7818608E-02  0.1163990E+00
         21   -1    0    0  503  502  0.00000000000E+00  0.00000000000E+00  0.76773639210E+02  0.76773639210E+02  0.00000000000E+00 0.  1.
         21   -1    0    0  501  503 -0.00000000000E+00 -0.00000000000E+00 -0.45069014046E+03  0.45069014046E+03  0.00000000000E+00 0.  1.
          6    2    1    2  501    0 -0.45648029605E+02 -0.46916521655E+02 -0.14814569847E+03  0.23623359118E+03  0.17197168086E+03 0.  0.
         24    2    3    3    0    0  0.11799887591E+02  0.18966400518E+02 -0.28530421566E+02  0.88008333236E+02  0.80202992890E+02 0.  0.
         -6    2    1    2    0  502  0.45648029605E+02  0.46916521655E+02 -0.22577080278E+03  0.29123018849E+03  0.17192342682E+03 0.  0.
        -24    2    5    5    0    0  0.72989381907E+02 -0.12549468296E+02 -0.91136590982E+02  0.14145631062E+03  0.78861084011E+02 0.  0.
          5    1    3    3  501    0 -0.57447917196E+02 -0.65882922173E+02 -0.11961527690E+03  0.14822525794E+03  0.47000000000E+01 0. -1.
        -11    1    4    4    0    0  0.43811880150E+02  0.15297374710E+02 -0.30816293672E+02  0.55705784897E+02  0.00000000000E+00 0.  1.
         12    1    4    4    0    0 -0.32011992558E+02  0.36690258074E+01  0.22858721058E+01  0.32302548339E+02  0.00000000000E+00 0. -1.
         -5    1    5    5    0  502 -0.27341352302E+02  0.59465989951E+02 -0.13463421180E+03  0.14977387788E+03  0.47000000000E+01 0.  1.
         13    1    6    6    0    0  0.35644056960E+02  0.29244090612E+02 -0.18426139138E+02  0.49651165503E+02  0.00000000000E+00 0. -1.
        -14    1    6    6    0    0  0.37345324947E+02 -0.41793558908E+02 -0.72710451844E+02  0.91805145112E+02  0.00000000000E+00 0.  1.
</event>
<event>
12    1  0.1050869E+000  0.2496749E+03  0.7818608E-02  0.1113772E+00
         21   -1    0    0  501  502  0.00000000000E+00  0.00000000000E+00  0.18488292615E+03  0.18488292615E+03  0.00000000000E+00 0. -1.
         21   -1    0    0  502  503 -0.00000000000E+00 -0.00000000000E+00 -0.48825874219E+03  0.48825874219E+03  0.00000000000E+00 0. -1.
         -6    2    1    2    0  503  0.18152025017E+02  0.17971700142E+03  0.36560747002E+02  0.25233756701E+03  0.17236549218E+03 0.  0.
        -24    2    3    3    0    0  0.38098267365E+02  0.48296092280E+02 -0.25129855818E+02  0.10571857637E+03  0.82224796927E+02 0.  0.
          6    2    1    2  501    0 -0.18152025017E+02 -0.17971700142E+03 -0.33993656305E+03  0.42080410133E+03  0.16997508107E+03 0.  0.
         24    2    5    5    0    0 -0.49308012613E+01 -0.13823549381E+03 -0.34111822280E+03  0.37699767999E+03  0.81438591831E+02 0.  0.
          5    1    5    5  501    0 -0.13221223756E+02 -0.41481507604E+02  0.11816597492E+01  0.43806421338E+02  0.47000000000E+01 0. -1.
        -11    1    6    6    0    0 -0.40278439876E+02 -0.70723564125E+02 -0.21175009324E+03  0.22685298594E+03  0.00000000000E+00 0.  1.
         12    1    6    6    0    0  0.35347638615E+02 -0.67511929688E+02 -0.12936812956E+03  0.15014469405E+03  0.00000000000E+00 0. -1.
         -5    1    3    3    0  503 -0.19946242349E+02  0.13142090914E+03  0.61690602820E+02  0.14661899065E+03  0.47000000000E+01 0.  1.
         11    1    4    4    0    0  0.28518018167E+02  0.51920015107E+02 -0.50828133537E+02  0.78054240678E+02  0.00000000000E+00 0. -1.
        -12    1    4    4    0    0  0.95802491983E+01 -0.36239228275E+01  0.25698277719E+02  0.27664335689E+02  0.00000000000E+00 0.  1.
</event>
<event>
12    1  0.1050869E+000  0.1821195E+03  0.7818608E-02  0.1166414E+00
         21   -1    0    0  503  502  0.00000000000E+00  0.00000000000E+00  0.26421203400E+03  0.26421203400E+03  0.00000000000E+00 0. -1.
         21   -1    0    0  501  503 -0.00000000000E+00 -0.00000000000E+00 -0.18949362842E+03  0.18949362842E+03  0.00000000000E+00 0. -1.
          6    2    1    2  501    0 -0.54047407125E+02  0.49814530801E+01  0.17086304036E+03  0.24776562776E+03  0.17101956218E+03 0.  0.
         24    2    3    3    0    0  0.10094315801E+02 -0.34319782023E+02  0.14242466585E+03  0.16720770546E+03  0.79961795081E+02 0.  0.
         -6    2    1    2    0  502  0.54047407125E+02 -0.49814530801E+01 -0.96144634777E+02  0.20594003466E+03  0.17384352155E+03 0.  0.
        -24    2    5    5    0    0  0.21597526434E+02 -0.34621894918E+02 -0.12433479370E+03  0.15351555937E+03  0.80266788195E+02 0.  0.
          5    1    3    3  501    0 -0.64141722926E+02  0.39301235103E+02  0.28438374505E+02  0.80557922298E+02  0.47000000000E+01 0. -1.
        -13    1    4    4    0    0 -0.13869330109E+02 -0.48898865441E+02  0.52770173976E+02  0.73267650574E+02  0.00000000000E+00 0.  1.
         14    1    4    4    0    0  0.23963645909E+02  0.14579083418E+02  0.89654491877E+02  0.93940054888E+02  0.00000000000E+00 0. -1.
         -5    1    5    5    0  502  0.32449880692E+02  0.29640441837E+02  0.28190158925E+02  0.52424475290E+02  0.47000000000E+01 0.  1.
         13    1    6    6    0    0 -0.34007633295E+01  0.19786343280E+02 -0.60980179564E+01  0.20982144661E+02  0.00000000000E+00 0. -1.
        -14    1    6    6    0    0  0.24998289763E+02 -0.54408238197E+02 -0.11823677575E+03  0.13253341471E+03  0.00000000000E+00 0.  1.
</event>
<event>
12    1  0.1050869E+000  0.2470044E+03  0.7818608E-02  0.1115373E+00
         21   -1    0    0  503  502  0.00000000000E+00  0.00000000000E+00  0.31900757558E+03  0.31900757558E+03  0.00000000000E+00 0.  1.
         21   -1    0    0  501  503 -0.00000000000E+00 -0.00000000000E+00 -0.44598738907E+03  0.44598738907E+03  0.00000000000E+00 0.  1.
          6    2    1    2  501    0 -0.12824713750E+03  0.12007398601E+03  0.22607794608E+03  0.33411105158E+03  0.17220298108E+03 0.  0.
         24    2    3    3    0    0 -0.25901203550E+02  0.37875499079E+02  0.16751863210E+03  0.19029671049E+03  0.77749084544E+02 0.  0.
         -6    2    1    2    0  502  0.12824713750E+03 -0.12007398601E+03 -0.35305775957E+03  0.43088391307E+03  0.17362624962E+03 0.  0.
        -24    2    5    5    0    0  0.90639228358E+02 -0.77272259474E+02 -0.34438909513E+03  0.37306022962E+03  0.79897523597E+02 0.  0.
          5    1    3    3  501    0 -0.10234593395E+03  0.82198486933E+02  0.58559313977E+02  0.14381434109E+03  0.47000000000E+01 0. -1.
        -13    1    4    4    0    0 -0.40600270858E+01  0.12366046835E+02 -0.54410228819E+01  0.14107007630E+02  0.00000000000E+00 0.  1.
         14    1    4    4    0    0 -0.21841176464E+02  0.25509452244E+02  0.17295965498E+03  0.17618970286E+03  0.00000000000E+00 0. -1.
         -5    1    5    5    0  502  0.37607909143E+02 -0.42801726539E+02 -0.86686644389E+01  0.57823683452E+02  0.47000000000E+01 0.  1.
         13    1    6    6    0    0  0.23607691501E+02  0.10676515520E+02 -0.12169000964E+03  0.12441772192E+03  0.00000000000E+00 0. -1.
        -14    1    6    6    0    0  0.67031536857E+02 -0.87948774994E+02 -0.22269908549E+03  0.24864250770E+03  0.00000000000E+00 0.  1.
</event>
<event>
12    1  0.1050869E+000  0.3652675E+03  0.7818608E-02  0.1056538E+00
         21   -1    0    0  501  502  0.00000000000E+00  0.00000000000E+00  0.10715004282E+04  0.10715004282E+04  0.00000000000E+00 0. -1.
         21   -1    0    0  502  503 -0.00000000000E+00 -0.00000000000E+00 -0.14184166564E+03  0.14184166564E+03  0.00000000000E+00 0. -1.
         -6    2    1    2    0  503 -0.23101029595E+03 -0.22444983075E+03  0.25248551944E+03  0.44403747286E+03  0.17226971997E+03 0.  0.
        -24    2    3    3    0    0 -0.16527090307E+03 -0.10656879275E+03  0.83814318850E+02  0.22795954524E+03  0.79179133822E+02 0.  0.
          6    2    1    2  501    0  0.23101029595E+03  0.22444983075E+03  0.67717324311E+03  0.76930462098E+03  0.17182117247E+03 0.  0.
         24    2    5    5    0    0  0.25281110226E+03  0.19530132734E+03  0.58479967653E+03  0.66990705456E+03  0.68765821391E+02 0.  0.
          5    1    5    5  501    0 -0.21800806309E+02  0.29148503407E+02  0.92373566583E+02  0.99397566418E+02  0.47000000000E+01 0. -1.
        -11    1    6    6    0    0  0.20988232191E+03  0.15490520483E+03  0.52333788352E+03  0.58474674164E+03  0.00000000000E+00 0.  1.
         12    1    6    6    0    0  0.42928780350E+02  0.40396122511E+02  0.61461793013E+02  0.85160312920E+02  0.00000000000E+00 0. -1.
         -5    1    3    3    0  503 -0.65739392885E+02 -0.11788103800E+03  0.16867120059E+03  0.21607792762E+03  0.47000000000E+01 0.  1.
         13    1    4    4    0    0 -0.66022049607E+02 -0.18302226360E+02 -0.41729131465E+01  0.68638879130E+02  0.00000000000E+00 0. -1.
        -14    1    4    4    0    0 -0.99248853461E+02 -0.88266566386E+02  0.87987231997E+02  0.15932066611E+03  0.00000000000E+00 0.  1.
</event>
<event>
12    1  0.1050869E+000  0.2350613E+03  0.7818608E-02  0.1123390E+00
         21   -1    0    0  503  502  0.00000000000E+00  0.00000000000E+00  0.48494839343E+03  0.48494839343E+03  0.00000000000E+00 0.  1.
         21   -1    0    0  501  503 -0.00000000000E+00 -0.00000000000E+00 -0.11324060116E+03  0.11324060116E+03  0.00000000000E+00 0.  1.
          6    2    1    2  501    0 -0.10232696326E+03 -0.12211629771E+03  0.18059063464E+03  0.29642334525E+03  0.17283120295E+03 0.  0.
         24    2    3    3    0    0 -0.12437408114E+03 -0.13214528117E+03  0.18559523736E+03  0.27124812004E+03  0.78731588956E+02 0.  0.
         -6    2    1    2    0  502  0.10232696326E+03  0.12211629771E+03  0.19111715763E+03  0.30176564933E+03  0.17074408219E+03 0.  0.
        -24    2    5    5    0    0  0.13143540265E+03  0.59097148895E+02  0.13585883672E+03  0.21291585254E+03  0.78152406676E+02 0.  0.
          5    1    3    3  501    0  0.22047117881E+02  0.10028983464E+02 -0.50046027149E+01  0.25175225213E+02  0.47000000000E+01 0. -1.
        -13    1    4    4    0    0 -0.28904468449E+02 -0.24737858067E+02  0.19966876990E+01  0.38097462905E+02  0.00000000000E+00 0.  1.
         14    1    4    4    0    0 -0.95469612696E+02 -0.10740742311E+03  0.18359854966E+03  0.23315065714E+03  0.00000000000E+00 0. -1.
         -5    1    5    5    0  502 -0.29108439390E+02  0.63019148815E+02  0.55258320912E+02  0.88849796799E+02  0.47000000000E+01 0.  1.
         13    1    6    6    0    0  0.65161700776E+02  0.26736482087E+02  0.16070492509E+02  0.72243667209E+02  0.00000000000E+00 0. -1.
        -14    1    6    6    0    0  0.66273701879E+02  0.32360666808E+02  0.11978834421E+03  0.14067218533E+03  0.00000000000E+00 0.  1.
</event>
<event>
12    1  0.1068899E+000  0.2905145E+03  0.7818608E-02  0.1090553E+00
         21   -1    0    0  503  502  0.00000000000E+00  0.00000000000E+00  0.28508985822E+03  0.28508985822E+03  0.00000000000E+00 0.  1.
         21   -1    0    0  501  503 -0.00000000000E+00 -0.00000000000E+00 -0.37888015409E+03  0.37888015409E+03  0.00000000000E+00 0. -1.
          6    2    1    2  501    0  0.22755333592E+03  0.32913959668E+02  0.11195505459E+03  0.30797871938E+03  0.17161907795E+03 0.  0.
         24    2    3    3    0    0  0.15574255581E+03  0.84375724234E+02  0.55044225798E+02  0.20278350188E+03  0.81952884702E+02 0.  0.
         -6    2    1    2    0  502 -0.22755333592E+03 -0.32913959668E+02 -0.20574535046E+03  0.35599129292E+03  0.17758040988E+03 0.  0.
        -24    2    5    5    0    0 -0.23199605447E+03 -0.67659586258E+02 -0.17101726883E+03  0.30644206519E+03  0.79119177059E+02 0.  0.
          5    1    3    3  501    0  0.71810780108E+02 -0.51461764566E+02  0.56910828788E+02  0.10519521750E+03  0.47000000000E+01 0. -1.
        -11    1    4    4    0    0  0.62135878239E+01  0.51135265751E+01 -0.17031570620E+02  0.18836964338E+02  0.00000000000E+00 0.  1.
         12    1    4    4    0    0  0.14952896799E+03  0.79262197659E+02  0.72075796418E+02  0.18394653754E+03  0.00000000000E+00 0. -1.
         -5    1    5    5    0  502  0.44427185520E+01  0.34745626590E+02 -0.34728081630E+02  0.49549227733E+02  0.47000000000E+01 0.  1.
         11    1    6    6    0    0 -0.88714308729E+02  0.17616123324E+01 -0.95061170782E+02  0.13003829452E+03  0.00000000000E+00 0. -1.
        -12    1    6    6    0    0 -0.14328174574E+03 -0.69421198590E+02 -0.75956098045E+02  0.17640377067E+03  0.00000000000E+00 0.  1.
</event>
<event>
12    1  0.1050869E+000  0.2332390E+03  0.7818608E-02  0.1124816E+00
         21   -1    0    0  501  502  0.00000000000E+00  0.00000000000E+00  0.10229001801E+04  0.10229001801E+04  0.00000000000E+00 0. -1.
         21   -1    0    0  502  503 -0.00000000000E+00 -0.00000000000E+00 -0.53124173618E+02  0.53124173618E+02  0.00000000000E+00 0. -1.
         -6    2    1    2    0  503 -0.12199110626E+03  0.10151605209E+03  0.53508055403E+03  0.58270846254E+03  0.16748317577E+03 0.  0.
        -24    2    3    3    0    0 -0.65610613523E+02  0.22617173710E+01  0.35035554903E+03  0.36550901411E+03  0.80857656953E+02 0.  0.
          6    2    1    2  501    0  0.12199110626E+03 -0.10151605209E+03  0.43469545249E+03  0.49331589123E+03  0.17091838193E+03 0.  0.
         24    2    5    5    0    0  0.10528932322E+03 -0.43785042471E+02  0.15674286660E+03  0.20890149456E+03  0.77900813025E+02 0.  0.
          5    1    5    5  501    0  0.16701783041E+02 -0.57731009621E+02  0.27795258589E+03  0.28441439667E+03  0.47000000000E+01 0. -1.
        -11    1    6    6    0    0  0.10118460756E+03 -0.62395079115E+02  0.13849275654E+03  0.18251497012E+03  0.00000000000E+00 0.  1.
         12    1    6    6    0    0  0.41047156598E+01  0.18610036644E+02  0.18250110064E+02  0.26386524437E+02  0.00000000000E+00 0. -1.
         -5    1    3    3    0  503 -0.56380492737E+02  0.99254334721E+02  0.18472500500E+03  0.21719944842E+03  0.47000000000E+01 0.  1.
         13    1    4    4    0    0 -0.29403327452E+02  0.29795742101E+02  0.70583115951E+02  0.82062891552E+02  0.00000000000E+00 0. -1.
        -14    1    4    4    0    0 -0.36207286071E+02 -0.27534024730E+02  0.27977243308E+03  0.28344612256E+03  0.00000000000E+00 0.  1.
</event>
<event>
12    1  0.1050869E+000  0.1770931E+03  0.7818608E-02  0.1170780E+00
         21   -1    0    0  503  502  0.00000000000E+00  0.00000000000E+00  0.23846704764E+02  0.23846704764E+02  0.00000000000E+00 0.  1.
         21   -1    0    0  501  503 -0.00000000000E+00 -0.00000000000E+00 -0.15187256733E+04  0.15187256733E+04  0.00000000000E+00 0.  1.
          6    2    1    2  501    0  0.29019294062E+02  0.28614219148E+02 -0.46327528822E+03  0.49596972662E+03  0.17234002459E+03 0.  0.
         24    2    3    3    0    0  0.78498090395E+02 -0.12441634323E+02 -0.32111059756E+03  0.33987160472E+03  0.77999662585E+02 0.  0.
         -6    2    1    2    0  502 -0.29019294062E+02 -0.28614219148E+02 -0.10316036803E+04  0.10466026515E+04  0.17178493478E+03 0.  0.
        -24    2    5    5    0    0  0.15376012558E+02 -0.49240564798E+02 -0.91674926209E+03  0.92166259874E+03  0.79822812523E+02 0.  0.
          5    1    3    3  501    0 -0.49478796333E+02  0.41055853471E+02 -0.14216469066E+03  0.15609812190E+03  0.47000000000E+01 0. -1.
        -13    1    4    4    0    0  0.10946026727E+02 -0.94555473978E+01 -0.31538305533E+01  0.14804375193E+02  0.00000000000E+00 0.  1.
         14    1    4    4    0    0  0.67552063668E+02 -0.29860869256E+01 -0.31795676701E+03  0.32506722952E+03  0.00000000000E+00 0. -1.
         -5    1    5    5    0  502 -0.44395306620E+02  0.20626345651E+02 -0.11485441826E+03  0.12494005274E+03  0.47000000000E+01 0.  1.
         11    1    6    6    0    0 -0.13604861831E+02 -0.18555004845E+02 -0.66527408271E+02  0.70393725015E+02  0.00000000000E+00 0. -1.
        -12    1    6    6    0    0  0.28980874389E+02 -0.30685559953E+02 -0.85022185382E+03  0.85126887373E+03  0.00000000000E+00 0.  1.
</event>
<event>
12    1  0.1050869E+000  0.1772497E+03  0.7818608E-02  0.1170708E+00
         21   -1    0    0  503  502  0.00000000000E+00  0.00000000000E+00  0.26949985806E+03  0.26949985806E+03  0.00000000000E+00 0.  1.
         21   -1    0    0  501  503 -0.00000000000E+00 -0.00000000000E+00 -0.12647517639E+03  0.12647517639E+03  0.00000000000E+00 0.  1.
          6    2    1    2  501    0 -0.31180801758E+02 -0.21701492576E+02  0.12831983828E+03  0.21811643226E+03  0.17223704580E+03 0.  0.
         24    2    3    3    0    0 -0.45022789016E+02 -0.64361626120E+02  0.40035689380E+02  0.11898183410E+03  0.79902127469E+02 0.  0.
         -6    2    1    2    0  502  0.31180801758E+02  0.21701492576E+02  0.14704843397E+02  0.17785860219E+03  0.17313073897E+03 0.  0.
        -24    2    5    5    0    0 -0.78346628045E+01 -0.44791654592E+02  0.36292026309E+02  0.97661086258E+02  0.78440438125E+02 0.  0.
          5    1    3    3  501    0  0.13841987257E+02  0.42660133544E+02  0.88284148899E+02  0.99134598159E+02  0.47000000000E+01 0. -1.
        -11    1    4    4    0    0  0.34301803259E+00  0.12200471214E+02  0.26221220772E+02  0.28922682760E+02  0.00000000000E+00 0.  1.
         12    1    4    4    0    0 -0.45365807048E+02 -0.76562097334E+02  0.13814468608E+02  0.90059151341E+02  0.00000000000E+00 0. -1.
         -5    1    5    5    0  502  0.39015464563E+02  0.66493147168E+02 -0.21587182911E+02  0.80197515931E+02  0.47000000000E+01 0.  1.
         11    1    6    6    0    0  0.22711099771E+02  0.96180684965E+01 -0.15030668932E+01  0.24709522547E+02  0.00000000000E+00 0. -1.
        -12    1    6    6    0    0 -0.30545762575E+02 -0.54409723088E+02  0.37795093202E+02  0.72951563712E+02  0.00000000000E+00 0.  1.
</event>
<event>
12    1  0.1050869E+000  0.1842580E+03  0.7818608E-02  0.1164603E+00
         21   -1    0    0  503  502  0.00000000000E+00  0.00000000000E+00  0.25630923190E+04  0.25630923190E+04  0.00000000000E+00 0. -1.
         21   -1    0    0  501  503 -0.00000000000E+00 -0.00000000000E+00 -0.16916875859E+02  0.16916875859E+02  0.00000000000E+00 0. -1.
          6    2    1    2  501    0 -0.66064098643E+02 -0.67651584540E+01  0.64168932834E+03  0.66663040920E+03  0.16799010643E+03 0.  0.
         24    2    3    3    0    0  0.19233724059E+02  0.31982971472E+02  0.25920309534E+03  0.27280945423E+03  0.76458531773E+02 0.  0.
         -6    2    1    2    0  502  0.66064098643E+02  0.67651584540E+01  0.19044861148E+04  0.19133787857E+04  0.17187432461E+03 0.  0.
        -24    2    5    5    0    0  0.10363326546E+03 -0.75333552239E+01  0.16490694321E+04  0.16547754956E+04  0.89751568610E+02 0.  0.
          5    1    3    3  501    0 -0.85297822702E+02 -0.38748129926E+02  0.38248623301E+03  0.39382095496E+03  0.47000000000E+01 0. -1.
        -11    1    4    4    0    0  0.17073907456E+02 -0.20674454779E+02  0.46521139337E+02  0.53695137596E+02  0.00000000000E+00 0.  1.
         12    1    4    4    0    0  0.21598166029E+01  0.52657426251E+02  0.21268195600E+03  0.21911431664E+03  0.00000000000E+00 0. -1.
         -5    1    5    5    0  502 -0.37569166814E+02  0.14298513678E+02  0.25541668275E+03  0.25860329003E+03  0.47000000000E+01 0.  1.
         13    1    6    6    0    0  0.72550675010E+02  0.37729047258E+02  0.10622035383E+04  0.10653466282E+04  0.00000000000E+00 0. -1.
        -14    1    6    6    0    0  0.31082590448E+02 -0.45262402482E+02  0.58686589372E+03  0.58942886740E+03  0.00000000000E+00 0.  1.
</event>
<event>
12    1  0.1050869E+000  0.2596680E+03  0.7818608E-02  0.1109685E+00
         21   -1    0    0  501  502  0.00000000000E+00  0.00000000000E+00  0.64667638279E+03  0.64667638279E+03  0.00000000000E+00 0.  1.
         21   -1    0    0  502  503 -0.00000000000E+00 -0.00000000000E+00 -0.21927370072E+03  0.21927370072E+03  0.00000000000E+00 0. -1.
         -6    2    1    2    0  503  0.17316329864E+03 -0.23279803047E+02  0.53236928511E+03  0.58586890785E+03  0.17116613050E+03 0.  0.
        -24    2    3    3    0    0  0.99589608306E+02 -0.68711979271E+02  0.41399323079E+03  0.43919869690E+03  0.82859362990E+02 0.  0.
          6    2    1    2  501    0 -0.17316329864E+03  0.23279803047E+02 -0.10496660304E+03  0.28008117566E+03  0.19209372707E+03 0.  0.
         24    2    5    5    0    0 -0.40959857990E+02  0.39245106264E+02 -0.10895526049E+03  0.14677461162E+03  0.80334609588E+02 0.  0.
          5    1    5    5  501    0 -0.13220344065E+03 -0.15965303216E+02  0.39886574453E+01  0.13330656403E+03  0.47000000000E+01 0. -1.
        -11    1    6    6    0    0 -0.12935336622E+02  0.29159345263E+02  0.19308979748E+01  0.31958077488E+02  0.00000000000E+00 0.  1.
         12    1    6    6    0    0 -0.28024521368E+02  0.10085761000E+02 -0.11088615846E+03  0.11481653414E+03  0.00000000000E+00 0. -1.
         -5    1    3    3    0  503  0.73573690331E+02  0.45432176224E+02  0.11837605432E+03  0.14667021095E+03  0.47000000000E+01 0.  1.
         11    1    4    4    0    0  0.53844962281E+01  0.11876150231E+02  0.94985704955E+01  0.16132531897E+02  0.00000000000E+00 0. -1.
        -12    1    4    4    0    0  0.94205112078E+02 -0.80588129502E+02  0.40449466030E+03  0.42306616500E+03  0.00000000000E+00 0.  1.
</event>
<event>
12    1  0.1050869E+000  0.4821035E+03  0.7818608E-02  0.1018650E+00
         21   -1    0    0  503  502  0.00000000000E+00  0.00000000000E+00  0.39254902785E+03  0.39254902785E+03  0.00000000000E+00 0. -1.
         21   -1    0    0  501  503 -0.00000000000E+00 -0.00000000000E+00 -0.96369543296E+03  0.96369543296E+03  0.00000000000E+00 0. -1.
          6    2    1    2  501    0 -0.31644128220E+03 -0.31985106857E+03  0.13669279818E+03  0.49982157915E+03  0.16940159020E+03 0.  0.
         24    2    3    3    0    0 -0.30945098922E+03 -0.24701775885E+03  0.13219535382E+03  0.42636497831E+03  0.86797437983E+02 0.  0.
         -6    2    1    2    0  502  0.31644128220E+03  0.31985106857E+03 -0.70783920329E+03  0.85642288166E+03  0.17315895403E+03 0.  0.
        -24    2    5    5    0    0  0.21186402051E+03  0.21251538037E+03 -0.58736046074E+03  0.66408315349E+03  0.77233243038E+02 0.  0.
          5    1    3    3  501    0 -0.69902929731E+01 -0.72833309722E+02  0.44974443669E+01  0.73456600839E+02  0.47000000000E+01 0. -1.
        -13    1    4    4    0    0 -0.20431628600E+03 -0.20693374794E+03  0.75872116601E+02  0.30053834836E+03  0.00000000000E+00 0.  1.
         14    1    4    4    0    0 -0.10513470323E+03 -0.40084010912E+02  0.56323237216E+02  0.12582662995E+03  0.00000000000E+00 0. -1.
         -5    1    5    5    0  502  0.10457726169E+03  0.10733568820E+03 -0.12047874256E+03  0.19233972817E+03  0.47000000000E+01 0.  1.
         13    1    6    6    0    0  0.54350278791E+02  0.10700641477E+03 -0.21460474392E+03  0.24588517995E+03  0.00000000000E+00 0. -1.
        -14    1    6    6    0    0  0.15751374172E+03  0.10550896561E+03 -0.37275571682E+03  0.41819797354E+03  0.00000000000E+00 0.  1.
</event>
<event>
12    1  0.1050869E+000  0.1874688E+03  0.7818608E-02  0.1160832E+00
         21   -1    0    0  503  502  0.00000000000E+00  0.00000000000E+00  0.17113698667E+03  0.17113698667E+03  0.00000000000E+00 0. -1.
         21   -1    0    0  501  503 -0.00000000000E+00 -0.00000000000E+00 -0.21252837459E+03  0.21252837459E+03  0.00000000000E+00 0. -1.
          6    2    1    2  501    0 -0.76104554585E+02  0.50408830385E+01  0.15302783663E+02  0.18809232892E+03  0.17125196432E+03 0.  0.
         24    2    3    3    0    0 -0.11954280907E+03  0.48711800447E+01  0.93931289972E+01  0.14400236669E+03  0.79587933421E+02 0.  0.
         -6    2    1    2    0  502  0.76104554585E+02 -0.50408830385E+01 -0.56694171586E+02  0.19557303234E+03  0.17093059456E+03 0.  0.
        -24    2    5    5    0    0  0.49079769985E+02  0.41421382956E+02 -0.85777006210E+02  0.13427880411E+03  0.80923097148E+02 0.  0.
          5    1    3    3  501    0  0.43438254481E+02  0.16970299374E+00  0.59096546656E+01  0.44089962233E+02  0.47000000000E+01 0. -1.
        -13    1    4    4    0    0 -0.11426722032E+03 -0.21931162317E+02  0.86868206319E+01  0.11667662308E+03  0.00000000000E+00 0.  1.
         14    1    4    4    0    0 -0.52755887484E+01  0.26802342361E+02  0.70630836531E+00  0.27325743617E+02  0.00000000000E+00 0. -1.
         -5    1    5    5    0  502  0.27024784599E+02 -0.46462265995E+02  0.29082834624E+02  0.61294228226E+02  0.47000000000E+01 0.  1.
         11    1    6    6    0    0 -0.17909941382E+02  0.36474881235E+01 -0.41956518604E+02  0.45764829545E+02  0.00000000000E+00 0. -1.
        -12    1    6    6    0    0  0.66989711367E+02  0.37773894833E+02 -0.43820487606E+02  0.88513974569E+02  0.00000000000E+00 0.  1.
</event>
<event>
12    1  0.1050869E+000  0.1853741E+03  0.7818608E-02  0.1163943E+00
         21   -1    0    0  503  502  0.00000000000E+00  0.00000000000E+00  0.38023917165E+02  0.38023917165E+02  0.00000000000E+00 0.  1.
         21   -1    0    0  501  503 -0.00000000000E+00 -0.00000000000E+00 -0.90962639291E+03  0.90962639291E+03  0.00000000000E+00 0.  1.
          6    2    1    2  501    0  0.18299688432E+02 -0.50607423878E+02 -0.52975647982E+03  0.56125349260E+03  0.17739099496E+03 0.  0.
         24    2    3    3    0    0  0.81191827684E+02 -0.40149922901E+02 -0.36836746044E+03  0.38766407448E+03  0.79904440047E+02 0.  0.
         -6    2    1    2    0  502 -0.18299688432E+02  0.50607423878E+02 -0.34184599592E+03  0.38639681747E+03  0.17189480992E+03 0.  0.
        -24    2    5    5    0    0  0.27568093525E+02  0.76539313041E+02 -0.14311100911E+03  0.18074176336E+03  0.74622770481E+02 0.  0.
          5    1    3    3  501    0 -0.62892139252E+02 -0.10457500976E+02 -0.16138901938E+03  0.17358941812E+03  0.47000000000E+01 0. -1.
        -11    1    4    4    0    0  0.30990205364E+02  0.21279375893E+02 -0.76960121464E+02  0.85650831652E+02  0.00000000000E+00 0.  1.
         12    1    4    4    0    0  0.50201622319E+02 -0.61429298795E+02 -0.29140733898E+03  0.30201324283E+03  0.00000000000E+00 0. -1.
         -5    1    5    5    0  502 -0.45867781957E+02 -0.25931889163E+02 -0.19873498682E+03  0.20565505411E+03  0.47000000000E+01 0.  1.
         11    1    6    6    0    0 -0.21686418737E+02  0.43617126923E+02 -0.46074352272E+02  0.67049239041E+02  0.00000000000E+00 0. -1.
        -12    1    6    6    0    0  0.49254512262E+02  0.32922186118E+02 -0.97036656833E+02  0.11369252432E+03  0.00000000000E+00 0.  1.
</event>
<event>
12    1  0.1050869E+000  0.2424812E+03  0.7818608E-02  0.1118246E+00
         21   -1    0    0  501  502  0.00000000000E+00  0.00000000000E+00  0.28403771790E+03  0.28403771790E+03  0.00000000000E+00 0.  1.
         21   -1    0    0  502  503 -0.00000000000E+00 -0.00000000000E+00 -0.37299271604E+03  0.37299271604E+03  0.00000000000E+00 0.  1.
         -6    2    1    2    0  503 -0.12564786430E+02 -0.17053939439E+03  0.17502706393E+03  0.29858423591E+03  0.17110381038E+03 0.  0.
        -24    2    3    3    0    0  0.54041236521E+02 -0.11671540959E+03  0.11934633908E+03  0.19633054769E+03  0.88086282842E+02 0.  0.
          6    2    1    2  501    0  0.12564786430E+02  0.17053939439E+03 -0.26398206206E+03  0.35844619803E+03  0.17191738973E+03 0.  0.
         24    2    5    5    0    0  0.35081792880E+02  0.11421330126E+03 -0.26070302990E+03  0.29751602161E+03  0.79210497655E+02 0.  0.
          5    1    5    5  501    0 -0.22517006449E+02  0.56326093133E+02 -0.32790321688E+01  0.60930176424E+02  0.47000000000E+01 0. -1.
        -13    1    6    6    0    0 -0.15488448513E+02 -0.86277666173E+00 -0.48043722305E+02  0.50485994828E+02  0.00000000000E+00 0.  1.
         14    1    6    6    0    0  0.50570241393E+02  0.11507607792E+03 -0.21265930759E+03  0.24703002678E+03  0.00000000000E+00 0. -1.
         -5    1    3    3    0  503 -0.66606022951E+02 -0.53823984808E+02  0.55680724846E+02  0.10225368821E+03  0.47000000000E+01 0.  1.
         11    1    4    4    0    0 -0.47592516807E+01 -0.85790872062E+02  0.46348381095E+02  0.97626311186E+02  0.00000000000E+00 0. -1.
        -12    1    4    4    0    0  0.58800488202E+02 -0.30924537525E+02  0.72997957987E+02  0.98704236505E+02  0.00000000000E+00 0.  1.
</event>
<event>
12    1  0.1050869E+000  0.2379670E+03  0.7818608E-02  0.1121180E+00
         21   -1    0    0  501  502  0.00000000000E+00  0.00000000000E+00  0.16477265951E+03  0.16477265951E+03  0.00000000000E+00 0.  1.
         21   -1    0    0  502  503 -0.00000000000E+00 -0.00000000000E+00 -0.44186562968E+03  0.44186562968E+03  0.00000000000E+00 0.  1.
         -6    2    1    2    0  503  0.33490395921E+02 -0.16064665510E+03 -0.28172221502E+03  0.36877594106E+03  0.17233494672E+03 0.  0.
        -24    2    3    3    0    0  0.57575058197E+02 -0.16216814540E+03 -0.17279695309E+03  0.25711042008E+03  0.81446831806E+02 0.  0.
          6    2    1    2  501    0 -0.33490395921E+02  0.16064665510E+03  0.46292448474E+01  0.23786234813E+03  0.17212818578E+03 0.  0.
         24    2    5    5    0    0  0.30773489297E+02  0.29626236355E+02  0.11791452910E+02  0.91678955454E+02  0.80257529163E+02 0.  0.
          5    1    5    5  501    0 -0.64263885218E+02  0.13102041874E+03 -0.71622080626E+01  0.14618339268E+03  0.47000000000E+01 0. -1.
        -13    1    6    6    0    0  0.18112193425E+02  0.90081998593E+01 -0.34186710976E+02  0.39723172365E+02  0.00000000000E+00 0.  1.
         14    1    6    6    0    0  0.12661295872E+02  0.20618036496E+02  0.45978163886E+02  0.51955783089E+02  0.00000000000E+00 0. -1.
         -5    1    3    3    0  503 -0.24084662276E+02  0.15214902953E+01 -0.10892526193E+03  0.11166552098E+03  0.47000000000E+01 0.  1.
         11    1    4    4    0    0  0.67483040049E+02 -0.16266701203E+03 -0.17343101238E+03  0.24716964529E+03  0.00000000000E+00 0. -1.
        -12    1    4    4    0    0 -0.99079818516E+01  0.49886663877E+00  0.63405929017E+00  0.99407747926E+01  0.00000000000E+00 0.  1.
</event>
<event>
12    1  0.1050869E+000  0.1838409E+03  0.7818608E-02  0.1165432E+00
         21   -1    0    0  501  502  0.00000000000E+00  0.00000000000E+00  0.11516427843E+03  0.11516427843E+03  0.00000000000E+00 0.  1.
         21   -1    0    0  502  503 -0.00000000000E+00 -0.00000000000E+00 -0.38890563261E+03  0.38890563261E+03  0.00000000000E+00 0.  1.
         -6    2    1    2    0  503 -0.25219841813E+02  0.43102131588E+02 -0.80379566926E+01  0.18401653498E+03  0.17692835338E+03 0.  0.
        -24    2    3    3    0    0 -0.74384090366E+02 -0.69752914362E+01  0.27169698785E+02  0.10536196972E+03  0.69146977816E+02 0.  0.
          6    2    1    2  501    0  0.25219841813E+02 -0.43102131588E+02 -0.26570339749E+03  0.32005337606E+03  0.17129516606E+03 0.  0.
         24    2    5    5    0    0  0.25330016641E+02  0.14812010684E+02 -0.24339779677E+03  0.25781440243E+03  0.79779528882E+02 0.  0.
          5    1    5    5  501    0 -0.11017482721E+00 -0.57914142272E+02 -0.22305600728E+02  0.62238973621E+02  0.47000000000E+01 0. -1.
        -11    1    6    6    0    0  0.47817799608E+00  0.40377042536E+02 -0.70200820801E+02  0.80985736147E+02  0.00000000000E+00 0.  1.
         12    1    6    6    0    0  0.24851838645E+02 -0.25565031852E+02 -0.17319697596E+03  0.17682866629E+03  0.00000000000E+00 0. -1.
         -5    1    3    3    0  503  0.49164248553E+02  0.50077423024E+02 -0.35207655477E+02  0.78654565263E+02  0.47000000000E+01 0.  1.
         13    1    4    4    0    0 -0.42099840805E+01 -0.28080276271E+02  0.99483986575E+01  0.30086483963E+02  0.00000000000E+00 0. -1.
        -14    1    4    4    0    0 -0.70174106286E+02  0.21104984835E+02  0.17221300127E+02  0.75275485757E+02  0.00000000000E+00 0.  1.
</event>
<event>
12    1  0.1050869E+000  0.1758419E+03  0.7818608E-02  0.1172135E+00
         21   -1    0    0  503  502  0.00000000000E+00  0.00000000000E+00  0.53507460512E+03  0.53507460512E+03  0.00000000000E+00 0. -1.
         21   -1    0    0  501  503 -0.00000000000E+00 -0.00000000000E+00 -0.98473710548E+02  0.98473710548E+02  0.00000000000E+00 0. -1.
          6    2    1    2  501    0  0.33183618887E+02 -0.11111329519E+02  0.42307810339E+03  0.45816530198E+03  0.17232454313E+03 0.  0.
         24    2    3    3    0    0  0.13679755449E+02  0.62442363680E+02  0.25620460406E+03  0.27470031553E+03  0.75718423934E+02 0.  0.
         -6    2    1    2    0  502 -0.33183618887E+02  0.11111329519E+02  0.13522791186E+02  0.17538301369E+03  0.17132344091E+03 0.  0.
        -24    2    5    5    0    0 -0.48697470383E+02  0.67673861568E+02  0.39395528135E+01  0.11576818267E+03  0.80221922699E+02 0.  0.
          5    1    3    3  501    0  0.19503863438E+02 -0.73553693199E+02  0.16687349933E+03  0.18346498645E+03  0.47000000000E+01 0. -1.
        -11    1    4    4    0    0  0.10512495544E+02  0.22836491950E+01  0.16528020910E+03  0.16562993431E+03  0.00000000000E+00 0.  1.
         12    1    4    4    0    0  0.31672599043E+01  0.60158714485E+02  0.90924394952E+02  0.10907038123E+03  0.00000000000E+00 0. -1.
         -5    1    5    5    0  502  0.15513851497E+02 -0.56562532049E+02  0.95832383727E+01  0.59614831022E+02  0.47000000000E+01 0.  1.
         11    1    6    6    0    0 -0.45917625541E+02  0.68441279313E+02  0.31370652725E+02  0.88185911016E+02  0.00000000000E+00 0. -1.
        -12    1    6    6    0    0 -0.27798448427E+01 -0.76741774545E+00 -0.27431099911E+02  0.27582271656E+02  0.00000000000E+00 0.  1.
</event>
<event>
12    1  0.1050869E+000  0.2355491E+03  0.7818608E-02  0.1123163E+00
         21   -1    0    0  503  502  0.00000000000E+00  0.00000000000E+00  0.53229907226E+02  0.53229907226E+02  0.00000000000E+00 0. -1.
         21   -1    0    0  501  503 -0.00000000000E+00 -0.00000000000E+00 -0.11205206559E+04  0.11205206559E+04  0.00000000000E+00 0. -1.
          6    2    1    2  501    0  0.12034314349E+03  0.10663199440E+03 -0.37173638006E+03  0.44008104971E+03  0.17213523649E+03 0.  0.
         24    2    3    3    0    0  0.65103391611E+02  0.79799797895E+01 -0.26572939154E+03  0.28502228088E+03  0.79520182331E+02 0.  0.
         -6    2    1    2    0  502 -0.12034314349E+03 -0.10663199440E+03 -0.69555436865E+03  0.73366951345E+03  0.16918102969E+03 0.  0.
        -24    2    5    5    0    0 -0.29827888669E+01 -0.77192541972E+02 -0.31113659848E+03  0.33063198887E+03  0.80894644991E+02 0.  0.
          5    1    3    3  501    0  0.55239751874E+02  0.98652014608E+02 -0.10600698852E+03  0.15505876882E+03  0.47000000000E+01 0. -1.
        -13    1    4    4    0    0  0.82405299031E+02  0.16105895078E+02 -0.21692567170E+03  0.23260864173E+03  0.00000000000E+00 0.  1.
         14    1    4    4    0    0 -0.17301907420E+02 -0.81259152886E+01 -0.48803719838E+02  0.52413639157E+02  0.00000000000E+00 0. -1.
         -5    1    5    5    0  502 -0.11736035462E+03 -0.29439452426E+02 -0.38441777017E+03  0.40303752458E+03  0.47000000000E+01 0.  1.
         11    1    6    6    0    0 -0.22720470806E+02 -0.35728626205E+02 -0.50139075247E+02  0.65625310596E+02  0.00000000000E+00 0. -1.
        -12    1    6    6    0    0  0.19737681939E+02 -0.41463915767E+02 -0.26099752323E+03  0.26500667828E+03  0.00000000000E+00 0.  1.
</event>
<event>
12    1  0.1050869E+000  0.3029981E+03  0.7818608E-02  0.1083778E+00
         21   -1    0    0  503  502  0.00000000000E+00  0.00000000000E+00  0.34768287441E+03  0.34768287441E+03  0.00000000000E+00 0.  1.
         21   -1    0    0  501  503 -0.00000000000E+00 -0.00000000000E+00 -0.28204596598E+03  0.28204596598E+03  0.00000000000E+00 0.  1.
          6    2    1    2  501    0  0.19021005157E+03  0.16109906944E+03 -0.47109404503E+02  0.30663847582E+03  0.17226457839E+03 0.  0.
         24    2    3    3    0    0  0.71163960464E+02  0.23738144490E+02  0.31096589736E+02  0.10870347880E+03  0.72260913616E+02 0.  0.
         -6    2    1    2    0  502 -0.19021005157E+03 -0.16109906944E+03  0.11274631293E+03  0.32309036457E+03  0.17188041978E+03 0.  0.
        -24    2    5    5    0    0 -0.19856092791E+03 -0.18124734374E+03  0.10547616855E+03  0.29962474946E+03  0.79829359563E+02 0.  0.
          5    1    3    3  501    0  0.11904609110E+03  0.13736092495E+03 -0.78205994239E+02  0.19793499702E+03  0.47000000000E+01 0. -1.
        -11    1    4    4    0    0  0.68858213108E+01  0.36636398856E+02  0.30684109008E+01  0.37403949012E+02  0.00000000000E+00 0.  1.
         12    1    4    4    0    0  0.64278139154E+02 -0.12898254366E+02  0.28028178836E+02  0.71299529785E+02  0.00000000000E+00 0. -1.
         -5    1    5    5    0  502  0.83508763460E+01  0.20148274302E+02  0.72701443822E+01  0.23465615109E+02  0.47000000000E+01 0.  1.
         13    1    6    6    0    0 -0.22562608122E+02 -0.26092362661E+02 -0.12901903433E+02  0.36828545813E+02  0.00000000000E+00 0. -1.
        -14    1    6    6    0    0 -0.17599831979E+03 -0.15515498108E+03  0.11837807198E+03  0.26279620364E+03  0.00000000000E+00 0.  1.
</event>
<event>
12    1  0.1050869E+000  0.4717076E+03  0.7818608E-02  0.1021486E+00
         21   -1    0    0  503  502  0.00000000000E+00  0.00000000000E+00  0.10312807320E+04  0.10312807320E+04  0.00000000000E+00 0. -1.
         21   -1    0    0  501  503 -0.00000000000E+00 -0.00000000000E+00 -0.69971485701E+03  0.69971485701E+03  0.00000000000E+00 0. -1.
          6    2    1    2  501    0 -0.75542226489E+01  0.43912784114E+03  0.88584043530E+03  0.10036041710E+04  0.17209801874E+03 0.  0.
         24    2    3    3    0    0  0.33851292554E+02  0.37996347568E+03  0.80991307055E+03  0.89871425942E+03  0.78803460434E+02 0.  0.
         -6    2    1    2    0  502  0.75542226489E+01 -0.43912784114E+03 -0.55427456036E+03  0.72739141798E+03  0.17025762699E+03 0.  0.
        -24    2    5    5    0    0  0.45108443437E+02 -0.37937971186E+03 -0.40798180712E+03  0.56489890091E+03  0.81840551544E+02 0.  0.
          5    1    3    3  501    0 -0.41405515203E+02  0.59164365459E+02  0.75927364746E+02  0.10488991156E+03  0.47000000000E+01 0. -1.
        -11    1    4    4    0    0  0.11121011138E+02  0.32655871688E+03  0.73148077317E+03  0.80114193123E+03  0.00000000000E+00 0.  1.
         12    1    4    4    0    0  0.22730281416E+02  0.53404758799E+02  0.78432297381E+02  0.97572328188E+02  0.00000000000E+00 0. -1.
         -5    1    5    5    0  502 -0.37554220788E+02 -0.59748129281E+02 -0.14629275324E+03  0.16249251707E+03  0.47000000000E+01 0.  1.
         11    1    6    6    0    0  0.22700344962E+02 -0.24936486444E+03 -0.20902825608E+03  0.32617626081E+03  0.00000000000E+00 0. -1.
        -12    1    6    6    0    0  0.22408098474E+02 -0.13001484742E+03 -0.19895355104E+03  0.23872264010E+03  0.00000000000E+00 0.  1.
</event>
<event>
12    1  0.1050869E+000  0.2069764E+03  0.7818608E-02  0.1146030E+00
         21   -1    0    0  501  502  0.00000000000E+00  0.00000000000E+00  0.71162751271E+02  0.71162751271E+02  0.00000000000E+00 0.  1.
         21   -1    0    0  502  503 -0.00000000000E+00 -0.00000000000E+00 -0.77121820868E+03  0.77121820868E+03  0.00000000000E+00 0.  1.
         -6    2    1    2    0  503 -0.10103253966E+03 -0.53543071225E+02 -0.14322776384E+03  0.25170102967E+03  0.17252472708E+03 0.  0.
        -24    2    3    3    0    0 -0.24460267187E+02 -0.43996851610E+02 -0.74483361980E+01  0.95455753927E+02  0.80760730700E+02 0.  0.
          6    2    1    2  501    0  0.10103253966E+03  0.53543071225E+02 -0.55682769357E+03  0.59067993028E+03  0.16053431149E+03 0.  0.
         24    2    5    5    0    0  0.60203844802E+02  0.80080130216E+02 -0.49824883359E+03  0.51435974514E+03  0.79225734855E+02 0.  0.
          5    1    5    5  501    0  0.40828694856E+02 -0.26537058991E+02 -0.58578859979E+02  0.76320185141E+02  0.47000000000E+01 0. -1.
        -13    1    6    6    0    0  0.67637071244E+02  0.85139374886E+02 -0.49074867834E+03  0.50265072551E+03  0.00000000000E+00 0.  1.
         14    1    6    6    0    0 -0.74332264417E+01 -0.50592446695E+01 -0.75001552493E+01  0.11709019631E+02  0.00000000000E+00 0. -1.
         -5    1    3    3    0  503 -0.76572272472E+02 -0.95462196156E+01 -0.13577942764E+03  0.15624527574E+03  0.47000000000E+01 0.  1.
         13    1    4    4    0    0 -0.52523693708E+02 -0.30591000174E+02 -0.16650174321E+02  0.63022027874E+02  0.00000000000E+00 0. -1.
        -14    1    4    4    0    0  0.28063426521E+02 -0.13405851435E+02  0.92018381235E+01  0.32433726053E+02  0.00000000000E+00 0.  1.
</event>
<event>
12    1  0.1050869E+000  0.2863763E+03  0.7818608E-02  0.1092281E+00
         21   -1    0    0  501  502  0.00000000000E+00  0.00000000000E+00  0.20140996800E+04  0.20140996800E+04  0.00000000000E+00 0. -1.
         21   -1    0    0  502  503 -0.00000000000E+00 -0.00000000000E+00 -0.40703988468E+02  0.40703988468E+02  0.00000000000E+00 0. -1.
         -6    2    1    2    0  503  0.11126469995E+03  0.19950034370E+03  0.96959683059E+03  0.10110041466E+04  0.17271696505E+03 0.  0.
        -24    2    3    3    0    0  0.82076291655E+02  0.37323964938E+02  0.32409130451E+03  0.34478149975E+03  0.75561318827E+02 0.  0.
          6    2    1    2  501    0 -0.11126469995E+03 -0.19950034370E+03  0.10037988610E+04  0.10437995219E+04  0.17240959365E+03 0.  0.
         24    2    5    5    0    0 -0.73452325237E+02 -0.19362894028E+03  0.63113824739E+03  0.66914998967E+03  0.80862913417E+02 0.  0.
          5    1    5    5  501    0 -0.37812374708E+02 -0.58714034160E+01  0.37266061359E+03  0.37464953221E+03  0.47000000000E+01 0. -1.
        -13    1    6    6    0    0 -0.25142715350E+02 -0.16341653924E+03  0.46824805177E+03  0.49658167446E+03  0.00000000000E+00 0.  1.
         14    1    6    6    0    0 -0.48309609887E+02 -0.30212401049E+02  0.16289019562E+03  0.17256831521E+03  0.00000000000E+00 0. -1.
         -5    1    3    3    0  503  0.29188408290E+02  0.16217637876E+03  0.64550552608E+03  0.66622264688E+03  0.47000000000E+01 0.  1.
         13    1    4    4    0    0  0.15964984943E+01 -0.18184300836E+02  0.33018305666E+02  0.37728319780E+02  0.00000000000E+00 0. -1.
        -14    1    4    4    0    0  0.80479793161E+02  0.55508265773E+02  0.29107299884E+03  0.30705317997E+03  0.00000000000E+00 0.  1.
</event>
<event>
12    1  0.1050869E+000  0.1898175E+03  0.7818608E-02  0.1159248E+00
         21   -1    0    0  501  502  0.00000000000E+00  0.00000000000E+00  0.28831479446E+03  0.28831479446E+03  0.00000000000E+00 0.  1.
         21   -1    0    0  502  503 -0.00000000000E+00 -0.00000000000E+00 -0.18591188557E+03  0.18591188557E+03  0.00000000000E+00 0.  1.
         -6    2    1    2    0  503  0.11722565740E+02 -0.74065882243E+02 -0.86781048752E+02  0.20623180231E+03  0.17139846091E+03 0.  0.
        -24    2    3    3    0    0  0.73902896145E+02 -0.55528350020E+02 -0.57146698075E+02  0.13474531177E+03  0.79658761154E+02 0.  0.
          6    2    1    2  501    0 -0.11722565740E+02  0.74065882243E+02  0.18918395764E+03  0.26799487772E+03  0.17437749624E+03 0.  0.
         24    2    5    5    0    0 -0.45651138642E+02  0.41839002138E+01  0.15998104624E+03  0.18487123785E+03  0.80510297148E+02 0.  0.
          5    1    5    5  501    0  0.33928572901E+02  0.69881982029E+02  0.29202911399E+02  0.83123639873E+02  0.47000000000E+01 0. -1.
        -11    1    6    6    0    0 -0.53131358860E+02  0.31858180803E+02  0.12605175585E+03  0.14045259033E+03  0.00000000000E+00 0.  1.
         12    1    6    6    0    0  0.74802202187E+01 -0.27674280589E+02  0.33929290392E+02  0.44418647516E+02  0.00000000000E+00 0. -1.
         -5    1    3    3    0  503 -0.62180330405E+02 -0.18537532223E+02 -0.29634350677E+02  0.71486490543E+02  0.47000000000E+01 0.  1.
         11    1    4    4    0    0  0.70289906837E+02 -0.50234042405E+02 -0.97800898991E+01  0.86946996371E+02  0.00000000000E+00 0. -1.
        -12    1    4    4    0    0  0.36129893083E+01 -0.52943076147E+01 -0.47366608176E+02  0.47798315399E+02  0.00000000000E+00 0.  1.
</event>
<event>
12    1  0.1050869E+000  0.2376956E+03  0.7818608E-02  0.1121517E+00
         21   -1    0    0  501  502  0.00000000000E+00  0.00000000000E+00  0.82707103433E+02  0.82707103433E+02  0.00000000000E+00 0.  1.
         21   -1    0    0  502  503 -0.00000000000E+00 -0.00000000000E+00 -0.89232389868E+03  0.89232389868E+03  0.00000000000E+00 0.  1.
         -6    2    1    2    0  503  0.87400676978E+02  0.13912566597E+03 -0.16635325305E+03  0.28925612424E+03  0.17029642200E+03 0.  0.
        -24    2    3    3    0    0  0.59042027012E+02  0.13887423966E+03 -0.18687593418E+03  0.25393549735E+03  0.82393001189E+02 0.  0.
          6    2    1    2  501    0 -0.87400676978E+02 -0.13912566597E+03 -0.64326354220E+03  0.68577487787E+03  0.17176835892E+03 0.  0.
         24    2    5    5    0    0 -0.23179499037E+02 -0.31497654034E+02 -0.26299035724E+03  0.28535268336E+03  0.10359939439E+03 0.  0.
          5    1    5    5  501    0 -0.64221177941E+02 -0.10762801194E+03 -0.38027318496E+03  0.40042219450E+03  0.47000000000E+01 0. -1.
        -13    1    6    6    0    0 -0.13133810971E+02 -0.60944191264E+01  0.54910050130E+01  0.15485156478E+02  0.00000000000E+00 0.  1.
         14    1    6    6    0    0 -0.10045688066E+02 -0.25403234908E+02 -0.26848136225E+03  0.26986752689E+03  0.00000000000E+00 0. -1.
         -5    1    3    3    0  503  0.28358649966E+02  0.25142631621E+00  0.20522681135E+02  0.35320626892E+02  0.47000000000E+01 0.  1.
         11    1    4    4    0    0  0.85932737422E+01 -0.70843654264E+01 -0.37358806818E+02  0.38983496943E+02  0.00000000000E+00 0. -1.
        -12    1    4    4    0    0  0.50448753270E+02  0.14595860508E+03 -0.14951712737E+03  0.21495200041E+03  0.00000000000E+00 0.  1.
</event>
<event>
12    1  0.1050869E+000  0.1747855E+03  0.7818608E-02  0.1172962E+00
         21   -1    0    0  503  502  0.00000000000E+00  0.00000000000E+00  0.50704110884E+03  0.50704110884E+03  0.00000000000E+00 0.  1.
         21   -1    0    0  501  503 -0.00000000000E+00 -0.00000000000E+00 -0.28503134648E+03  0.28503134648E+03  0.00000000000E+00 0.  1.
          6    2    1    2  501    0 -0.30647033491E+02  0.44511843021E+01  0.46272025791E+03  0.49463119907E+03  0.17202015090E+03 0.  0.
         24    2    3    3    0    0  0.17041932835E+01  0.38091936975E+02  0.12151485710E+03  0.15021645250E+03  0.79656902835E+02 0.  0.
         -6    2    1    2    0  502  0.30647033491E+02 -0.44511843021E+01 -0.24071049555E+03  0.29744125624E+03  0.17196134608E+03 0.  0.
        -24    2    5    5    0    0 -0.40144091855E+02 -0.48192490151E+01 -0.19070620878E+03  0.21064242218E+03  0.79790968681E+02 0.  0.
          5    1    3    3  501    0 -0.32351226775E+02 -0.33640752673E+02  0.34120540081E+03  0.34441474657E+03  0.47000000000E+01 0. -1.
        -13    1    4    4    0    0 -0.34913554735E+02  0.14487528028E+02  0.86238040149E+02  0.94158612677E+02  0.00000000000E+00 0.  1.
         14    1    4    4    0    0  0.36617748019E+02  0.23604408947E+02  0.35276816950E+02  0.56057839825E+02  0.00000000000E+00 0. -1.
         -5    1    5    5    0  502  0.70791125346E+02  0.36806471301E+00 -0.50004286767E+02  0.86798834061E+02  0.47000000000E+01 0.  1.
         11    1    6    6    0    0 -0.37311469698E+02 -0.98520296501E+01 -0.19778051393E+03  0.20151014850E+03  0.00000000000E+00 0. -1.
        -12    1    6    6    0    0 -0.28326221566E+01  0.50327806350E+01  0.70743051491E+01  0.91322736788E+01  0.00000000000E+00 0.  1.
</event>
<event>
12    1  0.1050869E+000  0.1909229E+03  0.7818608E-02  0.1157748E+00
         21   -1    0    0  503  502  0.00000000000E+00  0.00000000000E+00  0.38621555359E+03  0.38621555359E+03  0.00000000000E+00 0. -1.
         21   -1    0    0  501  503 -0.00000000000E+00 -0.00000000000E+00 -0.99797405242E+02  0.99797405242E+02  0.00000000000E+00 0. -1.
          6    2    1    2  501    0  0.46549458797E+02 -0.67327951987E+02  0.85094551442E+02  0.20855530843E+03  0.17191372475E+03 0.  0.
         24    2    3    3    0    0  0.55584050037E+02 -0.94783977047E+02  0.20780154382E+02  0.13788785609E+03  0.80670050935E+02 0.  0.
         -6    2    1    2    0  502 -0.46549458797E+02  0.67327951987E+02  0.20132359690E+03  0.27745765040E+03  0.17248667155E+03 0.  0.
        -24    2    5    5    0    0 -0.91182868491E+02  0.70383147981E+02  0.17951994480E+03  0.22746800418E+03  0.79032773713E+02 0.  0.
          5    1    3    3  501    0 -0.90345912405E+01  0.27456025060E+02  0.64314397060E+02  0.70667452340E+02  0.47000000000E+01 0. -1.
        -11    1    4    4    0    0 -0.90827489139E+01 -0.13947744949E+02  0.29636109518E+02  0.33990217775E+02  0.00000000000E+00 0.  1.
         12    1    4    4    0    0  0.64666798951E+02 -0.80836232098E+02 -0.88559551362E+01  0.10389763832E+03  0.00000000000E+00 0. -1.
         -5    1    5    5    0  502  0.44633409695E+02 -0.30551959940E+01  0.21803652104E+02  0.49989646214E+02  0.47000000000E+01 0.  1.
         11    1    6    6    0    0 -0.17275803454E+02  0.19064278827E+02  0.11215316346E+03  0.11506620784E+03  0.00000000000E+00 0. -1.
        -12    1    6    6    0    0 -0.73907065037E+02  0.51318869154E+02  0.67366781336E+02  0.11240179634E+03  0.00000000000E+00 0.  1.
</event>
<event>
12    1  0.1050869E+000  0.1809345E+03  0.7818608E-02  0.1168462E+00
         21   -1    0    0  503  502  0.00000000000E+00  0.00000000000E+00  0.87596255807E+02  0.87596255807E+02  0.00000000000E+00 0.  1.
         21   -1    0    0  501  503 -0.00000000000E+00 -0.00000000000E+00 -0.11795665526E+04  0.11795665526E+04  0.00000000000E+00 0.  1.
          6    2    1    2  501    0 -0.39889324611E+02  0.58986584282E+00 -0.21103317242E+02  0.18216099801E+03  0.17648165071E+03 0.  0.
         24    2    3    3    0    0  0.23914460775E+02  0.50626628298E+02 -0.32036617611E+01  0.98991963547E+02  0.81573209274E+02 0.  0.
         -6    2    1    2    0  502  0.39889324611E+02 -0.58986584282E+00 -0.10708669796E+04  0.10850018104E+04  0.16994509267E+03 0.  0.
        -24    2    5    5    0    0  0.68701314894E+02  0.35011920795E+02 -0.92828182165E+03  0.93516778473E+03  0.82981563746E+02 0.  0.
          5    1    3    3  501    0 -0.63803785386E+02 -0.50036762455E+02 -0.17899655481E+02  0.83169034459E+02  0.47000000000E+01 0. -1.
        -11    1    4    4    0    0  0.17474002799E+02  0.60728360958E+02 -0.29766774705E+02  0.69852240299E+02  0.00000000000E+00 0.  1.
         12    1    4    4    0    0  0.64404579759E+01 -0.10101732660E+02  0.26563112944E+02  0.29139723248E+02  0.00000000000E+00 0. -1.
         -5    1    5    5    0  502 -0.28811990283E+02 -0.35601786637E+02 -0.14258515790E+03  0.14983402567E+03  0.47000000000E+01 0.  1.
         11    1    6    6    0    0  0.62129007179E+02  0.11010395047E+02 -0.30849470665E+03  0.31488128932E+03  0.00000000000E+00 0. -1.
        -12    1    6    6    0    0  0.65723077154E+01  0.24001525748E+02 -0.61978711501E+03  0.62028649541E+03  0.00000000000E+00 0.  1.
</event>
<event>
12    1  0.1050869E+000  0.2083682E+03  0.7818608E-02  0.1142915E+00
         21   -1    0    0  503  502  0.00000000000E+00  0.00000000000E+00  0.75313866282E+03  0.75313866282E+03  0.00000000000E+00 0. -1.
         21   -1    0    0  501  503 -0.00000000000E+00 -0.00000000000E+00 -0.60410938773E+02  0.60410938773E+02  0.00000000000E+00 0. -1.
          6    2    1    2  501    0 -0.69806458832E+02  0.94719570158E+02  0.43464089020E+03  0.48200624488E+03  0.17196679332E+03 0.  0.
         24    2    3    3    0    0 -0.61789003970E+02  0.11163334772E+03  0.43720573451E+03  0.46253770923E+03  0.80699397948E+02 0.  0.
         -6    2    1    2    0  502  0.69806458832E+02 -0.94719570158E+02  0.25808683385E+03  0.33154335671E+03  0.17166084268E+03 0.  0.
        -24    2    5    5    0    0  0.11036772404E+03 -0.92339504788E+02  0.18459377003E+03  0.24743508497E+03  0.80259844775E+02 0.  0.
          5    1    3    3  501    0 -0.80174548623E+01 -0.16913777567E+02 -0.25648443185E+01  0.19468535652E+02  0.47000000000E+01 0. -1.
        -11    1    4    4    0    0 -0.16135723088E+02 -0.10748974970E+02  0.76198594545E+02  0.78626508463E+02  0.00000000000E+00 0.  1.
         12    1    4    4    0    0 -0.45653280882E+02  0.12238232269E+03  0.36100713997E+03  0.38391120076E+03  0.00000000000E+00 0. -1.
         -5    1    5    5    0  502 -0.40561265211E+02 -0.23800653697E+01  0.73493063816E+02  0.84108271744E+02  0.47000000000E+01 0.  1.
         13    1    6    6    0    0  0.35484587788E+02 -0.17718724348E+02  0.11299883295E+03  0.11975744407E+03  0.00000000000E+00 0. -1.
        -14    1    6    6    0    0  0.74883136254E+02 -0.74620780440E+02  0.71594937086E+02  0.12767764090E+03  0.00000000000E+00 0.  1.
</event>
<event>
12    1  0.1050869E+000  0.3005178E+03  0.7818608E-02  0.1086354E+00
         21   -1    0    0  501  502  0.00000000000E+00  0.00000000000E+00  0.94130390092E+02  0.94130390092E+02  0.00000000000E+00 0.  1.
         21   -1    0    0  502  503 -0.00000000000E+00 -0.00000000000E+00 -0.10401177076E+04  0.10401177076E+04  0.00000000000E+00 0.  1.
         -6    2    1    2    0  503 -0.21541692716E+03 -0.88099105409E+02 -0.65371349444E+03  0.71504057020E+03  0.17255659752E+03 0.  0.
        -24    2    3    3    0    0 -0.81915883854E+02 -0.79387802435E+02 -0.22310511463E+03  0.26410367648E+03  0.83439945781E+02 0.  0.
          6    2    1    2  501    0  0.21541692716E+03  0.88099105409E+02 -0.29227382305E+03  0.41920752747E+03  0.19011853819E+03 0.  0.
         24    2    5    5    0    0  0.13999789445E+03  0.17879380154E+02 -0.75286201662E+02  0.17894817147E+03  0.80220653362E+02 0.  0.
          5    1    5    5  501    0  0.75419032710E+02  0.70219725255E+02 -0.21698762139E+03  0.24025935600E+03  0.47000000000E+01 0. -1.
        -13    1    6    6    0    0  0.81302836916E+02  0.46299656689E+02 -0.25710514693E+02  0.97030098763E+02  0.00000000000E+00 0.  1.
         14    1    6    6    0    0  0.58695057534E+02 -0.28420276535E+02 -0.49575686969E+02  0.81918072705E+02  0.00000000000E+00 0. -1.
         -5    1    3    3    0  503 -0.13350104331E+03 -0.87113029735E+01 -0.43060837980E+03  0.45093689372E+03  0.47000000000E+01 0.  1.
         13    1    4    4    0    0 -0.93466379846E+02 -0.67017930218E+02 -0.21791298708E+03  0.24640096808E+03  0.00000000000E+00 0. -1.
        -14    1    4    4    0    0  0.11550495991E+02 -0.12369872217E+02 -0.51921275577E+01  0.17702708405E+02  0.00000000000E+00 0.  1.
</event>
<event>
12    1  0.1050869E+000  0.2342680E+03  0.7818608E-02  0.1124995E+00
         21   -1    0    0  501  502  0.00000000000E+00  0.00000000000E+00  0.10011720735E+03  0.10011720735E+03  0.00000000000E+00 0. -1.
         21   -1    0    0  502  503 -0.00000000000E+00 -0.00000000000E+00 -0.56527692511E+03  0.56527692511E+03  0.00000000000E+00 0. -1.
         -6    2    1    2    0  503 -0.50622332218E+02 -0.13622441737E+03 -0.31138579595E+03  0.38516579659E+03  0.17398811608E+03 0.  0.
        -24    2    3    3    0    0  0.19331377279E+02 -0.12744563637E+03 -0.22017826555E+03  0.26979035696E+03  0.87705619614E+02 0.  0.
          6    2    1    2  501    0  0.50622332218E+02  0.13622441737E+03 -0.15377392182E+03  0.28022833587E+03  0.18374381292E+03 0.  0.
         24    2    5    5    0    0  0.32353478112E+02  0.13852391967E+03 -0.18311325746E+03  0.24527228693E+03  0.79952522241E+02 0.  0.
          5    1    5    5  501    0  0.18268854105E+02 -0.22995022978E+01  0.29339335644E+02  0.34956048935E+02  0.47000000000E+01 0. -1.
        -11    1    6    6    0    0  0.22112420747E+02  0.41962325314E+02 -0.12646724480E+02  0.49089057203E+02  0.00000000000E+00 0.  1.
         12    1    6    6    0    0  0.10241057366E+02  0.96561594354E+02 -0.17046653298E+03  0.19618322973E+03  0.00000000000E+00 0. -1.
         -5    1    3    3    0  503 -0.69953709497E+02 -0.87787810039E+01 -0.91207530401E+02  0.11537543963E+03  0.47000000000E+01 0.  1.
         13    1    4    4    0    0 -0.72730185880E+00 -0.70430508429E+02 -0.42849670164E+02  0.82444403804E+02  0.00000000000E+00 0. -1.
        -14    1    4    4    0    0  0.20058679138E+02 -0.57015127938E+02 -0.17732859538E+03  0.18734595315E+03  0.00000000000E+00 0.  1.
</event>
<event>
12    1  0.1050869E+000  0.3582228E+03  0.7818608E-02  0.1059344E+00
         21   -1    0    0  503  502  0.00000000000E+00  0.00000000000E+00  0.77473251414E+02  0.77473251414E+02  0.00000000000E+00 0.  1.
         21   -1    0    0  501  503 -0.00000000000E+00 -0.00000000000E+00 -0.21865027915E+04  0.21865027915E+04  0.00000000000E+00 0.  1.
          6    2    1    2  501    0  0.22519487159E+03 -0.21818528822E+03 -0.16126226190E+04  0.16518131312E+04  0.17209694663E+03 0.  0.
         24    2    3    3    0    0  0.11999419094E+03 -0.11683741327E+03 -0.11954602269E+04  0.12097892333E+04  0.80095242791E+02 0.  0.
         -6    2    1    2    0  502 -0.22519487159E+03  0.21818528822E+03 -0.49640692106E+03  0.61216291165E+03  0.17322254165E+03 0.  0.
        -24    2    5    5    0    0 -0.10482539579E+03  0.13600992580E+03 -0.16552237714E+03  0.25057160603E+03  0.76820628070E+02 0.  0.
          5    1    3    3  501    0  0.10520068065E+03 -0.10134787495E+03 -0.41716239212E+03  0.44202389796E+03  0.47000000000E+01 0. -1.
        -11    1    4    4    0    0  0.11759996680E+03 -0.67393609521E+02 -0.91703119150E+03  0.92699398972E+03  0.00000000000E+00 0.  1.
         12    1    4    4    0    0  0.23942241375E+01 -0.49443803753E+02 -0.27842903537E+03  0.28279524355E+03  0.00000000000E+00 0. -1.
         -5    1    5    5    0  502 -0.12036947580E+03  0.82175362427E+02 -0.33088454392E+03  0.36159130562E+03  0.47000000000E+01 0.  1.
         13    1    6    6    0    0 -0.67511845944E+01  0.63437503375E+02 -0.38826197848E+02  0.74681784708E+02  0.00000000000E+00 0. -1.
        -14    1    6    6    0    0 -0.98074211193E+02  0.72572422421E+02 -0.12669617929E+03  0.17588982132E+03  0.00000000000E+00 0.  1.
</event>
<event>
12    1  0.1050869E+000  0.2299911E+03  0.7818608E-02  0.1126804E+00
         21   -1    0    0  501  502  0.00000000000E+00  0.00000000000E+00  0.16884281357E+03  0.16884281357E+03  0.00000000000E+00 0. -1.
         21   -1    0    0  502  503 -0.00000000000E+00 -0.00000000000E+00 -0.31528682367E+03  0.31528682367E+03  0.00000000000E+00 0.  1.
         -6    2    1    2    0  503 -0.90277647685E+02 -0.12312200564E+03 -0.97548810144E+02  0.24899849602E+03  0.17080807568E+03 0.  0.
        -24    2    3    3    0    0 -0.24084539712E+02 -0.36126312756E+02  0.15124300212E+02  0.91940869908E+02  0.79619115644E+02 0.  0.
          6    2    1    2  501    0  0.90277647685E+02  0.12312200564E+03 -0.48895199954E+02  0.23513114123E+03  0.17200822961E+03 0.  0.
         24    2    5    5    0    0  0.76006260088E+02  0.15887276838E+03 -0.50004320728E+02  0.19633539804E+03  0.70920013572E+02 0.  0.
          5    1    5    5  501    0  0.14271387597E+02 -0.35750762745E+02  0.11091207741E+01  0.38795743190E+02  0.47000000000E+01 0. -1.
        -13    1    6    6    0    0  0.29830395191E+02  0.13421359956E+03 -0.34804424605E+02  0.14182556454E+03  0.00000000000E+00 0.  1.
         14    1    6    6    0    0  0.46175864898E+02  0.24659168820E+02 -0.15199896123E+02  0.54509833499E+02  0.00000000000E+00 0. -1.
         -5    1    3    3    0  503 -0.66193107972E+02 -0.86995692879E+02 -0.11267311036E+03  0.15705762611E+03  0.47000000000E+01 0.  1.
         11    1    4    4    0    0 -0.40259089739E+02 -0.48741809578E+02 -0.47278230400E+01  0.63394878486E+02  0.00000000000E+00 0. -1.
        -12    1    4    4    0    0  0.16174550027E+02  0.12615496821E+02  0.19852123252E+02  0.28545991422E+02  0.00000000000E+00 0.  1.
</event>
<event>
12    1  0.1050869E+000  0.2773541E+03  0.7818608E-02  0.1097188E+00
         21   -1    0    0  501  502  0.00000000000E+00  0.00000000000E+00  0.21295789570E+03  0.21295789570E+03  0.00000000000E+00 0. -1.
         21   -1    0    0  502  503 -0.00000000000E+00 -0.00000000000E+00 -0.36392811472E+03  0.36392811472E+03  0.00000000000E+00 0. -1.
         -6    2    1    2    0  503  0.80833712226E+02 -0.20161407670E+03 -0.48674139230E+02  0.28126837868E+03  0.17193139347E+03 0.  0.
        -24    2    3    3    0    0  0.35044439234E+02 -0.20682271932E+03 -0.63556487342E+02  0.23261283671E+03  0.77881671579E+02 0.  0.
          6    2    1    2  501    0 -0.80833712226E+02  0.20161407670E+03 -0.10229607978E+03  0.29561763174E+03  0.17246150673E+03 0.  0.
         24    2    5    5    0    0  0.22341010625E+02  0.11724550201E+03 -0.45606179621E+02  0.15070760928E+03  0.79920156262E+02 0.  0.
          5    1    5    5  501    0 -0.10317472285E+03  0.84368574689E+02 -0.56689900164E+02  0.14491002247E+03  0.47000000000E+01 0. -1.
        -11    1    6    6    0    0  0.25068305654E+02  0.24836592284E+02 -0.46351079183E+02  0.58255461599E+02  0.00000000000E+00 0.  1.
         12    1    6    6    0    0 -0.27272950286E+01  0.92408909725E+02  0.74489956247E+00  0.92452147677E+02  0.00000000000E+00 0. -1.
         -5    1    3    3    0  503  0.45789272992E+02  0.52086426269E+01  0.14882348112E+02  0.48655541971E+02  0.47000000000E+01 0.  1.
         11    1    4    4    0    0  0.39228292064E+02 -0.57304134385E+02 -0.42871015547E+02  0.81612172437E+02  0.00000000000E+00 0. -1.
        -12    1    4    4    0    0 -0.41838528298E+01 -0.14951858494E+03 -0.20685471795E+02  0.15100066427E+03  0.00000000000E+00 0.  1.
</event>
<event>
12    1  0.1050869E+000  0.1797522E+03  0.7818608E-02  0.1168047E+00
         21   -1    0    0  503  502  0.00000000000E+00  0.00000000000E+00  0.33077725664E+03  0.33077725664E+03  0.00000000000E+00 0. -1.
         21   -1    0    0  501  503 -0.00000000000E+00 -0.00000000000E+00 -0.12925617458E+03  0.12925617458E+03  0.00000000000E+00 0. -1.
          6    2    1    2  501    0  0.90894945589E+01  0.57562268005E+02 -0.12941943218E+02  0.18020269408E+03  0.17002789021E+03 0.  0.
         24    2    3    3    0    0 -0.54895767688E+02  0.42821577094E+02  0.18531089552E+02  0.10723665029E+03  0.79429623640E+02 0.  0.
         -6    2    1    2    0  502 -0.90894945589E+01 -0.57562268005E+02  0.21446302527E+03  0.27983073714E+03  0.17004357863E+03 0.  0.
        -24    2    5    5    0    0 -0.41455427632E+02 -0.21171502157E+02  0.44565161280E+02  0.10302797797E+03  0.80386103653E+02 0.  0.
          5    1    3    3  501    0  0.63985262247E+02  0.14740690911E+02 -0.31473032770E+02  0.72966043781E+02  0.47000000000E+01 0. -1.
        -11    1    4    4    0    0 -0.20313642615E+01  0.28291381309E+02 -0.24547881786E+02  0.37511694140E+02  0.00000000000E+00 0.  1.
         12    1    4    4    0    0 -0.52864403427E+02  0.14530195785E+02  0.43078971337E+02  0.69724956154E+02  0.00000000000E+00 0. -1.
         -5    1    5    5    0  502  0.32365933073E+02 -0.36390765848E+02  0.16989786399E+03  0.17680275918E+03  0.47000000000E+01 0.  1.
         13    1    6    6    0    0 -0.42852403800E+02 -0.10190972553E+02  0.65741251591E+02  0.79133410098E+02  0.00000000000E+00 0. -1.
        -14    1    6    6    0    0  0.13969761682E+01 -0.10980529604E+02 -0.21176090311E+02  0.23894567869E+02  0.00000000000E+00 0.  1.
</event>
<event>
12    1  0.1050869E+000  0.4190501E+03  0.7818608E-02  0.1037395E+00
         21   -1    0    0  503  502  0.00000000000E+00  0.00000000000E+00  0.12318751403E+03  0.12318751403E+03  0.00000000000E+00 0. -1.
         21   -1    0    0  501  503 -0.00000000000E+00 -0.00000000000E+00 -0.22412496737E+04  0.22412496737E+04  0.00000000000E+00 0.  1.
          6    2    1    2  501    0 -0.28134439167E+03 -0.25638564945E+03 -0.17724266169E+04  0.18212365444E+04  0.17469450657E+03 0.  0.
         24    2    3    3    0    0 -0.56636916394E+02 -0.12817950431E+03 -0.64811736642E+03  0.66753656361E+03  0.76884442404E+02 0.  0.
         -6    2    1    2    0  502  0.28134439167E+03  0.25638564945E+03 -0.34563554281E+03  0.54320064330E+03  0.17525621945E+03 0.  0.
        -24    2    5    5    0    0  0.14492420205E+03  0.21294354700E+03 -0.18006924261E+03  0.32426692236E+03  0.79850649688E+02 0.  0.
          5    1    3    3  501    0 -0.22470747528E+03 -0.12820614515E+03 -0.11243092505E+04  0.11536999808E+04  0.47000000000E+01 0. -1.
        -13    1    4    4    0    0 -0.65855736311E+02 -0.96980221179E+02 -0.38600429438E+03  0.40341226628E+03  0.00000000000E+00 0.  1.
         14    1    4    4    0    0  0.92188199166E+01 -0.31199283126E+02 -0.26211307203E+03  0.26412429733E+03  0.00000000000E+00 0. -1.
         -5    1    5    5    0  502  0.13642018963E+03  0.43442102456E+02 -0.16556630019E+03  0.21893372094E+03  0.47000000000E+01 0.  1.
         13    1    6    6    0    0  0.32373613356E+02  0.33395327583E+02 -0.73727529483E+02  0.87172514876E+02  0.00000000000E+00 0. -1.
        -14    1    6    6    0    0  0.11255058869E+03  0.17954821942E+03 -0.10634171313E+03  0.23709440749E+03  0.00000000000E+00 0.  1.
</event>
<event>
12    1  0.1050869E+000  0.2260108E+03  0.7818608E-02  0.1130139E+00
         21   -1    0    0  503  502  0.00000000000E+00  0.00000000000E+00  0.37481225295E+02  0.37481225295E+02  0.00000000000E+00 0.  1.
         21   -1    0    0  501  503 -0.00000000000E+00 -0.00000000000E+00 -0.14352092852E+04  0.14352092852E+04  0.00000000000E+00 0.  1.
          6    2    1    2  501    0  0.14643066238E+03  0.11163611584E+01 -0.89278568545E+03  0.92094904802E+03  0.17215598674E+03 0.  0.
         24    2    3    3    0    0  0.36093359700E+02 -0.49290583050E+02 -0.49434250818E+03  0.50442265523E+03  0.79595273219E+02 0.  0.
         -6    2    1    2    0  502 -0.14643066238E+03 -0.11163611584E+01 -0.50494237447E+03  0.55174146249E+03  0.16735786429E+03 0.  0.
        -24    2    5    5    0    0 -0.10260562683E+03  0.32971250321E+02 -0.22988400319E+03  0.27109614076E+03  0.95033912916E+02 0.  0.
          5    1    3    3  501    0  0.11033730268E+03  0.50406944208E+02 -0.39844317726E+03  0.41652639279E+03  0.47000000000E+01 0. -1.
        -13    1    4    4    0    0  0.25488514797E+01 -0.64356915486E+01 -0.35143696742E+03  0.35150513060E+03  0.00000000000E+00 0.  1.
         14    1    4    4    0    0  0.33544508220E+02 -0.42854891501E+02 -0.14290554077E+03  0.15291752463E+03  0.00000000000E+00 0. -1.
         -5    1    5    5    0  502 -0.43825035548E+02 -0.34087611479E+02 -0.27505837128E+03  0.28064532173E+03  0.47000000000E+01 0.  1.
         11    1    6    6    0    0 -0.28143390601E+02  0.32256739690E+02 -0.17876012931E+02  0.46390726749E+02  0.00000000000E+00 0. -1.
        -12    1    6    6    0    0 -0.74462236231E+02  0.71451063101E+00 -0.21200799026E+03  0.22470541401E+03  0.00000000000E+00 0.  1.
</event>
<event>
12    1  0.1050869E+000  0.2172332E+03  0.7818608E-02  0.1135995E+00
         21   -1    0    0  501  502  0.00000000000E+00  0.00000000000E+00  0.15677957612E+03  0.15677957612E+03  0.00000000000E+00 0. -1.
         21   -1    0    0  502  503 -0.00000000000E+00 -0.00000000000E+00 -0.30148259097E+03  0.30148259097E+03  0.00000000000E+00 0. -1.
         -6    2    1    2    0  503 -0.13197502125E+03  0.17530042959E+01 -0.61118619745E+02  0.22550342969E+03  0.17232478598E+03 0.  0.
        -24    2    3    3    0    0 -0.53385992320E+02 -0.27793343055E+02  0.29470401456E+02  0.10190050548E+03  0.76763756823E+02 0.  0.
          6    2    1    2  501    0  0.13197502125E+03 -0.17530042959E+01 -0.83584395095E+02  0.23275873740E+03  0.17253926937E+03 0.  0.
         24    2    5    5    0    0  0.91851241893E+02 -0.68647737815E+02 -0.45825946314E+02  0.14596810717E+03  0.77829996848E+02 0.  0.
          5    1    5    5  501    0  0.40123779356E+02  0.66894733519E+02 -0.37758448782E+02  0.86790630236E+02  0.47000000000E+01 0. -1.
        -11    1    6    6    0    0  0.75115753016E+02 -0.24677436959E+02  0.17136331761E+01  0.79084061509E+02  0.00000000000E+00 0.  1.
         12    1    6    6    0    0  0.16735488877E+02 -0.43970300856E+02 -0.47539579490E+02  0.66884045657E+02  0.00000000000E+00 0. -1.
         -5    1    3    3    0  503 -0.78589028929E+02  0.29546347351E+02 -0.90589021202E+02  0.12360292421E+03  0.47000000000E+01 0.  1.
         13    1    4    4    0    0  0.28514534542E+01  0.21609550220E+02  0.10189794849E+01  0.21820672920E+02  0.00000000000E+00 0. -1.
        -14    1    4    4    0    0 -0.56237445775E+02 -0.49402893275E+02  0.28451421972E+02  0.80079832563E+02  0.00000000000E+00 0.  1.
</event>
<event>
12    1  0.1050869E+000  0.3624917E+03  0.7818608E-02  0.1057699E+00
         21   -1    0    0  503  502  0.00000000000E+00  0.00000000000E+00  0.25510501472E+03  0.25510501472E+03  0.00000000000E+00 0.  1.
         21   -1    0    0  501  503 -0.00000000000E+00 -0.00000000000E+00 -0.75784512005E+03  0.75784512005E+03  0.00000000000E+00 0.  1.
          6    2    1    2  501    0 -0.30036301091E+03 -0.10241087117E+03 -0.53861826104E+03  0.64868722421E+03  0.17314606224E+03 0.  0.
         24    2    3    3    0    0 -0.18679038430E+03 -0.43196640814E+02 -0.20731060372E+03  0.29345220286E+03  0.79874348235E+02 0.  0.
         -6    2    1    2    0  502  0.30036301091E+03  0.10241087117E+03  0.35878155710E+02  0.36426291056E+03  0.17519789123E+03 0.  0.
        -24    2    5    5    0    0  0.13875594519E+03  0.25181653168E+02 -0.51560757850E+02  0.16489177571E+03  0.68142923081E+02 0.  0.
          5    1    3    3  501    0 -0.11357262661E+03 -0.59214230355E+02 -0.33130765732E+03  0.35523502134E+03  0.47000000000E+01 0. -1.
        -11    1    4    4    0    0 -0.18492819404E+03 -0.56989142197E+02 -0.18944661410E+03  0.27080660788E+03  0.00000000000E+00 0.  1.
         12    1    4    4    0    0 -0.18621902650E+01  0.13792501384E+02 -0.17863989620E+02  0.22645594983E+02  0.00000000000E+00 0. -1.
         -5    1    5    5    0  502  0.16160706572E+03  0.77229218001E+02  0.87438913559E+02  0.19937113484E+03  0.47000000000E+01 0.  1.
         13    1    6    6    0    0  0.60433927206E+02 -0.22369482817E+02 -0.14490319627E+02  0.66050152777E+02  0.00000000000E+00 0. -1.
        -14    1    6    6    0    0  0.78322017982E+02  0.47551135985E+02 -0.37070438223E+02  0.98841622934E+02  0.00000000000E+00 0.  1.
</event>
<event>
12    1  0.1050869E+000  0.1969887E+03  0.7818608E-02  0.1152724E+00
         21   -1    0    0  501  502  0.00000000000E+00  0.00000000000E+00  0.48492851420E+03  0.48492851420E+03  0.00000000000E+00 0.  1.
         21   -1    0    0  502  503 -0.00000000000E+00 -0.00000000000E+00 -0.79375104359E+02  0.79375104359E+02  0.00000000000E+00 0.  1.
         -6    2    1    2    0  503 -0.45004443558E+02 -0.85178948174E+02  0.19198137257E+03  0.27506615415E+03  0.17182458669E+03 0.  0.
        -24    2    3    3    0    0 -0.75433810921E+02 -0.27701713891E+02  0.62741217443E+02  0.13030881735E+03  0.81155916176E+02 0.  0.
          6    2    1    2  501    0  0.45004443558E+02  0.85178948174E+02  0.21357203727E+03  0.28923746441E+03  0.16960083303E+03 0.  0.
         24    2    5    5    0    0 -0.39170292642E+02  0.17243590654E+02  0.64055818063E+02  0.10463576122E+03  0.70808484337E+02 0.  0.
          5    1    5    5  501    0  0.84174736200E+02  0.67935357520E+02  0.14951621920E+03  0.18460170319E+03  0.47000000000E+01 0. -1.
        -13    1    6    6    0    0  0.65703094660E+01 -0.93961886983E+01 -0.88899793032E+01  0.14508241125E+02  0.00000000000E+00 0.  1.
         14    1    6    6    0    0 -0.45740602108E+02  0.26639779352E+02  0.72945797367E+02  0.90127520095E+02  0.00000000000E+00 0. -1.
         -5    1    3    3    0  503  0.30429367363E+02 -0.57477234283E+02  0.12924015513E+03  0.14475733680E+03  0.47000000000E+01 0.  1.
         11    1    4    4    0    0 -0.13856015658E+02 -0.42919829063E+01 -0.19898603792E+02  0.24624474006E+02  0.00000000000E+00 0. -1.
        -12    1    4    4    0    0 -0.61577795263E+02 -0.23409730984E+02  0.82639821235E+02  0.10568434334E+03  0.00000000000E+00 0.  1.
</event>
<event>
12    1  0.1050869E+000  0.2327088E+03  0.7818608E-02  0.1126831E+00
         21   -1    0    0  501  502  0.00000000000E+00  0.00000000000E+00  0.11451640463E+04  0.11451640463E+04  0.00000000000E+00 0. -1.
         21   -1    0    0  502  503 -0.00000000000E+00 -0.00000000000E+00 -0.96164163119E+02  0.96164163119E+02  0.00000000000E+00 0. -1.
         -6    2    1    2    0  503  0.67850958811E+02  0.12196588476E+03  0.97109104426E+03  0.99592412071E+03  0.17136979988E+03 0.  0.
        -24    2    3    3    0    0  0.33007411511E+02  0.12131388117E+02  0.63297247242E+03  0.63867917944E+03  0.77590486610E+02 0.  0.
          6    2    1    2  501    0 -0.67850958811E+02 -0.12196588476E+03  0.77908838908E+02  0.24540408870E+03  0.18620942488E+03 0.  0.
         24    2    5    5    0    0 -0.57523352003E+02 -0.15298950986E+03  0.99388967914E+02  0.20600090712E+03  0.76442662420E+02 0.  0.
          5    1    5    5  501    0 -0.10327606807E+02  0.31023625097E+02 -0.21480129006E+02  0.39403181580E+02  0.47000000000E+01 0. -1.
        -11    1    6    6    0    0 -0.58129004871E+02 -0.12368930555E+03  0.10936902473E+03  0.17504173527E+03  0.00000000000E+00 0.  1.
         12    1    6    6    0    0  0.60565286704E+00 -0.29300204306E+02 -0.99800568124E+01  0.30959171852E+02  0.00000000000E+00 0. -1.
         -5    1    3    3    0  503  0.34843547299E+02  0.10983449665E+03  0.33811857184E+03  0.35724494127E+03  0.47000000000E+01 0.  1.
         11    1    4    4    0    0 -0.21041179261E+02  0.15674959525E+02  0.11887334446E+03  0.12173457851E+03  0.00000000000E+00 0. -1.
        -12    1    4    4    0    0  0.54048590772E+02 -0.35435714087E+01  0.51409912796E+03  0.51694460093E+03  0.00000000000E+00 0.  1.
</event>
<event>
12    1  0.1050869E+000  0.3127707E+03  0.7818608E-02  0.1079119E+00
         21   -1    0    0  503  502  0.00000000000E+00  0.00000000000E+00  0.14343673316E+03  0.14343673316E+03  0.00000000000E+00 0.  1.
         21   -1    0    0  501  503 -0.00000000000E+00 -0.00000000000E+00 -0.91952947463E+03  0.91952947463E+03  0.00000000000E+00 0.  1.
          6    2    1    2  501    0  0.11200508132E+03 -0.23603582365E+03 -0.65877766653E+03  0.72891777416E+03  0.17051410286E+03 0.  0.
         24    2    3    3    0    0  0.12870822967E+02 -0.12751542561E+03 -0.26184799834E+03  0.30562174363E+03  0.91730224530E+02 0.  0.
         -6    2    1    2    0  502 -0.11200508132E+03  0.23603582365E+03 -0.11731507493E+03  0.33404843363E+03  0.17195197272E+03 0.  0.
        -24    2    5    5    0    0 -0.48364929735E+02  0.14672954717E+03 -0.13738288594E+03  0.22246668356E+03  0.82150115660E+02 0.  0.
          5    1    3    3  501    0  0.99134258355E+02 -0.10852039803E+03 -0.39692966820E+03  0.42329603053E+03  0.47000000000E+01 0. -1.
        -11    1    4    4    0    0  0.92047655318E+01 -0.67223455275E+02 -0.22467431131E+03  0.23469611588E+03  0.00000000000E+00 0.  1.
         12    1    4    4    0    0  0.36660574356E+01 -0.60291970336E+02 -0.37173687030E+02  0.70925627748E+02  0.00000000000E+00 0. -1.
         -5    1    5    5    0  502 -0.63640151587E+02  0.89306276470E+02  0.20067811006E+02  0.11158175007E+03  0.47000000000E+01 0.  1.
         13    1    6    6    0    0 -0.23987337655E+02  0.97277551660E+02 -0.34902588919E+02  0.10609667826E+03  0.00000000000E+00 0. -1.
        -14    1    6    6    0    0 -0.24377592080E+02  0.49451995515E+02 -0.10248029702E+03  0.11637000530E+03  0.00000000000E+00 0.  1.
</event>
<event>
12    1  0.1050869E+000  0.2331139E+03  0.7818608E-02  0.1124707E+00
         21   -1    0    0  503  502  0.00000000000E+00  0.00000000000E+00  0.24397402684E+03  0.24397402684E+03  0.00000000000E+00 0. -1.
         21   -1    0    0  501  503 -0.00000000000E+00 -0.00000000000E+00 -0.22144641092E+03  0.22144641092E+03  0.00000000000E+00 0. -1.
          6    2    1    2  501    0 -0.15423705037E+03  0.25187579323E+02  0.86622569545E+01  0.23327482158E+03  0.17297001424E+03 0.  0.
         24    2    3    3    0    0 -0.17024310329E+03  0.44207759083E+02  0.35172529899E+02  0.19662996464E+03  0.80555545761E+02 0.  0.
         -6    2    1    2    0  502  0.15423705037E+03 -0.25187579323E+02  0.13865358965E+02  0.23214561618E+03  0.17110189090E+03 0.  0.
        -24    2    5    5    0    0  0.14406820946E+03 -0.73026789529E+02 -0.37134991301E+01  0.17996227007E+03  0.79272111161E+02 0.  0.
          5    1    3    3  501    0  0.16006052922E+02 -0.19020179760E+02 -0.26510272945E+02  0.36644856936E+02  0.47000000000E+01 0. -1.
        -13    1    4    4    0    0 -0.28918339699E+02  0.43185150234E+02  0.59597581784E+01  0.52313920607E+02  0.00000000000E+00 0.  1.
         14    1    4    4    0    0 -0.14132476360E+03  0.10226088489E+01  0.29212771721E+02  0.14431604403E+03  0.00000000000E+00 0. -1.
         -5    1    5    5    0  502  0.10168840913E+02  0.47839210206E+02  0.17578858096E+02  0.52183346104E+02  0.47000000000E+01 0.  1.
         13    1    6    6    0    0  0.11633209469E+03 -0.38944159480E+02 -0.33142584497E+02  0.12707570468E+03  0.00000000000E+00 0. -1.
        -14    1    6    6    0    0  0.27736114772E+02 -0.34082630050E+02  0.29429085367E+02  0.52886565395E+02  0.00000000000E+00 0.  1.
</event>
<event>
12    1  0.1050869E+000  0.2465766E+03  0.7818608E-02  0.1115619E+00
         21   -1    0    0  501  502  0.00000000000E+00  0.00000000000E+00  0.37391752704E+03  0.37391752704E+03  0.00000000000E+00 0. -1.
         21   -1    0    0  502  503 -0.00000000000E+00 -0.00000000000E+00 -0.20618500824E+03  0.20618500824E+03  0.00000000000E+00 0.  1.
         -6    2    1    2    0  503  0.16147528140E+03 -0.71424083928E+02 -0.50197734271E+02  0.25163434796E+03  0.17211730384E+03 0.  0.
        -24    2    3    3    0    0  0.17204595670E+03 -0.28626602516E+02 -0.83189656141E+01  0.19064840814E+03  0.76539641677E+02 0.  0.
          6    2    1    2  501    0 -0.16147528140E+03  0.71424083928E+02  0.21793025307E+03  0.32846818731E+03  0.17094469458E+03 0.  0.
         24    2    5    5    0    0 -0.14071549386E+03 -0.74945488871E+01  0.16431892209E+03  0.23071654184E+03  0.79827288841E+02 0.  0.
          5    1    5    5  501    0 -0.20759787538E+02  0.78918632815E+02  0.53611330978E+02  0.97751645476E+02  0.47000000000E+01 0. -1.
        -13    1    6    6    0    0 -0.11320417776E+02 -0.19498535014E+02  0.59928951361E+02  0.64029867543E+02  0.00000000000E+00 0.  1.
         14    1    6    6    0    0 -0.12939507608E+03  0.12003986127E+02  0.10438997073E+03  0.16668667429E+03  0.00000000000E+00 0. -1.
         -5    1    3    3    0  503 -0.10570675307E+02 -0.42797481412E+02 -0.41878768657E+02  0.60985939821E+02  0.47000000000E+01 0.  1.
         11    1    4    4    0    0  0.13646492099E+03 -0.41907361163E+02 -0.31452827047E+02  0.14617859594E+03  0.00000000000E+00 0. -1.
        -12    1    4    4    0    0  0.35581035708E+02  0.13280758647E+02  0.23133861433E+02  0.44469812200E+02  0.00000000000E+00 0.  1.
</event>
<event>
12    1  0.1050869E+000  0.2664197E+03  0.7818608E-02  0.1103481E+00
         21   -1    0    0  503  502  0.00000000000E+00  0.00000000000E+00  0.14166653073E+04  0.14166653073E+04  0.00000000000E+00 0. -1.
         21   -1    0    0  501  503 -0.00000000000E+00 -0.00000000000E+00 -0.61941789990E+02  0.61941789990E+02  0.00000000000E+00 0. -1.
          6    2    1    2  501    0 -0.17466547636E+03 -0.10189187656E+03  0.10019855020E+04  0.10365623379E+04  0.17203648178E+03 0.  0.
         24    2    3    3    0    0 -0.33609766670E+02  0.12390454302E+00  0.42341965576E+03  0.43235669308E+03  0.80737063382E+02 0.  0.
         -6    2    1    2    0  502  0.17466547636E+03  0.10189187656E+03  0.35273801537E+03  0.44204475942E+03  0.17346319119E+03 0.  0.
        -24    2    5    5    0    0  0.10441540379E+02  0.48272860492E+02  0.16120644131E+03  0.18407008257E+03  0.73857861802E+02 0.  0.
          5    1    3    3  501    0 -0.14105570969E+03 -0.10201578110E+03  0.57856584620E+03  0.60420564481E+03  0.47000000000E+01 0. -1.
        -11    1    4    4    0    0 -0.37585951677E+02 -0.33567097590E+02  0.19380494667E+03  0.20024937243E+03  0.00000000000E+00 0.  1.
         12    1    4    4    0    0  0.39761850070E+01  0.33691002133E+02  0.22961470909E+03  0.23210732066E+03  0.00000000000E+00 0. -1.
         -5    1    5    5    0  502  0.16422393599E+03  0.53619016064E+02  0.19153157406E+03  0.25797467685E+03  0.47000000000E+01 0.  1.
         13    1    6    6    0    0  0.24505099545E+02  0.11252792463E+02  0.13235360275E+03  0.13507257828E+03  0.00000000000E+00 0. -1.
        -14    1    6    6    0    0 -0.14063559165E+02  0.37020068029E+02  0.28852838559E+02  0.48997504285E+02  0.00000000000E+00 0.  1.
</event>
<event>
12    1  0.1050869E+000  0.2072021E+03  0.7818608E-02  0.1144553E+00
         21   -1    0    0  503  502  0.00000000000E+00  0.00000000000E+00  0.39737647766E+02  0.39737647766E+02  0.00000000000E+00 0.  1.
         21   -1    0    0  501  503 -0.00000000000E+00 -0.00000000000E+00 -0.11090722708E+04  0.11090722708E+04  0.00000000000E+00 0.  1.
          6    2    1    2  501    0  0.10685051917E+03 -0.45151659052E+02 -0.65857912093E+03  0.69040506912E+03  0.17168865770E+03 0.  0.
         24    2    3    3    0    0  0.69386244680E+02  0.40128193852E+02 -0.37863960745E+03  0.39533821843E+03  0.80620293491E+02 0.  0.
         -6    2    1    2    0  502 -0.10685051917E+03  0.45151659052E+02 -0.41075550206E+03  0.45840484940E+03  0.16721010053E+03 0.  0.
        -24    2    5    5    0    0 -0.52807015687E+02  0.72327791756E+02 -0.35994570299E+03  0.37926593268E+03  0.79131840796E+02 0.  0.
          5    1    3    3  501    0  0.37464274493E+02 -0.85279852904E+02 -0.27993951347E+03  0.29506685069E+03  0.47000000000E+01 0. -1.
        -13    1    4    4    0    0  0.71270198551E+02 -0.18629734991E+01 -0.25302864682E+03  0.26288097684E+03  0.00000000000E+00 0.  1.
         14    1    4    4    0    0 -0.18839538708E+01  0.41991167351E+02 -0.12561096063E+03  0.13245724158E+03  0.00000000000E+00 0. -1.
         -5    1    5    5    0  502 -0.54043503486E+02 -0.27176132704E+02 -0.50809799078E+02  0.79138916723E+02  0.47000000000E+01 0.  1.
         11    1    6    6    0    0 -0.64115333612E+02  0.50580585483E+02 -0.33287803958E+03  0.34274912234E+03  0.00000000000E+00 0. -1.
        -12    1    6    6    0    0  0.11308317925E+02  0.21747206273E+02 -0.27067663405E+02  0.36516810337E+02  0.00000000000E+00 0.  1.
</event>
<event>
12    1  0.1050869E+000  0.1892724E+03  0.7818608E-02  0.1159766E+00
         21   -1    0    0  501  502  0.00000000000E+00  0.00000000000E+00  0.57166604321E+02  0.57166604321E+02  0.00000000000E+00 0. -1.
         21   -1    0    0  502  503 -0.00000000000E+00 -0.00000000000E+00 -0.90326281000E+03  0.90326281000E+03  0.00000000000E+00 0. -1.
         -6    2    1    2    0  503 -0.14423300885E+02  0.71014281765E+02 -0.69540865790E+03  0.72070607063E+03  0.17485130524E+03 0.  0.
        -24    2    3    3    0    0 -0.14728985070E+02 -0.30936178423E+02 -0.33563012776E+03  0.34673191307E+03  0.80009041642E+02 0.  0.
          6    2    1    2  501    0  0.14423300885E+02 -0.71014281765E+02 -0.15068754778E+03  0.23972334369E+03  0.17178324898E+03 0.  0.
         24    2    5    5    0    0 -0.41608706057E+02 -0.71887640962E+02 -0.14238619448E+03  0.18287837008E+03  0.79193134307E+02 0.  0.
          5    1    5    5  501    0  0.56032006943E+02  0.87335919679E+00 -0.83013533038E+01  0.56844973612E+02  0.47000000000E+01 0. -1.
        -11    1    6    6    0    0  0.43569763063E+01 -0.37247082847E+02 -0.10443498584E+02  0.38928075804E+02  0.00000000000E+00 0.  1.
         12    1    6    6    0    0 -0.45965682364E+02 -0.34640558115E+02 -0.13194269589E+03  0.14395029427E+03  0.00000000000E+00 0. -1.
         -5    1    3    3    0  503  0.30568418456E+00  0.10195046019E+03 -0.35977853013E+03  0.37397415755E+03  0.47000000000E+01 0.  1.
         13    1    4    4    0    0  0.23564088130E+02 -0.40662478429E+02 -0.20121700874E+03  0.20663249504E+03  0.00000000000E+00 0. -1.
        -14    1    4    4    0    0 -0.38293073200E+02  0.97263000058E+01 -0.13441311903E+03  0.14009941804E+03  0.00000000000E+00 0.  1.
</event>
<event>
12    1  0.1050869E+000  0.4410752E+03  0.7818608E-02  0.1030553E+00
         21   -1    0    0  503  502  0.00000000000E+00  0.00000000000E+00  0.32120126231E+03  0.32120126231E+03  0.00000000000E+00 0. -1.
         21   -1    0    0  501  503 -0.00000000000E+00 -0.00000000000E+00 -0.63136897613E+03  0.63136897613E+03  0.00000000000E+00 0.  1.
          6    2    1    2  501    0  0.17458883245E+03  0.36485041256E+03 -0.54295660701E+02  0.44265080839E+03  0.17144863788E+03 0.  0.
         24    2    3    3    0    0  0.14366195515E+03  0.32559206180E+03 -0.97783215418E+02  0.37623584577E+03  0.73095186970E+02 0.  0.
         -6    2    1    2    0  502 -0.17458883245E+03 -0.36485041256E+03 -0.25587205312E+03  0.50991943005E+03  0.17592678479E+03 0.  0.
        -24    2    5    5    0    0 -0.12147121542E+02 -0.15383467851E+03 -0.73318475865E+02  0.18702184872E+03  0.76084900734E+02 0.  0.
          5    1    3    3  501    0  0.30926877305E+02  0.39258350763E+02  0.43487554717E+02  0.66414962620E+02  0.47000000000E+01 0. -1.
        -13    1    4    4    0    0  0.11689678255E+03  0.26225126602E+03 -0.47449464499E+02  0.29101896155E+03  0.00000000000E+00 0.  1.
         14    1    4    4    0    0  0.26765172598E+02  0.63340795779E+02 -0.50333750919E+02  0.85216884217E+02  0.00000000000E+00 0. -1.
         -5    1    5    5    0  502 -0.16244171091E+03 -0.21101573405E+03 -0.18255357725E+03  0.32289758133E+03  0.47000000000E+01 0.  1.
         11    1    6    6    0    0 -0.32959203034E+02 -0.50703671663E+02 -0.31443917435E+01  0.60556243148E+02  0.00000000000E+00 0. -1.
        -12    1    6    6    0    0  0.20812081492E+02 -0.10313100685E+03 -0.70174084121E+02  0.12646560557E+03  0.00000000000E+00 0.  1.
</event>
<event>
12    1  0.1050869E+000  0.2184486E+03  0.7818608E-02  0.1135900E+00
         21   -1    0    0  501  502  0.00000000000E+00  0.00000000000E+00  0.60741623678E+03  0.60741623678E+03  0.00000000000E+00 0. -1.
         21   -1    0    0  502  503 -0.00000000000E+00 -0.00000000000E+00 -0.77146809730E+02  0.77146809730E+02  0.00000000000E+00 0. -1.
         -6    2    1    2    0  503  0.12651007664E+03 -0.10316476914E+02  0.24524470123E+03  0.32545456856E+03  0.17223380483E+03 0.  0.
        -24    2    3    3    0    0  0.10650964102E+03 -0.61287026014E+01  0.26488148694E+03  0.29672743449E+03  0.80641823083E+02 0.  0.
          6    2    1    2  501    0 -0.12651007664E+03  0.10316476914E+02  0.28502472582E+03  0.35910847795E+03  0.17778800696E+03 0.  0.
         24    2    5    5    0    0 -0.39582650457E+02  0.16970694671E+02  0.25166507563E+03  0.26564398042E+03  0.73325461789E+02 0.  0.
          5    1    5    5  501    0 -0.86927426187E+02 -0.66542177567E+01  0.33359650190E+02  0.93464497528E+02  0.47000000000E+01 0. -1.
        -11    1    6    6    0    0 -0.60676653522E+02  0.68639442482E+01  0.19512546363E+03  0.20445712648E+03  0.00000000000E+00 0.  1.
         12    1    6    6    0    0  0.21094003065E+02  0.10106750423E+02  0.56539612001E+02  0.61186853937E+02  0.00000000000E+00 0. -1.
         -5    1    3    3    0  503  0.20000435626E+02 -0.41877743128E+01 -0.19636785710E+02  0.28727134071E+02  0.47000000000E+01 0.  1.
         13    1    4    4    0    0  0.58510638587E+02 -0.29204903794E+02  0.21126829773E+03  0.22115766968E+03  0.00000000000E+00 0. -1.
        -14    1    4    4    0    0  0.47999002431E+02  0.23076201193E+02  0.53613189210E+02  0.75569764808E+02  0.00000000000E+00 0.  1.
</event>
<event>
12    1  0.1050869E+000  0.1899771E+03  0.7818608E-02  0.1158545E+00
         21   -1    0    0  501  502  0.00000000000E+00  0.00000000000E+00  0.16139068121E+03  0.16139068121E+03  0.00000000000E+00 0. -1.
         21   -1    0    0  502  503 -0.00000000000E+00 -0.00000000000E+00 -0.59054292036E+03  0.59054292036E+03  0.00000000000E+00 0. -1.
         -6    2    1    2    0  503 -0.78776878774E+02 -0.95158920920E+01  0.81848273528E+02  0.20685850176E+03  0.17261214047E+03 0.  0.
        -24    2    3    3    0    0 -0.10122138359E+03  0.15161360492E+02  0.12033080998E+02  0.12934093149E+03  0.78157828608E+02 0.  0.
          6    2    1    2  501    0  0.78776878774E+02  0.95158920920E+01 -0.51100051268E+03  0.54507509981E+03  0.17230493796E+03 0.  0.
         24    2    5    5    0    0  0.58372130625E+02  0.31420115477E+02 -0.14719948219E+03  0.18001424388E+03  0.79642395445E+02 0.  0.
          5    1    5    5  501    0  0.20404748149E+02 -0.21904223385E+02 -0.36380103049E+03  0.36506085593E+03  0.47000000000E+01 0. -1.
        -11    1    6    6    0    0  0.44918717557E+02 -0.19210374457E+02 -0.90316758691E+02  0.10268323414E+03  0.00000000000E+00 0.  1.
         12    1    6    6    0    0  0.13453413068E+02  0.50630489934E+02 -0.56882723500E+02  0.77331009736E+02  0.00000000000E+00 0. -1.
         -5    1    3    3    0  503  0.22444504818E+02 -0.24677252584E+02  0.69815192530E+02  0.77517570264E+02  0.47000000000E+01 0.  1.
         11    1    4    4    0    0 -0.40178913671E+02 -0.21887938580E+02 -0.21381389137E+02  0.50503373753E+02  0.00000000000E+00 0. -1.
        -12    1    4    4    0    0 -0.61042469921E+02  0.37049299072E+02  0.33414470135E+02  0.78837557739E+02  0.00000000000E+00 0.  1.
</event>
<event>
12    1  0.1050869E+000  0.3366604E+03  0.7818608E-02  0.1068275E+00
         21   -1    0    0  501  502  0.00000000000E+00  0.00000000000E+00  0.75676386202E+03  0.75676386202E+03  0.00000000000E+00 0.  1.
         21   -1    0    0  502  503 -0.00000000000E+00 -0.00000000000E+00 -0.15023858107E+03  0.15023858107E+03  0.00000000000E+00 0.  1.
         -6    2    1    2    0  503 -0.18513184098E+03 -0.22217186127E+03  0.27283140645E+03  0.43298573057E+03  0.17148041301E+03 0.  0.
        -24    2    3    3    0    0 -0.16333623822E+03 -0.18980310993E+03  0.28887946241E+03  0.39053087851E+03  0.79743814928E+02 0.  0.
          6    2    1    2  501    0  0.18513184098E+03  0.22217186127E+03  0.33369387449E+03  0.47401671252E+03  0.17235459782E+03 0.  0.
         24    2    5    5    0    0  0.10158174767E+03  0.38965233078E+02  0.13949209099E+03  0.19422802543E+03  0.80183175084E+02 0.  0.
          5    1    5    5  501    0  0.83550093314E+02  0.18320662819E+03  0.19420178350E+03  0.27978868709E+03  0.47000000000E+01 0. -1.
        -13    1    6    6    0    0  0.47315939677E+02 -0.22891106787E+02  0.48078689238E+02  0.71234551141E+02  0.00000000000E+00 0.  1.
         14    1    6    6    0    0  0.54265807992E+02  0.61856339865E+02  0.91413401753E+02  0.12299347429E+03  0.00000000000E+00 0. -1.
         -5    1    3    3    0  503 -0.21795602765E+02 -0.32368751342E+02 -0.16048055953E+02  0.42454852058E+02  0.47000000000E+01 0.  1.
         11    1    4    4    0    0 -0.69164000131E+02 -0.13852812219E+03  0.18490894719E+03  0.24117424884E+03  0.00000000000E+00 0. -1.
        -12    1    4    4    0    0 -0.94172238087E+02 -0.51274987737E+02  0.10397051522E+03  0.14935662968E+03  0.00000000000E+00 0.  1.
</event>
<event>
12    1  0.1050869E+000  0.2053412E+03  0.7818608E-02  0.1147098E+00
         21   -1    0    0  501  502  0.00000000000E+00  0.00000000000E+00  0.10842631100E+04  0.10842631100E+04  0.00000000000E+00 0.  1.
         21   -1    0    0  502  503 -0.00000000000E+00 -0.00000000000E+00 -0.40263210210E+02  0.40263210210E+02  0.00000000000E+00 0.  1.
         -6    2    1    2    0  503  0.86016714228E+02  0.69967495752E+02  0.68531640378E+03  0.71541847246E+03  0.17283139720E+03 0.  0.
        -24    2    3    3    0    0  0.54836483270E+02  0.80868940042E+00  0.18847533243E+03  0.21279705680E+03  0.82170204893E+02 0.  0.
          6    2    1    2  501    0 -0.86016714228E+02 -0.69967495752E+02  0.35868349597E+03  0.40910784771E+03  0.16254554804E+03 0.  0.
         24    2    5    5    0    0 -0.20593954837E+01 -0.14501197948E+02  0.87986457827E+02  0.12027516600E+03  0.80684403354E+02 0.  0.
          5    1    5    5  501    0 -0.83957318745E+02 -0.55466297804E+02  0.27069703814E+03  0.28883268170E+03  0.47000000000E+01 0. -1.
        -11    1    6    6    0    0 -0.22985733171E+02  0.25852587500E+02  0.25373340932E+02  0.42901126324E+02  0.00000000000E+00 0.  1.
         12    1    6    6    0    0  0.20926337687E+02 -0.40353785448E+02  0.62613116894E+02  0.77374039679E+02  0.00000000000E+00 0. -1.
         -5    1    3    3    0  503  0.31180230958E+02  0.69158806352E+02  0.49684107135E+03  0.50262141566E+03  0.47000000000E+01 0.  1.
         13    1    4    4    0    0  0.47289455108E+02  0.30402694169E+02  0.66613453903E+02  0.87166327318E+02  0.00000000000E+00 0. -1.
        -14    1    4    4    0    0  0.75470281622E+01 -0.29594004768E+02  0.12186187853E+03  0.12563072948E+03  0.00000000000E+00 0.  1.
</event>
<event>
12    1  0.1050869E+000  0.2650749E+03  0.7818608E-02  0.1104342E+00
         21   -1    0    0  503  502  0.00000000000E+00  0.00000000000E+00  0.14926464319E+03  0.14926464319E+03  0.00000000000E+00 0.  1.
         21   -1    0    0  501  503 -0.00000000000E+00 -0.00000000000E+00 -0.85613474974E+03  0.85613474974E+03  0.00000000000E+00 0.  1.
          6    2    1    2  501    0 -0.85126268947E+01  0.19893583681E+03 -0.15569182425E+02  0.26553170049E+03  0.17497643425E+03 0.  0.
         24    2    3    3    0    0 -0.54650951025E+02  0.55746726112E+02  0.12110864093E+02  0.11249529518E+03  0.80088042108E+02 0.  0.
         -6    2    1    2    0  502  0.85126268947E+01 -0.19893583681E+03 -0.69130092413E+03  0.73986769244E+03  0.17279844512E+03 0.  0.
        -24    2    5    5    0    0  0.53117035208E+02 -0.17878994370E+03 -0.62420234464E+03  0.65668284034E+03  0.82562233154E+02 0.  0.
          5    1    3    3  501    0  0.46138324130E+02  0.14318911069E+03 -0.27680046517E+02  0.15303640531E+03  0.47000000000E+01 0. -1.
        -11    1    4    4    0    0 -0.61106045916E+02  0.65260091805E+02 -0.75489200880E+01  0.89720759161E+02  0.00000000000E+00 0.  1.
         12    1    4    4    0    0  0.64550948914E+01 -0.95133656937E+01  0.19659784181E+02  0.22774536020E+02  0.00000000000E+00 0. -1.
         -5    1    5    5    0  502 -0.44604408313E+02 -0.20145893105E+02 -0.67098579488E+02  0.83184852102E+02  0.47000000000E+01 0.  1.
         13    1    6    6    0    0 -0.17159729812E+02 -0.63222380608E+02 -0.15259191497E+03  0.16605968279E+03  0.00000000000E+00 0. -1.
        -14    1    6    6    0    0  0.70276765020E+02 -0.11556756309E+03 -0.47161042967E+03  0.49062315754E+03  0.00000000000E+00 0.  1.
</event>
<event>
12    1  0.1050869E+000  0.2155974E+03  0.7818608E-02  0.1137287E+00
         21   -1    0    0  501  502  0.00000000000E+00  0.00000000000E+00  0.30992366149E+03  0.30992366149E+03  0.00000000000E+00 0.  1.
         21   -1    0    0  502  503 -0.00000000000E+00 -0.00000000000E+00 -0.15126656238E+03  0.15126656238E+03  0.00000000000E+00 0.  1.
         -6    2    1    2    0  503  0.32474741816E+02 -0.12171607941E+03  0.10290780856E+03  0.23889797467E+03  0.17496517480E+03 0.  0.
        -24    2    3    3    0    0  0.39516003888E+02  0.51391822651E+01  0.33822837026E+02  0.94202915736E+02  0.78372694678E+02 0.  0.
          6    2    1    2  501    0 -0.32474741816E+02  0.12171607941E+03  0.55749290538E+02  0.22229224920E+03  0.17446044772E+03 0.  0.
         24    2    5    5    0    0  0.30752247500E+02  0.99680186916E+02  0.76468592064E+02  0.15204545432E+03  0.79928306731E+02 0.  0.
          5    1    5    5  501    0 -0.63226989316E+02  0.22035892494E+02 -0.20719301525E+02  0.70246794886E+02  0.47000000000E+01 0. -1.
        -11    1    6    6    0    0 -0.44796995348E+01  0.45623267850E+02  0.74519642288E+02  0.87491298790E+02  0.00000000000E+00 0.  1.
         12    1    6    6    0    0  0.35231947035E+02  0.54056919066E+02  0.19489497756E+01  0.64554155529E+02  0.00000000000E+00 0. -1.
         -5    1    3    3    0  503 -0.70412620723E+01 -0.12685526168E+03  0.69084971538E+02  0.14469505893E+03  0.47000000000E+01 0.  1.
         13    1    4    4    0    0 -0.20892987371E+02  0.11692528183E+02  0.21550287531E+02  0.32212529072E+02  0.00000000000E+00 0. -1.
        -14    1    4    4    0    0  0.60408991259E+02 -0.65533459179E+01  0.12272549496E+02  0.61990386664E+02  0.00000000000E+00 0.  1.
</event>
<event>
12    1  0.1050869E+000  0.2142342E+03  0.7818608E-02  0.1138464E+00
         21   -1    0    0  501  502  0.00000000000E+00  0.00000000000E+00  0.93838123151E+02  0.93838123151E+02  0.00000000000E+00 0.  1.
         21   -1    0    0  502  503 -0.00000000000E+00 -0.00000000000E+00 -0.65466456168E+03  0.65466456168E+03  0.00000000000E+00 0.  1.
         -6    2    1    2    0  503 -0.12080704117E+03  0.38686602393E+02 -0.90297392738E+02  0.23149796668E+03  0.17130877106E+03 0.  0.
        -24    2    3    3    0    0 -0.49835474217E+02 -0.16080548074E+02 -0.10320754701E+03  0.14080526483E+03  0.80200787575E+02 0.  0.
          6    2    1    2  501    0  0.12080704117E+03 -0.38686602393E+02 -0.47052904579E+03  0.51700471815E+03  0.17264211900E+03 0.  0.
         24    2    5    5    0    0  0.57483393765E+02  0.45064664528E+02 -0.23675294033E+03  0.26068945033E+03  0.81067072300E+02 0.  0.
          5    1    5    5  501    0  0.63323647406E+02 -0.83751266922E+02 -0.23377610547E+03  0.25631526782E+03  0.47000000000E+01 0. -1.
        -13    1    6    6    0    0  0.21407974775E+02 -0.15106280809E+01 -0.17125609278E+03  0.17259557554E+03  0.00000000000E+00 0.  1.
         14    1    6    6    0    0  0.36075418990E+02  0.46575292609E+02 -0.65496847547E+02  0.88093874790E+02  0.00000000000E+00 0. -1.
         -5    1    3    3    0  503 -0.70971566954E+02  0.54767150467E+02  0.12910154270E+02  0.90692701853E+02  0.47000000000E+01 0.  1.
         11    1    4    4    0    0 -0.17843879047E+02  0.42678962535E+01 -0.10118689809E+03  0.10283679936E+03  0.00000000000E+00 0. -1.
        -12    1    4    4    0    0 -0.31991595170E+02 -0.20348444328E+02 -0.20206489197E+01  0.37968465470E+02  0.00000000000E+00 0.  1.
</event>
<event>
12    1  0.1050869E+000  0.2049015E+03  0.7818608E-02  0.1145814E+00
         21   -1    0    0  503  502  0.00000000000E+00  0.00000000000E+00  0.55978060102E+03  0.55978060102E+03  0.00000000000E+00 0.  1.
         21   -1    0    0  501  503 -0.00000000000E+00 -0.00000000000E+00 -0.12635874439E+03  0.12635874439E+03  0.00000000000E+00 0.  1.
          6    2    1    2  501    0 -0.45506230936E+02 -0.10110401306E+03  0.43620022907E+03  0.48192868163E+03  0.17231301700E+03 0.  0.
         24    2    3    3    0    0 -0.67362291765E+02 -0.13053744688E+03  0.33806845070E+03  0.37706710455E+03  0.79445708429E+02 0.  0.
         -6    2    1    2    0  502  0.45506230936E+02  0.10110401306E+03 -0.27783724444E+01  0.20421066378E+03  0.17146847331E+03 0.  0.
        -24    2    5    5    0    0 -0.17324652056E+02 -0.41413130890E+01 -0.90722727408E+00  0.81532671795E+02  0.79557900084E+02 0.  0.
          5    1    3    3  501    0  0.21856060830E+02  0.29433433818E+02  0.98131778375E+02  0.10486157708E+03  0.47000000000E+01 0. -1.
        -11    1    4    4    0    0 -0.27530221132E+02 -0.12347533612E+03  0.25967285724E+03  0.28884955339E+03  0.00000000000E+00 0.  1.
         12    1    4    4    0    0 -0.39832070633E+02 -0.70621107546E+01  0.78395593457E+02  0.88217551160E+02  0.00000000000E+00 0. -1.
         -5    1    5    5    0  502  0.62830882992E+02  0.10524532615E+03 -0.18711451703E+01  0.12267799199E+03  0.47000000000E+01 0.  1.
         11    1    6    6    0    0  0.15497854410E+02 -0.27724291835E+02 -0.19259367824E+02  0.37144893297E+02  0.00000000000E+00 0. -1.
        -12    1    6    6    0    0 -0.32822506466E+02  0.23582978746E+02  0.18352140550E+02  0.44387778498E+02  0.00000000000E+00 0.  1.
</event>
<event>
12    1  0.1050869E+000  0.1762764E+03  0.7818608E-02  0.1171510E+00
         21   -1    0    0  503  502  0.00000000000E+00  0.00000000000E+00  0.60542152608E+02  0.60542152608E+02  0.00000000000E+00 0.  1.
         21   -1    0    0  501  503 -0.00000000000E+00 -0.00000000000E+00 -0.98939661737E+03  0.98939661737E+03  0.00000000000E+00 0.  1.
          6    2    1    2  501    0 -0.29891884883E+02 -0.23741186484E+02 -0.10015179947E+03  0.20274060757E+03  0.17209358589E+03 0.  0.
         24    2    3    3    0    0 -0.80204650414E+02 -0.27377461566E+02 -0.97680052678E+02  0.15201786707E+03  0.79910749381E+02 0.  0.
         -6    2    1    2    0  502  0.29891884883E+02  0.23741186484E+02 -0.82870266529E+03  0.84719816240E+03  0.17187044598E+03 0.  0.
        -24    2    5    5    0    0  0.18068908442E+02  0.37496806295E+02 -0.82270061507E+03  0.82752293800E+03  0.78901298815E+02 0.  0.
          5    1    3    3  501    0  0.50312765531E+02  0.36362750823E+01 -0.24717467894E+01  0.50722740503E+02  0.47000000000E+01 0. -1.
        -13    1    4    4    0    0 -0.31522043361E+02 -0.48736628662E+01 -0.92841397354E+02  0.98167799558E+02  0.00000000000E+00 0.  1.
         14    1    4    4    0    0 -0.48682607053E+02 -0.22503798700E+02 -0.48386553239E+01  0.53850067509E+02  0.00000000000E+00 0. -1.
         -5    1    5    5    0  502  0.11822976441E+02 -0.13755619812E+02 -0.60020502230E+01  0.19675224400E+02  0.47000000000E+01 0.  1.
         13    1    6    6    0    0 -0.11195707971E+02  0.45223452730E+02 -0.26967855564E+03  0.27367321375E+03  0.00000000000E+00 0. -1.
        -14    1    6    6    0    0  0.29264616413E+02 -0.77266464341E+01 -0.55302205943E+03  0.55384972425E+03  0.00000000000E+00 0.  1.
</event>
<event>
12    1  0.1050869E+000  0.1937558E+03  0.7818608E-02  0.1155606E+00
         21   -1    0    0  501  502  0.00000000000E+00  0.00000000000E+00  0.21180440266E+03  0.21180440266E+03  0.00000000000E+00 0. -1.
         21   -1    0    0  502  503 -0.00000000000E+00 -0.00000000000E+00 -0.41819830179E+03  0.41819830179E+03  0.00000000000E+00 0. -1.
         -6    2    1    2    0  503  0.31141123608E+02 -0.79513776474E+02  0.13665582559E+03  0.23709938211E+03  0.17392266126E+03 0.  0.
        -24    2    3    3    0    0 -0.35607399255E+02 -0.28221056840E+02  0.11994079374E+03  0.15114712396E+03  0.79970895624E+02 0.  0.
          6    2    1    2  501    0 -0.31141123608E+02  0.79513776474E+02 -0.34304972472E+03  0.39290332234E+03  0.17145756573E+03 0.  0.
         24    2    5    5    0    0 -0.81392778233E+02  0.37350602650E+02 -0.26504483683E+03  0.29087482360E+03  0.79621263544E+02 0.  0.
          5    1    5    5  501    0  0.50251654625E+02  0.42163173824E+02 -0.78004887890E+02  0.10202849874E+03  0.47000000000E+01 0. -1.
        -13    1    6    6    0    0 -0.82778214241E+02  0.56760178970E+02 -0.22128360244E+03  0.24298226968E+03  0.00000000000E+00 0.  1.
         14    1    6    6    0    0  0.13854360081E+01 -0.19409576321E+02 -0.43761234392E+02  0.47892553925E+02  0.00000000000E+00 0. -1.
         -5    1    3    3    0  503  0.66748522863E+02 -0.51292719634E+02  0.16715031856E+02  0.85952258154E+02  0.47000000000E+01 0.  1.
         11    1    4    4    0    0 -0.72783450510E+01  0.27262379888E+02  0.25637251493E+02  0.38124537085E+02  0.00000000000E+00 0. -1.
        -12    1    4    4    0    0 -0.28329054204E+02 -0.55483436727E+02  0.94303542246E+02  0.11302258687E+03  0.00000000000E+00 0.  1.
</event>
<event>
12    1  0.1050869E+000  0.2701409E+03  0.7818608E-02  0.1101770E+00
         21   -1    0    0  503  502  0.00000000000E+00  0.00000000000E+00  0.80227344570E+02  0.80227344570E+02  0.00000000000E+00 0. -1.
         21   -1    0    0  501  503 -0.00000000000E+00 -0.00000000000E+00 -0.93035670771E+03  0.93035670771E+03  0.00000000000E+00 0. -1.
          6    2    1    2  501    0 -0.20180446817E+03 -0.53358696693E+02 -0.33144261877E+03  0.42758660629E+03  0.17147566141E+03 0.  0.
         24    2    3    3    0    0 -0.12952812636E+03 -0.40665693172E+02 -0.10386470783E+03  0.18842394727E+03  0.79274663362E+02 0.  0.
         -6    2    1    2    0  502  0.20180446817E+03  0.53358696693E+02 -0.51868674437E+03  0.58299744599E+03  0.16516019302E+03 0.  0.
        -24    2    5    5    0    0  0.50202969850E+02  0.45711342291E+02 -0.13720621209E+03  0.17239912301E+03  0.79284601175E+02 0.  0.
          5    1    3    3  501    0 -0.72276341807E+02 -0.12693003521E+02 -0.22757791094E+03  0.23916265902E+03  0.47000000000E+01 0. -1.
        -13    1    4    4    0    0 -0.34516993515E+02 -0.21635091263E+02 -0.78215795333E+02  0.88188495025E+02  0.00000000000E+00 0.  1.
         14    1    4    4    0    0 -0.95011132850E+02 -0.19030601909E+02 -0.25648912500E+02  0.10023545225E+03  0.00000000000E+00 0. -1.
         -5    1    5    5    0  502  0.15160149832E+03  0.76473544014E+01 -0.38148053228E+03  0.41059832298E+03  0.47000000000E+01 0.  1.
         13    1    6    6    0    0 -0.47075754051E+01  0.26987668873E+02 -0.99511674077E+02  0.10321370459E+03  0.00000000000E+00 0. -1.
        -14    1    6    6    0    0  0.54910545255E+02  0.18723673418E+02 -0.37694538015E+02  0.69185418426E+02  0.00000000000E+00 0.  1.
</event>
<event>
12    1  0.1050869E+000  0.1974939E+03  0.7818608E-02  0.1152643E+00
         21   -1    0    0  503  502  0.00000000000E+00  0.00000000000E+00  0.50022606176E+02  0.50022606176E+02  0.00000000000E+00 0. -1.
         21   -1    0    0  501  503 -0.00000000000E+00 -0.00000000000E+00 -0.76920863120E+03  0.76920863120E+03  0.00000000000E+00 0. -1.
          6    2    1    2  501    0  0.77328685826E+02  0.50785611132E+02 -0.33519586072E+03  0.38905025342E+03  0.17448475776E+03 0.  0.
         24    2    3    3    0    0  0.65706409674E+02  0.80090898337E+02 -0.14103144905E+03  0.19228697960E+03  0.79702751744E+02 0.  0.
         -6    2    1    2    0  502 -0.77328685826E+02 -0.50785611132E+02 -0.38399016430E+03  0.43018098395E+03  0.17043570262E+03 0.  0.
        -24    2    5    5    0    0 -0.12437418345E+02 -0.42415040108E+02 -0.85272500822E+02  0.12434561071E+03  0.78972821300E+02 0.  0.
          5    1    3    3  501    0  0.11622276151E+02 -0.29305287205E+02 -0.19416441168E+03  0.19676327381E+03  0.47000000000E+01 0. -1.
        -11    1    4    4    0    0  0.46569325309E+02  0.99088633427E+01 -0.21232593920E+02  0.52131666739E+02  0.00000000000E+00 0.  1.
         12    1    4    4    0    0  0.19137084366E+02  0.70182034995E+02 -0.11979885513E+03  0.14015531286E+03  0.00000000000E+00 0. -1.
         -5    1    5    5    0  502 -0.64891267480E+02 -0.83705710244E+01 -0.29871766347E+03  0.30583537324E+03  0.47000000000E+01 0.  1.
         11    1    6    6    0    0  0.10402525069E+02 -0.92912804891E+01  0.12430041725E+02  0.18682782400E+02  0.00000000000E+00 0. -1.
        -12    1    6    6    0    0 -0.22839943414E+02 -0.33123759619E+02 -0.97702542547E+02  0.10566282831E+03  0.00000000000E+00 0.  1.
</event>
<event>
12    1  0.1053566E+000  0.2317486E+03  0.7818608E-02  0.1126024E+00
         21   -1    0    0  501  502  0.00000000000E+00  0.00000000000E+00  0.15241009325E+03  0.15241009325E+03  0.00000000000E+00 0.  1.
         21   -1    0    0  502  503 -0.00000000000E+00 -0.00000000000E+00 -0.15417305199E+04  0.15417305199E+04  0.00000000000E+00 0.  1.
         -6    2    1    2    0  503 -0.53636472443E+02  0.13927391097E+03  0.52148619192E+02  0.23416102131E+03  0.17273624971E+03 0.  0.
        -24    2    3    3    0    0 -0.82246932057E+02  0.41099428297E+02  0.49472562211E+02  0.13175966034E+03  0.80370099179E+02 0.  0.
          6    2    1    2  501    0  0.53636472443E+02 -0.13927391097E+03 -0.14414690459E+04  0.14599795918E+04  0.17729440207E+03 0.  0.
         24    2    5    5    0    0 -0.13310359421E+02 -0.79117565329E+02 -0.43635064285E+03  0.45082858319E+03  0.80048567097E+02 0.  0.
          5    1    5    5  501    0  0.66946831865E+02 -0.60156345645E+02 -0.10051184030E+04  0.10091510087E+04  0.47000000000E+01 0. -1.
        -13    1    6    6    0    0 -0.20462858861E+02 -0.65694927285E+02 -0.42796398868E+03  0.43346018003E+03  0.00000000000E+00 0.  1.
         14    1    6    6    0    0  0.71524994396E+01 -0.13422638044E+02 -0.83866541749E+01  0.17368403166E+02  0.00000000000E+00 0. -1.
         -5    1    3    3    0  503  0.28610459614E+02  0.98174482677E+02  0.26760569807E+01  0.10240136097E+03  0.47000000000E+01 0.  1.
         11    1    4    4    0    0 -0.41601603511E+02  0.52688782637E+02  0.58538070508E+00  0.67135265703E+02  0.00000000000E+00 0. -1.
        -12    1    4    4    0    0 -0.40645328547E+02 -0.11589354340E+02  0.48887181506E+02  0.64624394638E+02  0.00000000000E+00 0.  1.
</event>
<event>
12    1  0.1050869E+000  0.2720396E+03  0.7818608E-02  0.1100197E+00
         21   -1    0    0  501  502  0.00000000000E+00  0.00000000000E+00  0.43242552619E+03  0.43242552619E+03  0.00000000000E+00 0. -1.
         21   -1    0    0  502  503 -0.00000000000E+00 -0.00000000000E+00 -0.17382600739E+03  0.17382600739E+03  0.00000000000E+00 0. -1.
         -6    2    1    2    0  503 -0.12659967745E+03  0.16815642888E+03  0.16922308578E+03  0.31990615464E+03  0.17146262599E+03 0.  0.
        -24    2    3    3    0    0 -0.41349467335E+02  0.10531354669E+03  0.24139901726E+02  0.14021740579E+03  0.79230451638E+02 0.  0.
          6    2    1    2  501    0  0.12659967745E+03 -0.16815642888E+03  0.89376433017E+02  0.28634537894E+03  0.17234113368E+03 0.  0.
         24    2    5    5    0    0  0.13211235077E+03 -0.68516175863E+02  0.34652362951E+02  0.17243583837E+03  0.79907399634E+02 0.  0.
          5    1    5    5  501    0 -0.55126733145E+01 -0.99640253020E+02  0.54724070065E+02  0.11390954057E+03  0.47000000000E+01 0. -1.
        -11    1    6    6    0    0  0.23057352406E+02 -0.45210920058E+02 -0.11010684804E+02  0.51931724142E+02  0.00000000000E+00 0.  1.
         12    1    6    6    0    0  0.10905499836E+03 -0.23305255804E+02  0.45663047755E+02  0.12050411423E+03  0.00000000000E+00 0. -1.
         -5    1    3    3    0  503 -0.85250210117E+02  0.62842882194E+02  0.14508318405E+03  0.17968874885E+03  0.47000000000E+01 0.  1.
         13    1    4    4    0    0  0.57548273684E+01  0.85372005895E+02  0.53816377692E+01  0.85734820544E+02  0.00000000000E+00 0. -1.
        -14    1    4    4    0    0 -0.47104294704E+02  0.19941540794E+02  0.18758263956E+02  0.54482585249E+02  0.00000000000E+00 0.  1.
</event>
<event>
12    1  0.1050869E+000  0.2487480E+03  0.7818608E-02  0.1114320E+00
         21   -1    0    0  501  502  0.00000000000E+00  0.00000000000E+00  0.44822104121E+02  0.44822104121E+02  0.00000000000E+00 0. -1.
         21   -1    0    0  502  503 -0.00000000000E+00 -0.00000000000E+00 -0.13933814859E+04  0.13933814859E+04  0.00000000000E+00 0. -1.
         -6    2    1    2    0  503 -0.68312804042E+02  0.16414749940E+03 -0.58495173419E+03  0.63510198485E+03  0.17197371620E+03 0.  0.
        -24    2    3    3    0    0 -0.10808775737E+03  0.14241022902E+03 -0.40908365620E+03  0.45342582600E+03  0.79258471430E+02 0.  0.
          6    2    1    2  501    0  0.68312804042E+02 -0.16414749940E+03 -0.76360764760E+03  0.80310160519E+03  0.17396697397E+03 0.  0.
         24    2    5    5    0    0  0.10669406927E+03 -0.77511136177E+02 -0.43369040462E+03  0.45981388596E+03  0.77135219061E+02 0.  0.
          5    1    5    5  501    0 -0.38381265233E+02 -0.86636363221E+02 -0.32991724298E+03  0.34328771922E+03  0.47000000000E+01 0. -1.
        -11    1    6    6    0    0  0.62724875043E+01 -0.29598421007E+02 -0.36898985394E+02  0.47717352700E+02  0.00000000000E+00 0.  1.
         12    1    6    6    0    0  0.10042158177E+03 -0.47912715171E+02 -0.39679141922E+03  0.41209653326E+03  0.00000000000E+00 0. -1.
         -5    1    3    3    0  503  0.39774953323E+02  0.21737270381E+02 -0.17586807800E+03  0.18167615885E+03  0.47000000000E+01 0.  1.
         11    1    4    4    0    0 -0.26527171103E+02  0.18087405798E+02 -0.16121124854E+03  0.16437734550E+03  0.00000000000E+00 0. -1.
        -12    1    4    4    0    0 -0.81560586262E+02  0.12432282322E+03 -0.24787240765E+03  0.28904848050E+03  0.00000000000E+00 0.  1.
</event>
<event>
12    1  0.1050869E+000  0.2160526E+03  0.7818608E-02  0.1136983E+00
         21   -1    0    0  501  502  0.00000000000E+00  0.00000000000E+00  0.57566836913E+02  0.57566836913E+02  0.00000000000E+00 0.  1.
         21   -1    0    0  502  503 -0.00000000000E+00 -0.00000000000E+00 -0.88019323845E+03  0.88019323845E+03  0.00000000000E+00 0. -1.
         -6    2    1    2    0  503  0.12862190481E+03  0.11979226008E+02 -0.54459998266E+03  0.58565582145E+03  0.17238475520E+03 0.  0.
        -24    2    3    3    0    0  0.13893350385E+03 -0.18440986903E+02 -0.32006338778E+03  0.35878473279E+03  0.81506587435E+02 0.  0.
          6    2    1    2  501    0 -0.12862190481E+03 -0.11979226008E+02 -0.27802641888E+03  0.35210425392E+03  0.17318088746E+03 0.  0.
         24    2    5    5    0    0 -0.51632044046E+01 -0.23764883688E+02 -0.65606669389E+02  0.10608557088E+03  0.79740108497E+02 0.  0.
          5    1    5    5  501    0 -0.12345870041E+03  0.11785657680E+02 -0.21241974949E+03  0.24601868304E+03  0.47000000000E+01 0. -1.
        -11    1    6    6    0    0 -0.11878824508E+01 -0.47291443426E+02 -0.67190142600E+02  0.82173030543E+02  0.00000000000E+00 0.  1.
         12    1    6    6    0    0 -0.39753219538E+01  0.23526559738E+02  0.15834732104E+01  0.23912540332E+02  0.00000000000E+00 0. -1.
         -5    1    3    3    0  503 -0.10311599034E+02  0.30420212911E+02 -0.22453659488E+03  0.22687108866E+03  0.47000000000E+01 0.  1.
         13    1    4    4    0    0 -0.29092909578E+01  0.15650717621E+02 -0.38830905897E+02  0.41967227556E+02  0.00000000000E+00 0. -1.
        -14    1    4    4    0    0  0.14184279481E+03 -0.34091704524E+02 -0.28123248188E+03  0.31681750523E+03  0.00000000000E+00 0.  1.
</event>
<event>
12    1  0.1050869E+000  0.2561957E+03  0.7818608E-02  0.1109788E+00
         21   -1    0    0  501  502  0.00000000000E+00  0.00000000000E+00  0.40939289464E+03  0.40939289464E+03  0.00000000000E+00 0. -1.
         21   -1    0    0  502  503 -0.00000000000E+00 -0.00000000000E+00 -0.19911843136E+03  0.19911843136E+03  0.00000000000E+00 0. -1.
         -6    2    1    2    0  503 -0.84299189650E+02  0.16731095124E+03  0.24141712988E+03  0.35042969870E+03  0.17152094727E+03 0.  0.
        -24    2    3    3    0    0  0.47844739381E+01  0.13733114205E+03  0.15881967906E+03  0.22521341798E+03  0.81330556449E+02 0.  0.
          6    2    1    2  501    0  0.84299189650E+02 -0.16731095124E+03 -0.31142666597E+02  0.25808162730E+03  0.17474825575E+03 0.  0.
         24    2    5    5    0    0  0.63290036298E+02 -0.10574793568E+03 -0.88401876313E+02  0.17129397549E+03  0.79614569696E+02 0.  0.
          5    1    5    5  501    0  0.21009153352E+02 -0.61563015558E+02  0.57259209716E+02  0.86787651809E+02  0.47000000000E+01 0. -1.
        -11    1    6    6    0    0  0.43843286367E+01 -0.23983414634E+02  0.13591599597E+02  0.27913403496E+02  0.00000000000E+00 0.  1.
         12    1    6    6    0    0  0.58905707661E+02 -0.81764521046E+02 -0.10199347591E+03  0.14338057199E+03  0.00000000000E+00 0. -1.
         -5    1    3    3    0  503 -0.89083663588E+02  0.29979809190E+02  0.82597450817E+02  0.12521628073E+03  0.47000000000E+01 0.  1.
         13    1    4    4    0    0  0.15467839015E+02 -0.54131432758E+01  0.19377557206E+02  0.25378059169E+02  0.00000000000E+00 0. -1.
        -14    1    4    4    0    0 -0.10683365077E+02  0.14274428532E+03  0.13944212186E+03  0.19983535881E+03  0.00000000000E+00 0.  1.
</event>
<event>
12    1  0.1050869E+000  0.1976024E+03  0.7818608E-02  0.1151948E+00
         21   -1    0    0  503  502  0.00000000000E+00  0.00000000000E+00  0.12383549702E+03  0.12383549702E+03  0.00000000000E+00 0. -1.
         21   -1    0    0  501  503 -0.00000000000E+00 -0.00000000000E+00 -0.44308617157E+03  0.44308617157E+03  0.00000000000E+00 0. -1.
          6    2    1    2  501    0  0.68981371953E+02 -0.66231164807E+02 -0.64256302360E+01  0.19691326279E+03  0.17201321888E+03 0.  0.
         24    2    3    3    0    0 -0.81860505880E+00 -0.15866158698E+02 -0.54589660588E+02  0.98168468234E+02  0.80028819847E+02 0.  0.
         -6    2    1    2    0  502 -0.68981371953E+02  0.66231164807E+02 -0.31282504431E+03  0.37000840580E+03  0.17292112407E+03 0.  0.
        -24    2    5    5    0    0  0.16374774399E+02  0.26015546924E+01 -0.81897297890E+02  0.11567768987E+03  0.79995369913E+02 0.  0.
          5    1    3    3  501    0  0.69799977012E+02 -0.50365006109E+02  0.48164030353E+02  0.98744794552E+02  0.47000000000E+01 0. -1.
        -13    1    4    4    0    0  0.38273653917E+02  0.17083337286E+01 -0.20827746254E+02  0.43607178335E+02  0.00000000000E+00 0.  1.
         14    1    4    4    0    0 -0.39092258976E+02 -0.17574492426E+02 -0.33761914335E+02  0.54561289899E+02  0.00000000000E+00 0. -1.
         -5    1    5    5    0  502 -0.85356146352E+02  0.63629610114E+02 -0.23092774642E+03  0.25433071594E+03  0.47000000000E+01 0.  1.
         11    1    6    6    0    0  0.24698884997E+02 -0.18125480251E+02 -0.87450593012E+02  0.92661611105E+02  0.00000000000E+00 0. -1.
        -12    1    6    6    0    0 -0.83241105975E+01  0.20727034943E+02  0.55532951226E+01  0.23016078760E+02  0.00000000000E+00 0.  1.
</event>
<event>
12    1  0.1050869E+000  0.2462369E+03  0.7818608E-02  0.1115792E+00
         21   -1    0    0  503  502  0.00000000000E+00  0.00000000000E+00  0.55359818896E+03  0.55359818896E+03  0.00000000000E+00 0.  1.
         21   -1    0    0  501  503 -0.00000000000E+00 -0.00000000000E+00 -0.11320105161E+03  0.11320105161E+03  0.00000000000E+00 0.  1.
          6    2    1    2  501    0  0.17533312058E+03 -0.17460014889E+01  0.28241836343E+03  0.37469022109E+03  0.17288110969E+03 0.  0.
         24    2    3    3    0    0  0.29852821071E+02 -0.12662445315E+02  0.48006954224E+02  0.98548074627E+02  0.79721558638E+02 0.  0.
         -6    2    1    2    0  502 -0.17533312058E+03  0.17460014889E+01  0.15797877393E+03  0.29210901948E+03  0.17212098813E+03 0.  0.
        -24    2    5    5    0    0 -0.85584527379E+02 -0.16739094370E+01  0.74481383055E+01  0.11675774907E+03  0.79053044875E+02 0.  0.
          5    1    3    3  501    0  0.14548029951E+03  0.10916443826E+02  0.23441140920E+03  0.27614214647E+03  0.47000000000E+01 0. -1.
        -11    1    4    4    0    0  0.84391135974E+01  0.29461101640E+02 -0.74275709889E+00  0.30654964300E+02  0.00000000000E+00 0.  1.
         12    1    4    4    0    0  0.21413707474E+02 -0.42123546954E+02  0.48749711323E+02  0.67893110327E+02  0.00000000000E+00 0. -1.
         -5    1    5    5    0  502 -0.89748593202E+02  0.34199109259E+01  0.15053063563E+03  0.17535127041E+03  0.47000000000E+01 0.  1.
         13    1    6    6    0    0 -0.15254417185E+02  0.31827823219E+02  0.15286158348E+02  0.38462633966E+02  0.00000000000E+00 0. -1.
        -14    1    6    6    0    0 -0.70330110194E+02 -0.33501732656E+02 -0.78380200424E+01  0.78295115103E+02  0.00000000000E+00 0.  1.
</event>
<event>
12    1  0.1050869E+000  0.2686913E+03  0.7818608E-02  0.1102751E+00
         21   -1    0    0  503  502  0.00000000000E+00  0.00000000000E+00  0.43739884465E+02  0.43739884465E+02  0.00000000000E+00 0.  1.
         21   -1    0    0  501  503 -0.00000000000E+00 -0.00000000000E+00 -0.16957341071E+04  0.16957341071E+04  0.00000000000E+00 0.  1.
          6    2    1    2  501    0  0.16270352358E+03 -0.11701396604E+03 -0.64988061732E+03  0.70323526711E+03  0.17897016318E+03 0.  0.
         24    2    3    3    0    0  0.22889320278E+02 -0.63323275339E+02 -0.20294550214E+03  0.23185029822E+03  0.89632169253E+02 0.  0.
         -6    2    1    2    0  502 -0.16270352358E+03  0.11701396604E+03 -0.10021136053E+04  0.10362387244E+04  0.17144769250E+03 0.  0.
        -24    2    5    5    0    0 -0.19067985879E+03  0.98278907830E+02 -0.90192809280E+03  0.93044219967E+03  0.78935733851E+02 0.  0.
          5    1    3    3  501    0  0.13981420330E+03 -0.53690690699E+02 -0.44693511518E+03  0.47138496889E+03  0.47000000000E+01 0. -1.
        -11    1    4    4    0    0 -0.33836920682E+02 -0.20797154919E+02 -0.55521131867E+02  0.68264595053E+02  0.00000000000E+00 0.  1.
         12    1    4    4    0    0  0.56726240959E+02 -0.42526120420E+02 -0.14742437027E+03  0.16358570317E+03  0.00000000000E+00 0. -1.
         -5    1    5    5    0  502  0.27976335205E+02  0.18735058208E+02 -0.10018551250E+03  0.10579652476E+03  0.47000000000E+01 0.  1.
         11    1    6    6    0    0 -0.57235498610E+01  0.18139366733E+02 -0.17675447268E+03  0.17777496804E+03  0.00000000000E+00 0. -1.
        -12    1    6    6    0    0 -0.18495630893E+03  0.80139541097E+02 -0.72517362012E+03  0.75266723163E+03  0.00000000000E+00 0.  1.
</event>
<event>
12    1  0.1050869E+000  0.3797144E+03  0.7818608E-02  0.1051082E+00
         21   -1    0    0  501  502  0.00000000000E+00  0.00000000000E+00  0.38493819960E+03  0.38493819960E+03  0.00000000000E+00 0.  1.
         21   -1    0    0  502  503 -0.00000000000E+00 -0.00000000000E+00 -0.37495797777E+03  0.37495797777E+03  0.00000000000E+00 0.  1.
         -6    2    1    2    0  503 -0.15650990343E+03 -0.29975216863E+03  0.23037537033E+02  0.37995732790E+03  0.17172690657E+03 0.  0.
        -24    2    3    3    0    0 -0.15884401124E+03 -0.16315963612E+03  0.53123950659E+00  0.24142360844E+03  0.80203427199E+02 0.  0.
          6    2    1    2  501    0  0.15650990343E+03  0.29975216863E+03 -0.13057315205E+02  0.37993884948E+03  0.17273194084E+03 0.  0.
         24    2    5    5    0    0  0.14805780894E+03  0.30886812165E+03  0.10911004336E+02  0.35253248448E+03  0.82701095765E+02 0.  0.
          5    1    5    5  501    0  0.84520944930E+01 -0.91159530125E+01 -0.23968319541E+02  0.27406364996E+02  0.47000000000E+01 0. -1.
        -11    1    6    6    0    0  0.17287567264E+02  0.11860088499E+03  0.19846856945E+02  0.12148632694E+03  0.00000000000E+00 0.  1.
         12    1    6    6    0    0  0.13077024168E+03  0.19026723665E+03 -0.89358526089E+01  0.23104615754E+03  0.00000000000E+00 0. -1.
         -5    1    3    3    0  503  0.23341078027E+01 -0.13659253251E+03  0.22506297526E+02  0.13853371945E+03  0.47000000000E+01 0.  1.
         11    1    4    4    0    0 -0.95303213846E+02 -0.84460784995E+02  0.39039561808E+02  0.13319314606E+03  0.00000000000E+00 0. -1.
        -12    1    4    4    0    0 -0.63540797390E+02 -0.78698851126E+02 -0.38508322301E+02  0.10823046238E+03  0.00000000000E+00 0.  1.
</event>
<event>
12    1  0.1050869E+000  0.1833136E+03  0.7818608E-02  0.1164807E+00
         21   -1    0    0  503  502  0.00000000000E+00  0.00000000000E+00  0.10921540800E+03  0.10921540800E+03  0.00000000000E+00 0.  1.
         21   -1    0    0  501  503 -0.00000000000E+00 -0.00000000000E+00 -0.33399190457E+03  0.33399190457E+03  0.00000000000E+00 0.  1.
          6    2    1    2  501    0  0.30518313745E+02  0.53941582886E+02 -0.17622204334E+03  0.25427954955E+03  0.17251903931E+03 0.  0.
         24    2    3    3    0    0  0.62827042439E+02  0.66567671110E+02 -0.18194755421E+03  0.21880923058E+03  0.79962958939E+02 0.  0.
         -6    2    1    2    0  502 -0.30518313745E+02 -0.53941582886E+02 -0.48554453230E+02  0.18892776302E+03  0.17174138369E+03 0.  0.
        -24    2    5    5    0    0 -0.18135621815E+01 -0.98875958411E+02 -0.26269833304E+02  0.13094711839E+03  0.81714744777E+02 0.  0.
          5    1    3    3  501    0 -0.32308728694E+02 -0.12626088225E+02  0.57255108756E+01  0.35470318979E+02  0.47000000000E+01 0. -1.
        -13    1    4    4    0    0 -0.49561640909E+01 -0.18178728390E+01  0.57804733499E+01  0.78282882103E+01  0.00000000000E+00 0.  1.
         14    1    4    4    0    0  0.67783206530E+02  0.68385543949E+02 -0.18772802756E+03  0.21098094237E+03  0.00000000000E+00 0. -1.
         -5    1    5    5    0  502 -0.28704751563E+02  0.44934375525E+02 -0.22284619926E+02  0.57980644627E+02  0.47000000000E+01 0.  1.
         13    1    6    6    0    0  0.36165999432E+02 -0.30499337751E+02  0.30697230705E+01  0.47408989843E+02  0.00000000000E+00 0. -1.
        -14    1    6    6    0    0 -0.37979561614E+02 -0.68376620660E+02 -0.29339556375E+02  0.83538128549E+02  0.00000000000E+00 0.  1.
</event>
<event>
12    1  0.1050869E+000  0.4462937E+03  0.7818608E-02  0.1029085E+00
         21   -1    0    0  501  502  0.00000000000E+00  0.00000000000E+00  0.14777284073E+03  0.14777284073E+03  0.00000000000E+00 0. -1.
         21   -1    0    0  502  503 -0.00000000000E+00 -0.00000000000E+00 -0.13600845827E+04  0.13600845827E+04  0.00000000000E+00 0. -1.
         -6    2    1    2    0  503  0.37705360479E+03 -0.16580025926E+03 -0.70483799515E+03  0.83425097163E+03  0.17181076043E+03 0.  0.
        -24    2    3    3    0    0  0.18264433966E+03 -0.14649163270E+03 -0.45475483462E+03  0.51686876890E+03  0.74381525871E+02 0.  0.
          6    2    1    2  501    0 -0.37705360479E+03  0.16580025926E+03 -0.50747374678E+03  0.67360645176E+03  0.16296288326E+03 0.  0.
         24    2    5    5    0    0 -0.12750038217E+03  0.78828191083E+02 -0.13164810047E+03  0.21414159131E+03  0.77814957475E+02 0.  0.
          5    1    5    5  501    0 -0.24955322262E+03  0.86972068179E+02 -0.37582564631E+03  0.45946486045E+03  0.47000000000E+01 0. -1.
        -11    1    6    6    0    0 -0.10682998932E+03  0.55047479161E+02 -0.13693522120E+03  0.18219255304E+03  0.00000000000E+00 0.  1.
         12    1    6    6    0    0 -0.20670392852E+02  0.23780711923E+02  0.52871207315E+01  0.31949038261E+02  0.00000000000E+00 0. -1.
         -5    1    3    3    0  503  0.19440926513E+03 -0.19308626558E+02 -0.25008316053E+03  0.31738220273E+03  0.47000000000E+01 0.  1.
         11    1    4    4    0    0  0.74930612388E+02 -0.10163040737E+03 -0.19785807554E+03  0.23471504943E+03  0.00000000000E+00 0. -1.
        -12    1    4    4    0    0  0.10771372727E+03 -0.44861225334E+02 -0.25689675909E+03  0.28215371947E+03  0.00000000000E+00 0.  1.
</event>
<event>
12    1  0.1050869E+000  0.1864045E+03  0.7818608E-02  0.1163007E+00
         21   -1    0    0  503  502  0.00000000000E+00  0.00000000000E+00  0.52893419531E+02  0.52893419531E+02  0.00000000000E+00 0. -1.
         21   -1    0    0  501  503 -0.00000000000E+00 -0.00000000000E+00 -0.65390262128E+03  0.65390262128E+03  0.00000000000E+00 0. -1.
          6    2    1    2  501    0  0.67397030716E+02 -0.21600722885E+02 -0.35971919588E+03  0.40514754301E+03  0.17244616766E+03 0.  0.
         24    2    3    3    0    0  0.91009422184E+02  0.25559150619E+02 -0.18592627699E+03  0.22346741928E+03  0.80206744726E+02 0.  0.
         -6    2    1    2    0  502 -0.67397030716E+02  0.21600722885E+02 -0.24129000587E+03  0.30164849780E+03  0.16661932156E+03 0.  0.
        -24    2    5    5    0    0 -0.17004934081E+02  0.36813455363E+01 -0.40829955511E+02  0.94123103508E+02  0.83002128039E+02 0.  0.
          5    1    3    3  501    0 -0.23612391467E+02 -0.47159873504E+02 -0.17379291889E+03  0.18168012372E+03  0.47000000000E+01 0. -1.
        -11    1    4    4    0    0  0.24896446506E+02 -0.24574237356E+02 -0.27013463300E+02  0.44197888974E+02  0.00000000000E+00 0.  1.
         12    1    4    4    0    0  0.66112975677E+02  0.50133387975E+02 -0.15891281369E+03  0.17926953031E+03  0.00000000000E+00 0. -1.
         -5    1    5    5    0  502 -0.50392096635E+02  0.17919377349E+02 -0.20046005036E+03  0.20752539429E+03  0.47000000000E+01 0.  1.
         13    1    6    6    0    0  0.27408316937E+02 -0.13833000062E+02  0.89975208603E+00  0.30714447445E+02  0.00000000000E+00 0. -1.
        -14    1    6    6    0    0 -0.44413251018E+02  0.17514345598E+02 -0.41729707597E+02  0.63408656064E+02  0.00000000000E+00 0.  1.
</event>
<event>
12    1  0.1050869E+000  0.2043682E+03  0.7818608E-02  0.1146224E+00
         21   -1    0    0  501  502  0.00000000000E+00  0.00000000000E+00  0.67104688519E+03  0.67104688519E+03  0.00000000000E+00 0.  1.
         21   -1    0    0  502  503 -0.00000000000E+00 -0.00000000000E+00 -0.71942654579E+02  0.71942654579E+02  0.00000000000E+00 0.  1.
         -6    2    1    2    0  503  0.86585401489E+02 -0.67458152734E+02  0.16225752591E+03  0.26094804392E+03  0.17239124917E+03 0.  0.
        -24    2    3    3    0    0  0.97766145824E+02 -0.46785096059E+02  0.46276240971E+02  0.14251606863E+03  0.80139096929E+02 0.  0.
          6    2    1    2  501    0 -0.86585401489E+02  0.67458152734E+02  0.43684670471E+03  0.48204149585E+03  0.17170127020E+03 0.  0.
         24    2    5    5    0    0 -0.39558234855E+02 -0.25477746101E+02  0.13304903565E+03  0.16085035429E+03  0.77180445036E+02 0.  0.
          5    1    5    5  501    0 -0.47027166634E+02  0.92935898836E+02  0.30379766906E+03  0.32119114157E+03  0.47000000000E+01 0. -1.
        -11    1    6    6    0    0 -0.62822761436E+02 -0.13774292426E+02  0.96704704746E+02  0.11613884107E+03  0.00000000000E+00 0.  1.
         12    1    6    6    0    0  0.23264526581E+02 -0.11703453675E+02  0.36344330905E+02  0.44711513214E+02  0.00000000000E+00 0. -1.
         -5    1    3    3    0  503 -0.11180744335E+02 -0.20673056676E+02  0.11598128493E+03  0.11843197529E+03  0.47000000000E+01 0.  1.
         13    1    4    4    0    0  0.80505235637E+02 -0.38339947796E+02  0.69006433282E+02  0.11275164033E+03  0.00000000000E+00 0. -1.
        -14    1    4    4    0    0  0.17260910187E+02 -0.84451482627E+01 -0.22730192311E+02  0.29764428302E+02  0.00000000000E+00 0.  1.
</event>
<event>
12    1  0.1050869E+000  0.3027439E+03  0.7818608E-02  0.1084635E+00
         21   -1    0    0  501  502  0.00000000000E+00  0.00000000000E+00  0.13248847345E+03  0.13248847345E+03  0.00000000000E+00 0.  1.
         21   -1    0    0  502  503 -0.00000000000E+00 -0.00000000000E+00 -0.81334801587E+03  0.81334801587E+03  0.00000000000E+00 0.  1.
         -6    2    1    2    0  503  0.13298336043E+03  0.20774860812E+03 -0.53622036251E+03  0.61578091996E+03  0.17552722264E+03 0.  0.
        -24    2    3    3    0    0  0.10487186774E+02  0.12557244888E+03 -0.33492937344E+03  0.36618447369E+03  0.77685021577E+02 0.  0.
          6    2    1    2  501    0 -0.13298336043E+03 -0.20774860812E+03 -0.14463917991E+03  0.33005556936E+03  0.16483970449E+03 0.  0.
         24    2    5    5    0    0 -0.10084621745E+03 -0.56458316812E+02 -0.54796097053E+02  0.15112704246E+03  0.80493910320E+02 0.  0.
          5    1    5    5  501    0 -0.32137142976E+02 -0.15129029131E+03 -0.89843082858E+02  0.17892852690E+03  0.47000000000E+01 0. -1.
        -11    1    6    6    0    0 -0.35857243385E+02  0.15818921670E+02  0.70665108237E+00  0.39197953285E+02  0.00000000000E+00 0.  1.
         12    1    6    6    0    0 -0.64988974069E+02 -0.72277238481E+02 -0.55502748135E+02  0.11192908918E+03  0.00000000000E+00 0. -1.
         -5    1    3    3    0  503  0.12249617366E+03  0.82176159236E+02 -0.20129098907E+03  0.24959644627E+03  0.47000000000E+01 0.  1.
         13    1    4    4    0    0 -0.10809534320E+02  0.44308277130E+02 -0.44013663451E+02  0.63381953463E+02  0.00000000000E+00 0. -1.
        -14    1    4    4    0    0  0.21296721094E+02  0.81264171750E+02 -0.29091570999E+03  0.30280252023E+03  0.00000000000E+00 0.  1.
</event>
<event>
12    1  0.1050869E+000  0.1889006E+03  0.7818608E-02  0.1159984E+00
         21   -1    0    0  501  502  0.00000000000E+00  0.00000000000E+00  0.50672617976E+02  0.50672617976E+02  0.00000000000E+00 0. -1.
         21   -1    0    0  502  503 -0.00000000000E+00 -0.00000000000E+00 -0.97082136215E+03  0.97082136215E+03  0.00000000000E+00 0. -1.
         -6    2    1    2    0  503  0.72623699183E+02 -0.18578868659E+02 -0.19017076412E+03  0.26804545016E+03  0.17338992988E+03 0.  0.
        -24    2    3    3    0    0  0.60170887483E+02 -0.17349921554E+02 -0.21630187156E+03  0.23869400034E+03  0.79162937513E+02 0.  0.
          6    2    1    2  501    0 -0.72623699183E+02  0.18578868659E+02 -0.72997798005E+03  0.75344852997E+03  0.17087264233E+03 0.  0.
         24    2    5    5    0    0 -0.82121170198E+02 -0.43377757137E+02 -0.46369158105E+03  0.47984414087E+03  0.81332655093E+02 0.  0.
          5    1    5    5  501    0  0.94974710153E+01  0.61956625796E+02 -0.26628639900E+03  0.27360438909E+03  0.47000000000E+01 0. -1.
        -11    1    6    6    0    0 -0.86618173612E+01  0.14332359445E+02 -0.18822733912E+03  0.18897083055E+03  0.00000000000E+00 0.  1.
         12    1    6    6    0    0 -0.73459352837E+02 -0.57710116582E+02 -0.27546424193E+03  0.29087331032E+03  0.00000000000E+00 0. -1.
         -5    1    3    3    0  503  0.12452811700E+02 -0.12289471058E+01  0.26131107448E+02  0.29351449822E+02  0.47000000000E+01 0.  1.
         13    1    4    4    0    0  0.26794568464E+02 -0.34273341612E+02 -0.18457627989E+03  0.18963389450E+03  0.00000000000E+00 0. -1.
        -14    1    4    4    0    0  0.33376319020E+02  0.16923420058E+02 -0.31725591675E+02  0.49060105839E+02  0.00000000000E+00 0.  1.
</event>
<event>
12    1  0.1050869E+000  0.2009291E+03  0.7818608E-02  0.1149644E+00
         21   -1    0    0  503  502  0.00000000000E+00  0.00000000000E+00  0.78253761238E+03  0.78253761238E+03  0.00000000000E+00 0. -1.
         21   -1    0    0  501  503 -0.00000000000E+00 -0.00000000000E+00 -0.15468772921E+03  0.15468772921E+03  0.00000000000E+00 0. -1.
          6    2    1    2  501    0 -0.10396328931E+03  0.32340573115E+01  0.69886171756E+03  0.72717274942E+03  0.17191184535E+03 0.  0.
         24    2    3    3    0    0 -0.83549913351E+02  0.64935428550E+02  0.48544849205E+03  0.50403364493E+03  0.84808483539E+02 0.  0.
         -6    2    1    2    0  502  0.10396328931E+03 -0.32340573115E+01 -0.71011834398E+02  0.21005259217E+03  0.16810885224E+03 0.  0.
        -24    2    5    5    0    0  0.74836799610E+02  0.57341238299E+02 -0.70105902494E+02  0.14266839853E+03  0.80937446141E+02 0.  0.
          5    1    3    3  501    0 -0.20413375956E+02 -0.61701371238E+02  0.21341322551E+03  0.22313910449E+03  0.47000000000E+01 0. -1.
        -13    1    4    4    0    0 -0.88866820225E+02  0.25292552812E+02  0.28397618993E+03  0.29862937131E+03  0.00000000000E+00 0.  1.
         14    1    4    4    0    0  0.53169068743E+01  0.39642875738E+02  0.20147230213E+03  0.20540427362E+03  0.00000000000E+00 0. -1.
         -5    1    5    5    0  502  0.29126489697E+02 -0.60575295610E+02 -0.90593190442E+00  0.67384193643E+02  0.47000000000E+01 0.  1.
         13    1    6    6    0    0  0.24682476233E+02 -0.12921282501E+02  0.49251894739E+01  0.28292077793E+02  0.00000000000E+00 0. -1.
        -14    1    6    6    0    0  0.50154323377E+02  0.70262520800E+02 -0.75031091967E+02  0.11437632073E+03  0.00000000000E+00 0.  1.
</event>
<event>
12    1  0.1050869E+000  0.1817381E+03  0.7818608E-02  0.1167788E+00
         21   -1    0    0  503  502  0.00000000000E+00  0.00000000000E+00  0.10490806918E+04  0.10490806918E+04  0.00000000000E+00 0. -1.
         21   -1    0    0  501  503 -0.00000000000E+00 -0.00000000000E+00 -0.30989134966E+02  0.30989134966E+02  0.00000000000E+00 0. -1.
          6    2    1    2  501    0  0.11720310029E+02  0.74996045367E+01  0.42008869497E+03  0.45506089941E+03  0.17439122913E+03 0.  0.
         24    2    3    3    0    0  0.46394070847E+02  0.19857301888E+02  0.40395535193E+03  0.41459662961E+03  0.78509341366E+02 0.  0.
         -6    2    1    2    0  502 -0.11720310029E+02 -0.74996045367E+01  0.59800286188E+03  0.62500892737E+03  0.18120465430E+03 0.  0.
        -24    2    5    5    0    0  0.15990920560E+01 -0.72720196378E+02  0.44765698184E+03  0.46051848474E+03  0.79935707533E+02 0.  0.
          5    1    3    3  501    0 -0.34673760818E+02 -0.12357697351E+02  0.16133343039E+02  0.40464269803E+02  0.47000000000E+01 0. -1.
        -13    1    4    4    0    0 -0.12230186635E+02  0.10478443475E+02  0.23430611407E+03  0.23485895839E+03  0.00000000000E+00 0.  1.
         14    1    4    4    0    0  0.58624257482E+02  0.93788584121E+01  0.16964923785E+03  0.17973767122E+03  0.00000000000E+00 0. -1.
         -5    1    5    5    0  502 -0.13319402085E+02  0.65220591842E+02  0.15034588004E+03  0.16449044263E+03  0.47000000000E+01 0.  1.
         13    1    6    6    0    0  0.18395864593E+02  0.73173305899E+01  0.38760019667E+02  0.43523445241E+02  0.00000000000E+00 0. -1.
        -14    1    6    6    0    0 -0.16796772537E+02 -0.80037526968E+02  0.40889696218E+03  0.41699503950E+03  0.00000000000E+00 0.  1.
</event>
<event>
12    1  0.1050869E+000  0.2586113E+03  0.7818608E-02  0.1108150E+00
         21   -1    0    0  503  502  0.00000000000E+00  0.00000000000E+00  0.32371441821E+03  0.32371441821E+03  0.00000000000E+00 0. -1.
         21   -1    0    0  501  503 -0.00000000000E+00 -0.00000000000E+00 -0.21708305502E+03  0.21708305502E+03  0.00000000000E+00 0. -1.
          6    2    1    2  501    0  0.18905555284E+03 -0.22256260920E+02  0.11532448774E+03  0.28315993105E+03  0.17504989537E+03 0.  0.
         24    2    3    3    0    0  0.69970015805E+02  0.27676911728E+02  0.10976074192E+03  0.15382419689E+03  0.77153409050E+02 0.  0.
         -6    2    1    2    0  502 -0.18905555284E+03  0.22256260920E+02 -0.86931245486E+01  0.25763754219E+03  0.17339028093E+03 0.  0.
        -24    2    5    5    0    0 -0.15312406215E+03 -0.66759086220E+01 -0.72481627576E+02  0.17877560221E+03  0.56706114723E+02 0.  0.
          5    1    3    3  501    0  0.11908553703E+03 -0.49933172648E+02  0.55637458204E+01  0.12933573415E+03  0.47000000000E+01 0. -1.
        -13    1    4    4    0    0  0.23179001610E+02  0.45669148060E+02  0.29241804311E+02  0.58974743065E+02  0.00000000000E+00 0.  1.
         14    1    4    4    0    0  0.46791014195E+02 -0.17992236332E+02  0.80518937610E+02  0.94849453828E+02  0.00000000000E+00 0. -1.
         -5    1    5    5    0  502 -0.35931490691E+02  0.28932169542E+02  0.63788503028E+02  0.78861939972E+02  0.47000000000E+01 0.  1.
         11    1    6    6    0    0 -0.78829044722E+02 -0.10563542520E+02 -0.73070656507E+01  0.79868641723E+02  0.00000000000E+00 0. -1.
        -12    1    6    6    0    0 -0.74295017425E+02  0.38876338978E+01 -0.65174561926E+02  0.98906960492E+02  0.00000000000E+00 0.  1.
</event>
<event>
12    1  0.1050869E+000  0.3042914E+03  0.7818608E-02  0.1083239E+00
         21   -1    0    0  503  502  0.00000000000E+00  0.00000000000E+00  0.37486925578E+03  0.37486925578E+03  0.00000000000E+00 0. -1.
         21   -1    0    0  501  503 -0.00000000000E+00 -0.00000000000E+00 -0.26935721478E+03  0.26935721478E+03  0.00000000000E+00 0. -1.
          6    2    1    2  501    0  0.19385517142E+02  0.25010017424E+03  0.14716058245E+03  0.33709801911E+03  0.17044923592E+03 0.  0.
         24    2    3    3    0    0  0.25126061096E+02  0.19938295436E+03  0.17537652318E+03  0.27858802382E+03  0.80433082117E+02 0.  0.
         -6    2    1    2    0  502 -0.19385517142E+02 -0.25010017424E+03 -0.41648541459E+02  0.30712845145E+03  0.17224224004E+03 0.  0.
        -24    2    5    5    0    0 -0.48967908352E+02 -0.11979541529E+03 -0.74132353892E+02  0.16953580577E+03  0.80610086045E+02 0.  0.
          5    1    3    3  501    0 -0.57405439544E+01  0.50717219877E+02 -0.28215940724E+02  0.58509995282E+02  0.47000000000E+01 0. -1.
        -13    1    4    4    0    0  0.54038458375E+02  0.13430134809E+03  0.12612469944E+03  0.19200116378E+03  0.00000000000E+00 0.  1.
         14    1    4    4    0    0 -0.28912397279E+02  0.65081606269E+02  0.49251823743E+02  0.86586860048E+02  0.00000000000E+00 0. -1.
         -5    1    5    5    0  502  0.29582391210E+02 -0.13030475895E+03  0.32483812434E+02  0.13759264568E+03  0.47000000000E+01 0.  1.
         11    1    6    6    0    0  0.51235973948E+01 -0.37027885774E+02 -0.58513313924E+02  0.69434310550E+02  0.00000000000E+00 0. -1.
        -12    1    6    6    0    0 -0.54091505747E+02 -0.82767529518E+02 -0.15619039968E+02  0.10010149522E+03  0.00000000000E+00 0.  1.
</event>
<event>
12    1  0.1050869E+000  0.1800961E+03  0.7818608E-02  0.1168267E+00
         21   -1    0    0  503  502  0.00000000000E+00  0.00000000000E+00  0.63773229198E+02  0.63773229198E+02  0.00000000000E+00 0.  1.
         21   -1    0    0  501  503 -0.00000000000E+00 -0.00000000000E+00 -0.52853380260E+03  0.52853380260E+03  0.00000000000E+00 0.  1.
          6    2    1    2  501    0 -0.48066862304E+02  0.31195098061E+01 -0.16480977931E+03  0.24244264234E+03  0.17116079246E+03 0.  0.
         24    2    3    3    0    0 -0.80743355050E+02 -0.22918476250E+02 -0.60900003333E+02  0.13034865749E+03  0.78976048042E+02 0.  0.
         -6    2    1    2    0  502  0.48066862304E+02 -0.31195098061E+01 -0.29995079409E+03  0.34986438946E+03  0.17353517667E+03 0.  0.
        -24    2    5    5    0    0 -0.35291872327E+02 -0.31554096782E+02 -0.14330768138E+03  0.17009687533E+03  0.78451757017E+02 0.  0.
          5    1    3    3  501    0  0.32676492747E+02  0.26037986056E+02 -0.10390977598E+03  0.11209398485E+03  0.47000000000E+01 0. -1.
        -11    1    4    4    0    0 -0.26625393606E+02 -0.13548065062E+02 -0.68662222868E+02  0.74879653450E+02  0.00000000000E+00 0.  1.
         12    1    4    4    0    0 -0.54117961444E+02 -0.93704111879E+01  0.77622195353E+01  0.55469004037E+02  0.00000000000E+00 0. -1.
         -5    1    5    5    0  502  0.83358734631E+02  0.28434586976E+02 -0.15664311271E+03  0.17976751413E+03  0.47000000000E+01 0.  1.
         13    1    6    6    0    0 -0.42405926389E+01 -0.28844379439E+02 -0.13461816673E+03  0.13773899834E+03  0.00000000000E+00 0. -1.
        -14    1    6    6    0    0 -0.31051279688E+02 -0.27097173430E+01 -0.86895146513E+01  0.32357876988E+02  0.00000000000E+00 0.  1.
</event>
<event>
12    1  0.1050869E+000  0.3562901E+03  0.7818608E-02  0.1060090E+00
         21   -1    0    0  501  502  0.00000000000E+00  0.00000000000E+00  0.34611141143E+03  0.34611141143E+03  0.00000000000E+00 0. -1.
         21   -1    0    0  502  503 -0.00000000000E+00 -0.00000000000E+00 -0.44477299030E+03  0.44477299030E+03  0.00000000000E+00 0.  1.
         -6    2    1    2    0  503 -0.12903992864E+03 -0.28379894923E+03  0.11658700371E+03  0.37462176290E+03  0.17191797182E+03 0.  0.
        -24    2    3    3    0    0 -0.95223500559E+02 -0.13975364876E+03  0.74128903922E+00  0.18664591603E+03  0.78978168262E+02 0.  0.
          6    2    1    2  501    0  0.12903992864E+03  0.28379894923E+03 -0.21524858258E+03  0.41626263884E+03  0.17248039142E+03 0.  0.
         24    2    5    5    0    0  0.10423420990E+03  0.19726660779E+03 -0.22318170706E+03  0.32577399722E+03  0.80868645593E+02 0.  0.
          5    1    5    5  501    0  0.24805718732E+02  0.86532341445E+02  0.79331244749E+01  0.90488641617E+02  0.47000000000E+01 0. -1.
        -11    1    6    6    0    0  0.77391397243E+02  0.19457928371E+03 -0.18780479678E+03  0.28128485155E+03  0.00000000000E+00 0.  1.
         12    1    6    6    0    0  0.26842812661E+02  0.26873240776E+01 -0.35376910280E+02  0.44489145679E+02  0.00000000000E+00 0. -1.
         -5    1    3    3    0  503 -0.33816428076E+02 -0.14404530047E+03  0.11584571467E+03  0.18797584686E+03  0.47000000000E+01 0.  1.
         11    1    4    4    0    0 -0.62007138884E+02 -0.31373329265E+02  0.18486703085E+02  0.71909173633E+02  0.00000000000E+00 0. -1.
        -12    1    4    4    0    0 -0.33216361676E+02 -0.10838031950E+03 -0.17745414046E+02  0.11473674240E+03  0.00000000000E+00 0.  1.
</event>
<event>
12    1  0.1050869E+000  0.3030114E+03  0.7818608E-02  0.1083866E+00
         21   -1    0    0  501  502  0.00000000000E+00  0.00000000000E+00  0.11694486563E+03  0.11694486563E+03  0.00000000000E+00 0.  1.
         21   -1    0    0  502  503 -0.00000000000E+00 -0.00000000000E+00 -0.81192868111E+03  0.81192868111E+03  0.00000000000E+00 0.  1.
         -6    2    1    2    0  503  0.76422549559E+02 -0.23572778793E+03 -0.43631914551E+03  0.53121589829E+03  0.17437871939E+03 0.  0.
        -24    2    3    3    0    0 -0.19590699564E+02 -0.15675821114E+03 -0.28041558580E+03  0.33175976779E+03  0.80465585774E+02 0.  0.
          6    2    1    2  501    0 -0.76422549559E+02  0.23572778793E+03 -0.25866466997E+03  0.39765764844E+03  0.17267367428E+03 0.  0.
         24    2    5    5    0    0 -0.10693385454E+03  0.11873073590E+03 -0.12943188339E+03  0.22061964958E+03  0.79928595925E+02 0.  0.
          5    1    5    5  501    0  0.30511304982E+02  0.11699705203E+03 -0.12923278658E+03  0.17703799886E+03  0.47000000000E+01 0. -1.
        -13    1    6    6    0    0 -0.46205414267E+02  0.51671122209E+01 -0.16496726363E+02  0.49333369406E+02  0.00000000000E+00 0.  1.
         14    1    6    6    0    0 -0.60728440274E+02  0.11356362368E+03 -0.11293515703E+03  0.17128628017E+03  0.00000000000E+00 0. -1.
         -5    1    3    3    0  503  0.96013249123E+02 -0.78969576794E+02 -0.15590355971E+03  0.19945613051E+03  0.47000000000E+01 0.  1.
         11    1    4    4    0    0  0.14361965488E+02 -0.13345035234E+03 -0.19246313041E+03  0.23464296103E+03  0.00000000000E+00 0. -1.
        -12    1    4    4    0    0 -0.33952665053E+02 -0.23307858794E+02 -0.87952455389E+02  0.97116806757E+02  0.00000000000E+00 0.  1.
</event>
<event>
12    1  0.1050869E+000  0.2235969E+03  0.7818608E-02  0.1131275E+00
         21   -1    0    0  501  502  0.00000000000E+00  0.00000000000E+00  0.34290259363E+03  0.34290259363E+03  0.00000000000E+00 0.  1.
         21   -1    0    0  502  503 -0.00000000000E+00 -0.00000000000E+00 -0.14689401800E+03  0.14689401800E+03  0.00000000000E+00 0.  1.
         -6    2    1    2    0  503 -0.10309403874E+03 -0.98495059898E+02  0.12068437486E+03  0.25408719173E+03  0.17223798947E+03 0.  0.
        -24    2    3    3    0    0 -0.56645278449E+02  0.14281479430E+02  0.74249358155E+02  0.12349494107E+03  0.79532289410E+02 0.  0.
          6    2    1    2  501    0  0.10309403874E+03  0.98495059898E+02  0.75324200759E+02  0.23570941990E+03  0.17191724103E+03 0.  0.
         24    2    5    5    0    0 -0.51178564894E+01  0.80984084334E+01  0.83770258819E+01  0.79551220985E+02  0.78526718531E+02 0.  0.
          5    1    5    5  501    0  0.10821189523E+03  0.90396651465E+02  0.66947174877E+02  0.15615819892E+03  0.47000000000E+01 0. -1.
        -13    1    6    6    0    0 -0.11036229674E+02 -0.22232276447E+02  0.32111389867E+02  0.40585882282E+02  0.00000000000E+00 0.  1.
         14    1    6    6    0    0  0.59183731848E+01  0.30330684880E+02 -0.23734363985E+02  0.38965338703E+02  0.00000000000E+00 0. -1.
         -5    1    3    3    0  503 -0.46448760287E+02 -0.11277653933E+03  0.46435016706E+02  0.13059225066E+03  0.47000000000E+01 0.  1.
         11    1    4    4    0    0 -0.21457870308E+02 -0.23512859221E+02  0.63087645502E+02  0.70663609884E+02  0.00000000000E+00 0. -1.
        -12    1    4    4    0    0 -0.35187408140E+02  0.37794338652E+02  0.11161712654E+02  0.52831331188E+02  0.00000000000E+00 0.  1.
</event>
<event>
12    1  0.1050869E+000  0.1765591E+03  0.7818608E-02  0.1171204E+00
         21   -1    0    0  503  502  0.00000000000E+00  0.00000000000E+00  0.17785103790E+02  0.17785103790E+02  0.00000000000E+00 0. -1.
         21   -1    0    0  501  503 -0.00000000000E+00 -0.00000000000E+00 -0.18166914383E+04  0.18166914383E+04  0.00000000000E+00 0. -1.
          6    2    1    2  501    0 -0.15782752084E+02  0.36687276595E+02 -0.72560261859E+03  0.74674772532E+03  0.17186609215E+03 0.  0.
         24    2    3    3    0    0 -0.66541159224E+02  0.59192617614E+02 -0.48877570696E+03  0.50345370084E+03  0.81439826448E+02 0.  0.
         -6    2    1    2    0  502  0.15782752084E+02 -0.36687276595E+02 -0.10733037159E+04  0.10877288168E+04  0.17198273375E+03 0.  0.
        -24    2    5    5    0    0 -0.41349551229E+02  0.16288831493E+02 -0.41955277087E+03  0.42933459120E+03  0.79552198225E+02 0.  0.
          5    1    3    3  501    0  0.50758407139E+02 -0.22505341020E+02 -0.23682691164E+03  0.24329402447E+03  0.47000000000E+01 0. -1.
        -13    1    4    4    0    0  0.38962833280E+01  0.45355611982E+02 -0.13499703958E+03  0.14246583190E+03  0.00000000000E+00 0.  1.
         14    1    4    4    0    0 -0.70437442552E+02  0.13837005633E+02 -0.35377866738E+03  0.36098786895E+03  0.00000000000E+00 0. -1.
         -5    1    5    5    0  502  0.57132303314E+02 -0.52976108088E+02 -0.65375094507E+03  0.65839422559E+03  0.47000000000E+01 0.  1.
         11    1    6    6    0    0  0.25378403177E+01  0.68851302275E+01 -0.32053665032E+03  0.32062063229E+03  0.00000000000E+00 0. -1.
        -12    1    6    6    0    0 -0.43887391547E+02  0.94037012660E+01 -0.99016120552E+02  0.10871395892E+03  0.00000000000E+00 0.  1.
</event>
<event>
12    1  0.1050869E+000  0.1799390E+03  0.7818608E-02  0.1168011E+00
         21   -1    0    0  501  502  0.00000000000E+00  0.00000000000E+00  0.10289004476E+03  0.10289004476E+03  0.00000000000E+00 0. -1.
         21   -1    0    0  502  503 -0.00000000000E+00 -0.00000000000E+00 -0.35827362640E+03  0.35827362640E+03  0.00000000000E+00 0. -1.
         -6    2    1    2    0  503  0.47083870427E+02  0.23826526310E+02 -0.46471062481E+02  0.18584295909E+03  0.17202747335E+03 0.  0.
        -24    2    3    3    0    0  0.70900854397E+02 -0.12148773792E+02 -0.78920176330E+02  0.13165342198E+03  0.77004580566E+02 0.  0.
          6    2    1    2  501    0 -0.47083870427E+02 -0.23826526310E+02 -0.20891251916E+03  0.27532071207E+03  0.17138395381E+03 0.  0.
         24    2    5    5    0    0  0.23003048915E+02 -0.59849129119E+02 -0.11380303927E+03  0.15171768888E+03  0.77175558676E+02 0.  0.
          5    1    5    5  501    0 -0.70086919342E+02  0.36022602809E+02 -0.95109479893E+02  0.12360302319E+03  0.47000000000E+01 0. -1.
        -11    1    6    6    0    0 -0.14706217304E+01 -0.72435582494E+02 -0.88062142016E+02  0.11403515772E+03  0.00000000000E+00 0.  1.
         12    1    6    6    0    0  0.24473670645E+02  0.12586453375E+02 -0.25740897252E+02  0.37682531162E+02  0.00000000000E+00 0. -1.
         -5    1    3    3    0  503 -0.23816983969E+02  0.35975300102E+02  0.32449113850E+02  0.54189537112E+02  0.47000000000E+01 0.  1.
         13    1    4    4    0    0  0.22574411119E+02 -0.39699142333E+02 -0.53933586246E+02  0.70671477023E+02  0.00000000000E+00 0. -1.
        -14    1    4    4    0    0  0.48326443277E+02  0.27550368541E+02 -0.24986590085E+02  0.60981944956E+02  0.00000000000E+00 0.  1.
</event>
<event>
12    1  0.1050869E+000  0.3003664E+03  0.7818608E-02  0.1085282E+00
         21   -1    0    0  503  502  0.00000000000E+00  0.00000000000E+00  0.14678203328E+04  0.14678203328E+04  0.00000000000E+00 0.  1.
         21   -1    0    0  501  503 -0.00000000000E+00 -0.00000000000E+00 -0.61807914202E+02  0.61807914202E+02  0.00000000000E+00 0.  1.
          6    2    1    2  501    0  0.24356764625E+03  0.34497575230E+02  0.78695530785E+03  0.84232927345E+03  0.17235042024E+03 0.  0.
         24    2    3    3    0    0  0.23253878339E+03 -0.17299145060E+02  0.67526720519E+03  0.71863263515E+03  0.77932789683E+02 0.  0.
         -6    2    1    2    0  502 -0.24356764625E+03 -0.34497575230E+02  0.61905711071E+03  0.68729897352E+03  0.16921256359E+03 0.  0.
        -24    2    5    5    0    0 -0.24295412784E+03 -0.66957285339E+02  0.54687715689E+03  0.60801439167E+03  0.84243037997E+02 0.  0.
          5    1    3    3  501    0  0.11028862866E+02  0.51796720290E+02  0.11168810266E+03  0.12369663829E+03  0.47000000000E+01 0. -1.
        -13    1    4    4    0    0  0.76717238833E+02 -0.34062081593E+02  0.16958259586E+03  0.18921949412E+03  0.00000000000E+00 0.  1.
         14    1    4    4    0    0  0.15582154455E+03  0.16762936533E+02  0.50568460932E+03  0.52941314103E+03  0.00000000000E+00 0. -1.
         -5    1    5    5    0  502 -0.61351840954E+00  0.32459710109E+02  0.72179953823E+02  0.79284581850E+02  0.47000000000E+01 0.  1.
         13    1    6    6    0    0 -0.11022407999E+03 -0.33520510757E+02  0.15647482342E+03  0.19431248754E+03  0.00000000000E+00 0. -1.
        -14    1    6    6    0    0 -0.13273004785E+03 -0.33436774583E+02  0.39040233347E+03  0.41370190413E+03  0.00000000000E+00 0.  1.
</event>
<event>
12    1  0.1050869E+000  0.1825771E+03  0.7818608E-02  0.1165572E+00
         21   -1    0    0  501  502  0.00000000000E+00  0.00000000000E+00  0.12597058758E+03  0.12597058758E+03  0.00000000000E+00 0.  1.
         21   -1    0    0  502  503 -0.00000000000E+00 -0.00000000000E+00 -0.27269074479E+03  0.27269074479E+03  0.00000000000E+00 0.  1.
         -6    2    1    2    0  503  0.12970713678E+02  0.56575967495E+02 -0.11042524094E+03  0.21251160926E+03  0.17204177028E+03 0.  0.
        -24    2    3    3    0    0  0.58124286494E+02  0.79573952938E+02 -0.93813397236E+02  0.15897848097E+03  0.82235985101E+02 0.  0.
          6    2    1    2  501    0 -0.12970713678E+02 -0.56575967495E+02 -0.36294916272E+02  0.18614972312E+03  0.17310493626E+03 0.  0.
         24    2    5    5    0    0 -0.40395274638E+02  0.15046379877E+02 -0.57028492079E+02  0.10656430766E+03  0.79028672004E+02 0.  0.
          5    1    5    5  501    0  0.27424560960E+02 -0.71622347372E+02  0.20733575807E+02  0.79585415452E+02  0.47000000000E+01 0. -1.
        -13    1    6    6    0    0 -0.61031270531E+02  0.46634377782E+01 -0.56738697224E+02  0.83461628293E+02  0.00000000000E+00 0.  1.
         14    1    6    6    0    0  0.20635995893E+02  0.10382942099E+02 -0.28979485499E+00  0.23102679372E+02  0.00000000000E+00 0. -1.
         -5    1    3    3    0  503 -0.45153572816E+02 -0.22997985443E+02 -0.16611843702E+02  0.53533128283E+02  0.47000000000E+01 0.  1.
         11    1    4    4    0    0  0.61657064189E+01 -0.73201302957E+01 -0.46049479800E+02  0.47033550079E+02  0.00000000000E+00 0. -1.
        -12    1    4    4    0    0  0.51958580075E+02  0.86894083234E+02 -0.47763917436E+02  0.11194493090E+03  0.00000000000E+00 0.  1.
</event>
<event>
12    1  0.1050869E+000  0.1927985E+03  0.7818608E-02  0.1156121E+00
         21   -1    0    0  501  502  0.00000000000E+00  0.00000000000E+00  0.10185033271E+04  0.10185033271E+04  0.00000000000E+00 0. -1.
         21   -1    0    0  502  503 -0.00000000000E+00 -0.00000000000E+00 -0.51271866123E+02  0.51271866123E+02  0.00000000000E+00 0. -1.
         -6    2    1    2    0  503 -0.83847229407E+02  0.19987079576E+01  0.19451028395E+03  0.27336494695E+03  0.17279985806E+03 0.  0.
        -24    2    3    3    0    0 -0.48308512459E+02  0.64666335666E+02  0.15135934198E+03  0.18925593579E+03  0.79954433796E+02 0.  0.
          6    2    1    2  501    0  0.83847229407E+02 -0.19987079576E+01  0.77272117700E+03  0.79641024625E+03  0.17359985666E+03 0.  0.
         24    2    5    5    0    0  0.89681858080E+02 -0.17135477315E+02  0.30424433614E+03  0.32762905518E+03  0.80247875194E+02 0.  0.
          5    1    5    5  501    0 -0.58346286727E+01  0.15136769358E+02  0.46847684086E+03  0.46878119107E+03  0.47000000000E+01 0. -1.
        -11    1    6    6    0    0  0.67668058653E+02  0.69328557495E+01  0.27669659431E+03  0.28493514342E+03  0.00000000000E+00 0.  1.
         12    1    6    6    0    0  0.22013799427E+02 -0.24068333065E+02  0.27547741829E+02  0.42693911763E+02  0.00000000000E+00 0. -1.
         -5    1    3    3    0  503 -0.35538716948E+02 -0.62667627708E+02  0.43150941976E+02  0.84109011160E+02  0.47000000000E+01 0.  1.
         13    1    4    4    0    0  0.14087393404E+02 -0.41411312483E+01  0.42671616113E+01  0.15290921789E+02  0.00000000000E+00 0. -1.
        -14    1    4    4    0    0 -0.62395905863E+02  0.68807466914E+02  0.14709218037E+03  0.17396501400E+03  0.00000000000E+00 0.  1.
</event>
<event>
12    1  0.1050869E+000  0.2332274E+03  0.7818608E-02  0.1124470E+00
         21   -1    0    0  501  502  0.00000000000E+00  0.00000000000E+00  0.50398311094E+03  0.50398311094E+03  0.00000000000E+00 0.  1.
         21   -1    0    0  502  503 -0.00000000000E+00 -0.00000000000E+00 -0.16635614883E+03  0.16635614883E+03  0.00000000000E+00 0.  1.
         -6    2    1    2    0  503  0.13516269802E+03 -0.79679686349E+02  0.36770365814E+03  0.43518049796E+03  0.17192521118E+03 0.  0.
        -24    2    3    3    0    0  0.87532915343E+02 -0.10038872354E+03  0.16590731812E+03  0.22675469997E+03  0.78438183749E+02 0.  0.
          6    2    1    2  501    0 -0.13516269802E+03  0.79679686349E+02 -0.30076696035E+02  0.23515876181E+03  0.17256079584E+03 0.  0.
         24    2    5    5    0    0 -0.16305435125E+03  0.90933919534E+02 -0.31438735994E+02  0.20468668874E+03  0.77798118525E+02 0.  0.
          5    1    5    5  501    0  0.27891653227E+02 -0.11254233185E+02  0.13620399588E+01  0.30472073070E+02  0.47000000000E+01 0. -1.
        -13    1    6    6    0    0 -0.19608171585E+02 -0.47283341894E+01  0.16130205162E+02  0.25826750777E+02  0.00000000000E+00 0.  1.
         14    1    6    6    0    0 -0.14344617966E+03  0.95662253723E+02 -0.47568941157E+02  0.17885993797E+03  0.00000000000E+00 0. -1.
         -5    1    3    3    0  503  0.47629782677E+02  0.20709037195E+02  0.20179634002E+03  0.20842579799E+03  0.47000000000E+01 0.  1.
         11    1    4    4    0    0  0.69902504366E+02 -0.53704358899E+02  0.15069713714E+03  0.17458563923E+03  0.00000000000E+00 0. -1.
        -12    1    4    4    0    0  0.17630410976E+02 -0.46684364645E+02  0.15210180978E+02  0.52169060744E+02  0.00000000000E+00 0.  1.
</event>
<event>
12    1  0.1050869E+000  0.2339809E+03  0.7818608E-02  0.1123920E+00
         21   -1    0    0  503  502  0.00000000000E+00  0.00000000000E+00  0.57245683189E+03  0.57245683189E+03  0.00000000000E+00 0. -1.
         21   -1    0    0  501  503 -0.00000000000E+00 -0.00000000000E+00 -0.14533634071E+03  0.14533634071E+03  0.00000000000E+00 0. -1.
          6    2    1    2  501    0 -0.86362739611E+02  0.13305639755E+03  0.35150817581E+01  0.23400725780E+03  0.17200149180E+03 0.  0.
         24    2    3    3    0    0 -0.19532312018E+02  0.13876962505E+03 -0.16743440505E+02  0.16378301167E+03  0.83102419110E+02 0.  0.
         -6    2    1    2    0  502  0.86362739611E+02 -0.13305639755E+03  0.42360540942E+03  0.48378591479E+03  0.17159469903E+03 0.  0.
        -24    2    5    5    0    0  0.88185236173E+01 -0.88713625065E+00  0.13674056409E+03  0.15852394568E+03  0.79707628961E+02 0.  0.
          5    1    3    3  501    0 -0.66830427594E+02 -0.57132274991E+01  0.20258522264E+02  0.70224246134E+02  0.47000000000E+01 0. -1.
        -13    1    4    4    0    0  0.11474055144E+02  0.91226234184E+01  0.20659723332E+02  0.25331805456E+02  0.00000000000E+00 0.  1.
         14    1    4    4    0    0 -0.31006367162E+02  0.12964700163E+03 -0.37403163838E+02  0.13845120621E+03  0.00000000000E+00 0. -1.
         -5    1    5    5    0  502  0.77544215994E+02 -0.13216926130E+03  0.28686484533E+03  0.32526196912E+03  0.47000000000E+01 0.  1.
         13    1    6    6    0    0  0.16634799373E+02  0.27973508966E+01 -0.41477983662E+01  0.17370836292E+02  0.00000000000E+00 0. -1.
        -14    1    6    6    0    0 -0.78162757553E+01 -0.36844871473E+01  0.14088836246E+03  0.14115310938E+03  0.00000000000E+00 0.  1.
</event>
<event>
12    1  0.1050869E+000  0.2455212E+03  0.7818608E-02  0.1117607E+00
         21   -1    0    0  501  502  0.00000000000E+00  0.00000000000E+00  0.20186216534E+03  0.20186216534E+03  0.00000000000E+00 0. -1.
         21   -1    0    0  502  503 -0.00000000000E+00 -0.00000000000E+00 -0.43852621734E+03  0.43852621734E+03  0.00000000000E+00 0. -1.
         -6    2    1    2    0  503 -0.10360139542E+03 -0.12484571712E+03  0.70582862571E+02  0.24709294076E+03  0.17249138724E+03 0.  0.
        -24    2    3    3    0    0 -0.84822110703E+02 -0.16115199317E+03  0.41820697947E+02  0.19689175224E+03  0.62069605715E+02 0.  0.
          6    2    1    2  501    0  0.10360139542E+03  0.12484571712E+03 -0.30724691457E+03  0.39329544192E+03  0.18428493131E+03 0.  0.
         24    2    5    5    0    0  0.86938631844E+02  0.71707041747E+02 -0.83174395070E+02  0.16235832818E+03  0.82109811779E+02 0.  0.
          5    1    5    5  501    0  0.16662763579E+02  0.53138675369E+02 -0.22407251950E+03  0.23093711375E+03  0.47000000000E+01 0. -1.
        -13    1    6    6    0    0  0.25938011528E+02 -0.13573515938E+02 -0.38549876422E+02  0.48405720210E+02  0.00000000000E+00 0.  1.
         14    1    6    6    0    0  0.61000620317E+02  0.85280557685E+02 -0.44624518648E+02  0.11395260797E+03  0.00000000000E+00 0. -1.
         -5    1    3    3    0  503 -0.18779284720E+02  0.36306276059E+02  0.28762164623E+02  0.50201188528E+02  0.47000000000E+01 0.  1.
         11    1    4    4    0    0 -0.78817554361E+02 -0.13234667083E+03  0.11231063992E+02  0.15444735334E+03  0.00000000000E+00 0. -1.
        -12    1    4    4    0    0 -0.60045563425E+01 -0.28805322347E+02  0.30589633955E+02  0.42444398899E+02  0.00000000000E+00 0.  1.
</event>
<event>
12    1  0.1050869E+000  0.2754079E+03  0.7818608E-02  0.1098340E+00
         21   -1    0    0  503  502  0.00000000000E+00  0.00000000000E+00  0.13500731003E+04  0.13500731003E+04  0.00000000000E+00 0.  1.
         21   -1    0    0  501  503 -0.00000000000E+00 -0.00000000000E+00 -0.56014792972E+02  0.56014792972E+02  0.00000000000E+00 0. -1.
          6    2    1    2  501    0 -0.13604490855E+03  0.16564636465E+03  0.65332110335E+03  0.70899787668E+03  0.17292365308E+03 0.  0.
         24    2    3    3    0    0 -0.27835504949E+02  0.47088965033E+01  0.21400775780E+03  0.22875996766E+03  0.75728550523E+02 0.  0.
         -6    2    1    2    0  502  0.13604490855E+03 -0.16564636465E+03  0.64073720399E+03  0.69709001660E+03  0.17159076724E+03 0.  0.
        -24    2    5    5    0    0  0.51924449321E+02 -0.12609308623E+03  0.23656455805E+03  0.28233908987E+03  0.71811953820E+02 0.  0.
          5    1    3    3  501    0 -0.10820940360E+03  0.16093746815E+03  0.43931334555E+03  0.48023790902E+03  0.47000000000E+01 0. -1.
        -13    1    4    4    0    0  0.25671640593E+02 -0.50756022976E+00  0.50706796406E+02  0.56837223277E+02  0.00000000000E+00 0.  1.
         14    1    4    4    0    0 -0.53507145541E+02  0.52164567330E+01  0.16330096139E+03  0.17192274438E+03  0.00000000000E+00 0. -1.
         -5    1    5    5    0  502  0.84120459230E+02 -0.39553278417E+02  0.40417264594E+03  0.41475092673E+03  0.47000000000E+01 0.  1.
         11    1    6    6    0    0  0.46707628983E+02 -0.69021723358E+02  0.19340114614E+03  0.21059345723E+03  0.00000000000E+00 0. -1.
        -12    1    6    6    0    0  0.52168203384E+01 -0.57071362877E+02  0.43163411902E+02  0.71745632635E+02  0.00000000000E+00 0.  1.
</event>
<event>
12    1  0.1050869E+000  0.1809336E+03  0.7818608E-02  0.1167004E+00
         21   -1    0    0  501  502  0.00000000000E+00  0.00000000000E+00  0.11676233306E+03  0.11676233306E+03  0.00000000000E+00 0. -1.
         21   -1    0    0  502  503 -0.00000000000E+00 -0.00000000000E+00 -0.27972390546E+03  0.27972390546E+03  0.00000000000E+00 0. -1.
         -6    2    1    2    0  503 -0.30084785311E+02 -0.48967042848E+02 -0.80692684281E+02  0.19811181010E+03  0.17156373280E+03 0.  0.
        -24    2    3    3    0    0  0.33430237884E+02 -0.10596865607E+02 -0.89830692576E+02  0.12319838094E+03  0.76670811728E+02 0.  0.
          6    2    1    2  501    0  0.30084785311E+02  0.48967042848E+02 -0.82268888117E+02  0.19837442843E+03  0.17111802450E+03 0.  0.
         24    2    5    5    0    0  0.70838130823E+02  0.75130051179E+02 -0.47569826819E+02  0.13861279332E+03  0.79297242581E+02 0.  0.
          5    1    5    5  501    0 -0.40753345512E+02 -0.26163008331E+02 -0.34699061298E+02  0.59761635104E+02  0.47000000000E+01 0. -1.
        -13    1    6    6    0    0  0.50121741951E+02  0.87766646741E+02 -0.22147785730E+02  0.10346834158E+03  0.00000000000E+00 0.  1.
         14    1    6    6    0    0  0.20716388872E+02 -0.12636595563E+02 -0.25422041090E+02  0.35144451745E+02  0.00000000000E+00 0. -1.
         -5    1    3    3    0  503 -0.63515023195E+02 -0.38370177241E+02  0.91380082942E+01  0.74913429160E+02  0.47000000000E+01 0.  1.
         13    1    4    4    0    0  0.37222005551E+02 -0.90512316914E+01 -0.54197612972E+01  0.38688193352E+02  0.00000000000E+00 0. -1.
        -14    1    4    4    0    0 -0.37917676669E+01 -0.15456339157E+01 -0.84410931278E+02  0.84510187584E+02  0.00000000000E+00 0.  1.
</event>
<event>
12    1  0.1050869E+000  0.3331766E+03  0.7818608E-02  0.1069793E+00
         21   -1    0    0  501  502  0.00000000000E+00  0.00000000000E+00  0.33760020336E+03  0.33760020336E+03  0.00000000000E+00 0.  1.
         21   -1    0    0  502  503 -0.00000000000E+00 -0.00000000000E+00 -0.33318618122E+03  0.33318618122E+03  0.00000000000E+00 0.  1.
         -6    2    1    2    0  503 -0.18733549783E+03  0.21307625771E+03 -0.38288016433E+02  0.33488444060E+03  0.17373985152E+03 0.  0.
        -24    2    3    3    0    0 -0.13431276288E+03  0.22936573848E+03 -0.32962305797E+02  0.27896297067E+03  0.78008109449E+02 0.  0.
          6    2    1    2  501    0  0.18733549783E+03 -0.21307625771E+03  0.42702038569E+02  0.33590194398E+03  0.17467275553E+03 0.  0.
         24    2    5    5    0    0  0.16973010705E+02 -0.64760822176E+02  0.31337951512E+02  0.10968948209E+03  0.81041150630E+02 0.  0.
          5    1    5    5  501    0  0.17036248713E+03 -0.14831543554E+03  0.11364087057E+02  0.22621246189E+03  0.47000000000E+01 0. -1.
        -13    1    6    6    0    0  0.16159275480E+02  0.32796269259E+01 -0.18919612325E+02  0.25096411444E+02  0.00000000000E+00 0.  1.
         14    1    6    6    0    0  0.81373522475E+00 -0.68040449102E+02  0.50257563837E+02  0.84593070649E+02  0.00000000000E+00 0. -1.
         -5    1    3    3    0  503 -0.53022734954E+02 -0.16289480769E+02 -0.53257106366E+01  0.55921469934E+02  0.47000000000E+01 0.  1.
         11    1    4    4    0    0 -0.45950509166E+02  0.38627590799E+02 -0.33512801126E+02  0.68750621109E+02  0.00000000000E+00 0. -1.
        -12    1    4    4    0    0 -0.88362253712E+02  0.19073814768E+03  0.55049532887E+00  0.21021234956E+03  0.00000000000E+00 0.  1.
</event>
<event>
12    1  0.1050869E+000  0.2968393E+03  0.7818608E-02  0.1086911E+00
         21   -1    0    0  501  502  0.00000000000E+00  0.00000000000E+00  0.97154799514E+02  0.97154799514E+02  0.00000000000E+00 0.  1.
         21   -1    0    0  502  503 -0.00000000000E+00 -0.00000000000E+00 -0.15581977713E+04  0.15581977713E+04  0.00000000000E+00 0.  1.
         -6    2    1    2    0  503  0.19876939351E+03 -0.13750368164E+03 -0.19509542766E+03  0.35521233084E+03  0.17232829086E+03 0.  0.
        -24    2    3    3    0    0  0.89052641854E+02 -0.34894849798E+02 -0.23625046416E+02  0.12719803390E+03  0.80456034250E+02 0.  0.
          6    2    1    2  501    0 -0.19876939351E+03  0.13750368164E+03 -0.12659475441E+04  0.13001402399E+04  0.17124521844E+03 0.  0.
         24    2    5    5    0    0 -0.61070828737E+02  0.35428940892E+02 -0.28917894466E+03  0.30843507494E+03  0.80764332738E+02 0.  0.
          5    1    5    5  501    0 -0.13769856477E+03  0.10207474075E+03 -0.97676859942E+03  0.99170516498E+03  0.47000000000E+01 0. -1.
        -13    1    6    6    0    0 -0.11640968911E+02 -0.23932745884E+02 -0.44491423564E+02  0.51843758096E+02  0.00000000000E+00 0.  1.
         14    1    6    6    0    0 -0.49429859826E+02  0.59361686776E+02 -0.24468752110E+03  0.25659131684E+03  0.00000000000E+00 0. -1.
         -5    1    3    3    0  503  0.10971675165E+03 -0.10260883184E+03 -0.17147038124E+03  0.22801429694E+03  0.47000000000E+01 0.  1.
         11    1    4    4    0    0  0.10374908688E+03 -0.31509992945E+02 -0.27009002914E+02  0.11174184052E+03  0.00000000000E+00 0. -1.
        -12    1    4    4    0    0 -0.14696445028E+02 -0.33848568532E+01  0.33839564980E+01  0.15456193385E+02  0.00000000000E+00 0.  1.
</event>
<event>
12    1  0.1050869E+000  0.1928242E+03  0.7818608E-02  0.1156345E+00
         21   -1    0    0  503  502  0.00000000000E+00  0.00000000000E+00  0.11997604132E+04  0.11997604132E+04  0.00000000000E+00 0.  1.
         21   -1    0    0  501  503 -0.00000000000E+00 -0.00000000000E+00 -0.53239792683E+02  0.53239792683E+02  0.00000000000E+00 0.  1.
          6    2    1    2  501    0 -0.50268229693E+02 -0.72348729636E+02  0.98250221481E+03  0.10012451053E+04  0.17152237530E+03 0.  0.
         24    2    3    3    0    0  0.16326835308E+02 -0.37488557515E+02  0.75488179955E+03  0.76148840004E+03  0.91356962596E+02 0.  0.
         -6    2    1    2    0  502  0.50268229693E+02  0.72348729636E+02  0.16401840572E+03  0.25175510057E+03  0.16946197111E+03 0.  0.
        -24    2    5    5    0    0  0.89253099950E+02  0.68007098905E+02  0.16284372481E+03  0.21223118703E+03  0.77025428847E+02 0.  0.
          5    1    3    3  501    0 -0.66595065001E+02 -0.34860172121E+02  0.22762041527E+03  0.23975670529E+03  0.47000000000E+01 0. -1.
        -13    1    4    4    0    0 -0.93564349783E+01  0.23468636977E+02  0.95090895408E+02  0.98390030930E+02  0.00000000000E+00 0.  1.
         14    1    4    4    0    0  0.25683270286E+02 -0.60957194492E+02  0.65979090414E+03  0.66309836911E+03  0.00000000000E+00 0. -1.
         -5    1    5    5    0  502 -0.38984870257E+02  0.43416307319E+01  0.11746809150E+01  0.39523913541E+02  0.47000000000E+01 0.  1.
         11    1    6    6    0    0  0.13353588855E+02  0.34347569033E+02  0.98270190155E+01  0.38139797279E+02  0.00000000000E+00 0. -1.
        -12    1    6    6    0    0  0.75899511095E+02  0.33659529872E+02  0.15301670579E+03  0.17409138975E+03  0.00000000000E+00 0.  1.
</event>
<event>
12    1  0.1050869E+000  0.3722766E+03  0.7818608E-02  0.1053844E+00
         21   -1    0    0  501  502  0.00000000000E+00  0.00000000000E+00  0.13297580964E+04  0.13297580964E+04  0.00000000000E+00 0.  1.
         21   -1    0    0  502  503 -0.00000000000E+00 -0.00000000000E+00 -0.54199373616E+03  0.54199373616E+03  0.00000000000E+00 0.  1.
         -6    2    1    2    0  503 -0.90988661507E+02 -0.31731397029E+03  0.12350087540E+04  0.12898434210E+04  0.17170421122E+03 0.  0.
        -24    2    3    3    0    0 -0.13044083774E+03 -0.26043633952E+03  0.95455238646E+03  0.10009327027E+04  0.76512206585E+02 0.  0.
          6    2    1    2  501    0  0.90988661507E+02  0.31731397029E+03 -0.44724439377E+03  0.58190841148E+03  0.17211263561E+03 0.  0.
         24    2    5    5    0    0 -0.50739012528E+01  0.15165317594E+03 -0.27323265874E+03  0.32311565912E+03  0.81995201817E+02 0.  0.
          5    1    5    5  501    0  0.96062562759E+02  0.16566079435E+03 -0.17401173503E+03  0.25879275237E+03  0.47000000000E+01 0. -1.
        -11    1    6    6    0    0 -0.35780000454E+02  0.44979218964E+02 -0.12806057034E+03  0.14036683457E+03  0.00000000000E+00 0.  1.
         12    1    6    6    0    0  0.30706099201E+02  0.10667395697E+03 -0.14517208840E+03  0.18274882455E+03  0.00000000000E+00 0. -1.
         -5    1    3    3    0  503  0.39452176229E+02 -0.56877630768E+02  0.28045636750E+03  0.28891071832E+03  0.47000000000E+01 0.  1.
         11    1    4    4    0    0 -0.19358804912E+02 -0.12265635283E+03  0.39209409180E+03  0.41128715156E+03  0.00000000000E+00 0. -1.
        -12    1    4    4    0    0 -0.11108203282E+03 -0.13777998669E+03  0.56245829467E+03  0.58964555115E+03  0.00000000000E+00 0.  1.
</event>
<event>
12    1  0.1050869E+000  0.2309554E+03  0.7818608E-02  0.1126235E+00
         21   -1    0    0  503  502  0.00000000000E+00  0.00000000000E+00  0.33739812766E+02  0.33739812766E+02  0.00000000000E+00 0. -1.
         21   -1    0    0  501  503 -0.00000000000E+00 -0.00000000000E+00 -0.17846232531E+04  0.17846232531E+04  0.00000000000E+00 0. -1.
          6    2    1    2  501    0  0.11719178180E+03  0.99973135203E+02 -0.55806097238E+03  0.60338741433E+03  0.17004640954E+03 0.  0.
         24    2    3    3    0    0  0.14593700301E+03  0.56154444794E+02 -0.46059714799E+03  0.49262797935E+03  0.77985016436E+02 0.  0.
         -6    2    1    2    0  502 -0.11719178180E+03 -0.99973135203E+02 -0.11928224679E+04  0.12149756515E+04  0.17208094689E+03 0.  0.
        -24    2    5    5    0    0 -0.24098420688E+02  0.38073146439E+01 -0.46253335624E+03  0.47148319539E+03  0.88113951097E+02 0.  0.
          5    1    3    3  501    0 -0.28745221214E+02  0.43818690409E+02 -0.97463824396E+02  0.11075943498E+03  0.47000000000E+01 0. -1.
        -11    1    4    4    0    0  0.97832505197E+02  0.41658288867E+01 -0.20164152290E+03  0.22416033762E+03  0.00000000000E+00 0.  1.
         12    1    4    4    0    0  0.48104497812E+02  0.51988615907E+02 -0.25895562509E+03  0.26846764174E+03  0.00000000000E+00 0. -1.
         -5    1    5    5    0  502 -0.93093361108E+02 -0.10378044985E+03 -0.73028911169E+03  0.74349245612E+03  0.47000000000E+01 0.  1.
         11    1    6    6    0    0 -0.33336906448E+02  0.32925080876E+02 -0.38964594589E+03  0.39245302066E+03  0.00000000000E+00 0. -1.
        -12    1    6    6    0    0  0.92384857605E+01 -0.29117766232E+02 -0.72887410351E+02  0.79030174725E+02  0.00000000000E+00 0.  1.
</event>
<event>
12    1  0.1050869E+000  0.1743411E+03  0.7818608E-02  0.1173678E+00
         21   -1    0    0  501  502  0.00000000000E+00  0.00000000000E+00  0.19963736716E+03  0.19963736716E+03  0.00000000000E+00 0.  1.
         21   -1    0    0  502  503 -0.00000000000E+00 -0.00000000000E+00 -0.18432960427E+03  0.18432960427E+03  0.00000000000E+00 0.  1.
         -6    2    1    2    0  503 -0.20681280439E+02  0.16200899420E+02  0.88970565183E+02  0.19573087563E+03  0.17235031100E+03 0.  0.
        -24    2    3    3    0    0  0.28126710066E+02  0.62578226515E+02  0.73679559595E+02  0.12652840994E+03  0.76639511783E+02 0.  0.
          6    2    1    2  501    0  0.20681280439E+02 -0.16200899420E+02 -0.73662802293E+02  0.18823609580E+03  0.17122042757E+03 0.  0.
         24    2    5    5    0    0 -0.12613095421E+02 -0.51405988144E+02 -0.90708965013E+02  0.13665533001E+03  0.87435102181E+02 0.  0.
          5    1    5    5  501    0  0.33294375860E+02  0.35205088724E+02  0.17046162720E+02  0.51580765790E+02  0.47000000000E+01 0. -1.
        -13    1    6    6    0    0  0.29193465755E+02 -0.31003603289E+02 -0.10384969581E+02  0.43832972211E+02  0.00000000000E+00 0.  1.
         14    1    6    6    0    0 -0.41806561176E+02 -0.20402384855E+02 -0.80323995433E+02  0.92822357799E+02  0.00000000000E+00 0. -1.
         -5    1    3    3    0  503 -0.48807990505E+02 -0.46377327095E+02  0.15291005588E+02  0.69202465690E+02  0.47000000000E+01 0.  1.
         11    1    4    4    0    0  0.14685980433E+01  0.36988584145E+02 -0.71051404719E+01  0.37693436542E+02  0.00000000000E+00 0. -1.
        -12    1    4    4    0    0  0.26658112023E+02  0.25589642370E+02  0.80784700067E+02  0.88834973395E+02  0.00000000000E+00 0.  1.
</event>
<event>
12    1  0.1050869E+000  0.1742143E+03  0.7818608E-02  0.1173728E+00
         21   -1    0    0  501  502  0.00000000000E+00  0.00000000000E+00  0.36884143192E+02  0.36884143192E+02  0.00000000000E+00 0. -1.
         21   -1    0    0  502  503 -0.00000000000E+00 -0.00000000000E+00 -0.12583725300E+04  0.12583725300E+04  0.00000000000E+00 0. -1.
         -6    2    1    2    0  503 -0.21952411364E+02 -0.84012275266E+01 -0.99433259159E+03  0.10094790309E+04  0.17262132610E+03 0.  0.
        -24    2    3    3    0    0 -0.37090572046E+02 -0.43405867788E+01 -0.25117540006E+03  0.26614172256E+03  0.79672979501E+02 0.  0.
          6    2    1    2  501    0  0.21952411364E+02  0.84012275266E+01 -0.22715579524E+03  0.28577764227E+03  0.17180400613E+03 0.  0.
         24    2    5    5    0    0 -0.41425355647E+01  0.63330362624E+02 -0.18685535780E+03  0.21267243455E+03  0.79288991979E+02 0.  0.
          5    1    5    5  501    0  0.26094946929E+02 -0.54929135097E+02 -0.40300437439E+02  0.73105207718E+02  0.47000000000E+01 0. -1.
        -13    1    6    6    0    0  0.30206504708E+02  0.42568433659E+02 -0.14748943259E+03  0.15645330676E+03  0.00000000000E+00 0.  1.
         14    1    6    6    0    0 -0.34349040273E+02  0.20761928965E+02 -0.39365925210E+02  0.56219127792E+02  0.00000000000E+00 0. -1.
         -5    1    3    3    0  503  0.15138160682E+02 -0.40606407479E+01 -0.74315719153E+03  0.74333730839E+03  0.47000000000E+01 0.  1.
         11    1    4    4    0    0  0.68164057034E+00  0.34057950446E+02 -0.10225989763E+03  0.10778448537E+03  0.00000000000E+00 0. -1.
        -12    1    4    4    0    0 -0.37772212617E+02 -0.38398537225E+02 -0.14891550242E+03  0.15835723718E+03  0.00000000000E+00 0.  1.
</event>
<event>
12    1  0.1050869E+000  0.2322380E+03  0.7818608E-02  0.1125075E+00
         21   -1    0    0  503  502  0.00000000000E+00  0.00000000000E+00  0.67075860464E+03  0.67075860464E+03  0.00000000000E+00 0. -1.
         21   -1    0    0  501  503 -0.00000000000E+00 -0.00000000000E+00 -0.85552648182E+02  0.85552648182E+02  0.00000000000E+00 0. -1.
          6    2    1    2  501    0 -0.14076496633E+03  0.69168517005E+02  0.19986731351E+03  0.30640077862E+03  0.17127590210E+03 0.  0.
         24    2    3    3    0    0 -0.15068689167E+03  0.48505985153E+02  0.21579593946E+03  0.27809537367E+03  0.75563082589E+02 0.  0.
         -6    2    1    2    0  502  0.14076496633E+03 -0.69168517005E+02  0.38533864295E+03  0.44991047420E+03  0.17127318984E+03 0.  0.
        -24    2    5    5    0    0  0.60994750067E+02 -0.53017260997E+02  0.33549250298E+03  0.35435484568E+03  0.80504332805E+02 0.  0.
          5    1    3    3  501    0  0.99219253448E+01  0.20662531853E+02 -0.15928625948E+02  0.28305404956E+02  0.47000000000E+01 0. -1.
        -13    1    4    4    0    0 -0.34264758085E+02 -0.18741277790E+02  0.67022777301E+02  0.77571656015E+02  0.00000000000E+00 0.  1.
         14    1    4    4    0    0 -0.11642213359E+03  0.67247262943E+02  0.14877316216E+03  0.20052371765E+03  0.00000000000E+00 0. -1.
         -5    1    5    5    0  502  0.79770216260E+02 -0.16151256008E+02  0.49846139968E+02  0.95555628523E+02  0.47000000000E+01 0.  1.
         11    1    6    6    0    0 -0.12095171558E+02 -0.35688814357E+01  0.74425811323E+01  0.14643158936E+02  0.00000000000E+00 0. -1.
        -12    1    6    6    0    0  0.73089921626E+02 -0.49448379561E+02  0.32804992185E+03  0.33971168674E+03  0.00000000000E+00 0.  1.
</event>
<event>
12    1  0.1050869E+000  0.2647563E+03  0.7818608E-02  0.1104834E+00
         21   -1    0    0  501  502  0.00000000000E+00  0.00000000000E+00  0.65856554216E+02  0.65856554216E+02  0.00000000000E+00 0. -1.
         21   -1    0    0  502  503 -0.00000000000E+00 -0.00000000000E+00 -0.14934156066E+04  0.14934156066E+04  0.00000000000E+00 0. -1.
         -6    2    1    2    0  503 -0.17171102180E+01  0.19868056510E+03 -0.29248648351E+03  0.39451772246E+03  0.17498278452E+03 0.  0.
        -24    2    3    3    0    0 -0.16870933753E+02  0.11993024747E+03 -0.27698244314E+03  0.31270258839E+03  0.79973385057E+02 0.  0.
          6    2    1    2  501    0  0.17171102180E+01 -0.19868056510E+03 -0.11350725689E+04  0.11647544384E+04  0.16966511031E+03 0.  0.
         24    2    5    5    0    0  0.16124435820E+02 -0.18844153592E+03 -0.70578043969E+03  0.73507289241E+03  0.80224174784E+02 0.  0.
          5    1    5    5  501    0 -0.14407325602E+02 -0.10239029182E+02 -0.42929212921E+03  0.42968154598E+03  0.47000000000E+01 0. -1.
        -11    1    6    6    0    0  0.29286606334E+02 -0.89342832259E+02 -0.22229651055E+03  0.24136193898E+03  0.00000000000E+00 0.  1.
         12    1    6    6    0    0 -0.13162170515E+02 -0.99098703662E+02 -0.48348392914E+03  0.49371095343E+03  0.00000000000E+00 0. -1.
         -5    1    3    3    0  503  0.15153823535E+02  0.78750317628E+02 -0.15504040378E+02  0.81815134066E+02  0.47000000000E+01 0.  1.
         11    1    4    4    0    0  0.16892548647E+02  0.19696078953E+02 -0.14529258190E+02  0.29738746938E+02  0.00000000000E+00 0. -1.
        -12    1    4    4    0    0 -0.33763482399E+02  0.10023416852E+03 -0.26245318495E+03  0.28296384145E+03  0.00000000000E+00 0.  1.
</event>
<event>
12    1  0.1050869E+000  0.3551466E+03  0.7818608E-02  0.1060577E+00
         21   -1    0    0  501  502  0.00000000000E+00  0.00000000000E+00  0.38356056895E+03  0.38356056895E+03  0.00000000000E+00 0.  1.
         21   -1    0    0  502  503 -0.00000000000E+00 -0.00000000000E+00 -0.34434827714E+03  0.34434827714E+03  0.00000000000E+00 0.  1.
         -6    2    1    2    0  503  0.29371137875E+03  0.99815534185E+02  0.98084476232E+02  0.36791577409E+03  0.17179038821E+03 0.  0.
        -24    2    3    3    0    0  0.20082101176E+03  0.12997622668E+03  0.97948363653E+02  0.27013849567E+03  0.78473094952E+02 0.  0.
          6    2    1    2  501    0 -0.29371137875E+03 -0.99815534185E+02 -0.58872184422E+02  0.35999307199E+03  0.17291490079E+03 0.  0.
         24    2    5    5    0    0 -0.14081628956E+03  0.17015804344E+02 -0.23450929246E+02  0.16428097406E+03  0.79495454918E+02 0.  0.
          5    1    5    5  501    0 -0.15289508919E+03 -0.11683133853E+03 -0.35421255177E+02  0.19571209794E+03  0.47000000000E+01 0. -1.
        -13    1    6    6    0    0 -0.10254711231E+02 -0.10439000920E+02 -0.27117289897E+02  0.30813621242E+02  0.00000000000E+00 0.  1.
         14    1    6    6    0    0 -0.13056157833E+03  0.27454805264E+02  0.36663606515E+01  0.13346735282E+03  0.00000000000E+00 0. -1.
         -5    1    3    3    0  503  0.92890366985E+02 -0.30160692495E+02  0.13611257885E+00  0.97777278429E+02  0.47000000000E+01 0.  1.
         13    1    4    4    0    0  0.13394181552E+03  0.44938809353E+02  0.73373074673E+02  0.15919646547E+03  0.00000000000E+00 0. -1.
        -14    1    4    4    0    0  0.66879196238E+02  0.85037417327E+02  0.24575288980E+02  0.11094203019E+03  0.00000000000E+00 0.  1.
</event>
<event>
12    1  0.1050869E+000  0.3569704E+03  0.7818608E-02  0.1059812E+00
         21   -1    0    0  503  502  0.00000000000E+00  0.00000000000E+00  0.51165995667E+03  0.51165995667E+03  0.00000000000E+00 0. -1.
         21   -1    0    0  501  503 -0.00000000000E+00 -0.00000000000E+00 -0.25338831603E+03  0.25338831603E+03  0.00000000000E+00 0. -1.
          6    2    1    2  501    0  0.21178192257E+03  0.22921669860E+03  0.18004202049E+03  0.39960641335E+03  0.17285334480E+03 0.  0.
         24    2    3    3    0    0  0.10175773186E+03  0.18998592379E+03  0.72762297051E+02  0.24093881964E+03  0.79422136120E+02 0.  0.
         -6    2    1    2    0  502 -0.21178192257E+03 -0.22921669860E+03  0.78229620149E+02  0.36544185934E+03  0.17330897682E+03 0.  0.
        -24    2    5    5    0    0 -0.98331230122E+02 -0.11493431659E+03  0.10653157326E+03  0.20187348524E+03  0.80777472078E+02 0.  0.
          5    1    3    3  501    0  0.11002419071E+03  0.39230774803E+02  0.10727972344E+03  0.15866759371E+03  0.47000000000E+01 0. -1.
        -13    1    4    4    0    0  0.41728653992E+02  0.77354108227E+02  0.71502033183E+02  0.11330260091E+03  0.00000000000E+00 0.  1.
         14    1    4    4    0    0  0.60029077872E+02  0.11263181557E+03  0.12602638681E+01  0.12763621873E+03  0.00000000000E+00 0. -1.
         -5    1    5    5    0  502 -0.11345069245E+03 -0.11428238201E+03 -0.28301953113E+02  0.16356837410E+03  0.47000000000E+01 0.  1.
         11    1    6    6    0    0 -0.13150247333E+02 -0.76441209463E+02  0.41165942932E+02  0.87811288378E+02  0.00000000000E+00 0. -1.
        -12    1    6    6    0    0 -0.85180982789E+02 -0.38493107124E+02  0.65365630329E+02  0.11406219686E+03  0.00000000000E+00 0.  1.
</event>
<event>
12    1  0.1050869E+000  0.3927237E+03  0.7818608E-02  0.1046367E+00
         21   -1    0    0  501  502  0.00000000000E+00  0.00000000000E+00  0.18502971884E+03  0.18502971884E+03  0.00000000000E+00 0.  1.
         21   -1    0    0  502  503 -0.00000000000E+00 -0.00000000000E+00 -0.85831213397E+03  0.85831213397E+03  0.00000000000E+00 0.  1.
         -6    2    1    2    0  503  0.20740145487E+03  0.28554374526E+03 -0.24625724354E+03  0.46318466172E+03  0.17130909758E+03 0.  0.
        -24    2    3    3    0    0  0.16093067324E+03  0.29081883734E+03 -0.23817597214E+03  0.41549024811E+03  0.73689041429E+02 0.  0.
          6    2    1    2  501    0 -0.20740145487E+03 -0.28554374526E+03 -0.42702517159E+03  0.58015719109E+03  0.17228254485E+03 0.  0.
         24    2    5    5    0    0 -0.48632018611E+02 -0.49484404641E+02 -0.14171133815E+03  0.17722069518E+03  0.80692576503E+02 0.  0.
          5    1    5    5  501    0 -0.15876943626E+03 -0.23605934062E+03 -0.28531383344E+03  0.40293649591E+03  0.47000000000E+01 0. -1.
        -13    1    6    6    0    0 -0.16854264995E+02  0.21853312804E+02 -0.28366409307E+02  0.39576340230E+02  0.00000000000E+00 0.  1.
         14    1    6    6    0    0 -0.31777753616E+02 -0.71337717444E+02 -0.11334492884E+03  0.13764435495E+03  0.00000000000E+00 0. -1.
         -5    1    3    3    0  503  0.46470781627E+02 -0.52750920836E+01 -0.80812713961E+01  0.47694413603E+02  0.47000000000E+01 0.  1.
         13    1    4    4    0    0  0.57310493745E+02  0.92022624233E+02 -0.37797107515E+02  0.11480974436E+03  0.00000000000E+00 0. -1.
        -14    1    4    4    0    0  0.10362017950E+03  0.19879621311E+03 -0.20037886463E+03  0.30068050375E+03  0.00000000000E+00 0.  1.
</event>
<event>
12    1  0.1050869E+000  0.2315123E+03  0.7818608E-02  0.1125689E+00
         21   -1    0    0  503  502  0.00000000000E+00  0.00000000000E+00  0.70033019832E+03  0.70033019832E+03  0.00000000000E+00 0.  1.
         21   -1    0    0  501  503 -0.00000000000E+00 -0.00000000000E+00 -0.86457673125E+02  0.86457673125E+02  0.00000000000E+00 0.  1.
          6    2    1    2  501    0  0.11582419507E+03 -0.10219141014E+03  0.44123420265E+03  0.49799395397E+03  0.17161593207E+03 0.  0.
         24    2    3    3    0    0  0.28691567712E+02  0.10060723261E+02  0.22818894203E+03  0.24186310992E+03  0.74183195309E+02 0.  0.
         -6    2    1    2    0  502 -0.11582419507E+03  0.10219141014E+03  0.17263832255E+03  0.28879391747E+03  0.17245175524E+03 0.  0.
        -24    2    5    5    0    0 -0.12183864653E+03  0.20349399201E+02  0.13053578595E+03  0.19644132158E+03  0.79314863504E+02 0.  0.
          5    1    3    3  501    0  0.87132627356E+02 -0.11225213340E+03  0.21304526062E+03  0.25613084405E+03  0.47000000000E+01 0. -1.
        -11    1    4    4    0    0  0.69871839795E+01  0.31918612668E+02  0.42355369152E+02  0.53493886293E+02  0.00000000000E+00 0.  1.
         12    1    4    4    0    0  0.21704383732E+02 -0.21857889407E+02  0.18583357288E+03  0.18836922363E+03  0.00000000000E+00 0. -1.
         -5    1    5    5    0  502  0.60144514571E+01  0.81842010941E+02  0.42102536596E+02  0.92352595898E+02  0.47000000000E+01 0.  1.
         11    1    6    6    0    0 -0.44314958146E+02  0.39455710341E+02  0.87550210696E+02  0.10576203471E+03  0.00000000000E+00 0. -1.
        -12    1    6    6    0    0 -0.77523688379E+02 -0.19106311141E+02  0.42985575259E+02  0.90679286861E+02  0.00000000000E+00 0.  1.
</event>
<event>
12    1  0.1050869E+000  0.1933641E+03  0.7818608E-02  0.1155543E+00
         21   -1    0    0  503  502  0.00000000000E+00  0.00000000000E+00  0.53274638160E+03  0.53274638160E+03  0.00000000000E+00 0.  1.
         21   -1    0    0  501  503 -0.00000000000E+00 -0.00000000000E+00 -0.11056410324E+03  0.11056410324E+03  0.00000000000E+00 0.  1.
          6    2    1    2  501    0 -0.69347135226E+02  0.55508531404E+02  0.40567531176E+03  0.44924304909E+03  0.17133778440E+03 0.  0.
         24    2    3    3    0    0 -0.74568555470E+02  0.64517252571E+02  0.15886060618E+03  0.20216409576E+03  0.76880973436E+02 0.  0.
         -6    2    1    2    0  502  0.69347135226E+02 -0.55508531404E+02  0.16506966604E+02  0.19406743576E+03  0.17175409006E+03 0.  0.
        -24    2    5    5    0    0 -0.63400346856E+01 -0.63390677390E+02 -0.34371471507E+02  0.10240838613E+03  0.72439667833E+02 0.  0.
          5    1    3    3  501    0  0.52214202440E+01 -0.90087211676E+01  0.24681470558E+03  0.24707895333E+03  0.47000000000E+01 0. -1.
        -11    1    4    4    0    0 -0.24256222234E+02 -0.15656865309E+02  0.51468917889E+02  0.59013144782E+02  0.00000000000E+00 0.  1.
         12    1    4    4    0    0 -0.50312333235E+02  0.80174117880E+02  0.10739168829E+03  0.14315095098E+03  0.00000000000E+00 0. -1.
         -5    1    5    5    0  502  0.75687169911E+02  0.78821459862E+01  0.50878438110E+02  0.91659049630E+02  0.47000000000E+01 0.  1.
         13    1    6    6    0    0 -0.69416204560E+01 -0.76232309198E+02 -0.13255599167E+02  0.77686948515E+02  0.00000000000E+00 0. -1.
        -14    1    6    6    0    0  0.60158577044E+00  0.12841631808E+02 -0.21115872340E+02  0.24721437612E+02  0.00000000000E+00 0.  1.
</event>
<event>
12    1  0.1050869E+000  0.2065122E+03  0.7818608E-02  0.1144488E+00
         21   -1    0    0  501  502  0.00000000000E+00  0.00000000000E+00  0.27226285736E+04  0.27226285736E+04  0.00000000000E+00 0.  1.
         21   -1    0    0  502  503 -0.00000000000E+00 -0.00000000000E+00 -0.15789202091E+02  0.15789202091E+02  0.00000000000E+00 0.  1.
         -6    2    1    2    0  503  0.11275079449E+03 -0.15736978527E+02  0.12077261112E+04  0.12251471918E+04  0.17153101072E+03 0.  0.
        -24    2    3    3    0    0  0.94581806772E+02  0.13161325677E+02  0.45239921743E+03  0.46903474605E+03  0.78801030467E+02 0.  0.
          6    2    1    2  501    0 -0.11275079449E+03  0.15736978527E+02  0.14991132603E+04  0.15132705839E+04  0.17229886483E+03 0.  0.
         24    2    5    5    0    0 -0.31305300884E+02  0.15006540772E+02  0.33126591055E+03  0.34257701844E+03  0.80104256678E+02 0.  0.
          5    1    5    5  501    0 -0.81445493603E+02  0.73043775543E+00  0.11678473498E+04  0.11706935655E+04  0.47000000000E+01 0. -1.
        -13    1    6    6    0    0 -0.24967539981E+02  0.36142227068E+02  0.30555229847E+03  0.30869377339E+03  0.00000000000E+00 0.  1.
         14    1    6    6    0    0 -0.63377609032E+01 -0.21135686297E+02  0.25713612080E+02  0.33883245044E+02  0.00000000000E+00 0. -1.
         -5    1    3    3    0  503  0.18168987716E+02 -0.28898304204E+02  0.75532689378E+03  0.75611244571E+03  0.47000000000E+01 0.  1.
         11    1    4    4    0    0  0.34805799435E+02  0.42588575173E+02  0.24895208882E+03  0.25495562935E+03  0.00000000000E+00 0. -1.
        -12    1    4    4    0    0  0.59776007337E+02 -0.29427249496E+02  0.20344712861E+03  0.21407911670E+03  0.00000000000E+00 0.  1.
</event>
<event>
12    1  0.1050869E+000  0.2456539E+03  0.7818608E-02  0.1116106E+00
         21   -1    0    0  501  502  0.00000000000E+00  0.00000000000E+00  0.16295521934E+03  0.16295521934E+03  0.00000000000E+00 0.  1.
         21   -1    0    0  502  503 -0.00000000000E+00 -0.00000000000E+00 -0.37698421696E+03  0.37698421696E+03  0.00000000000E+00 0.  1.
         -6    2    1    2    0  503 -0.15961662265E+03  0.73362961441E+02 -0.14346671550E+03  0.28435211534E+03  0.17150462591E+03 0.  0.
        -24    2    3    3    0    0 -0.76192822242E+02  0.95677256167E+02 -0.42511852966E+02  0.15141817502E+03  0.78490270565E+02 0.  0.
          6    2    1    2  501    0  0.15961662265E+03 -0.73362961441E+02 -0.70562282131E+02  0.25558732096E+03  0.17171561559E+03 0.  0.
         24    2    5    5    0    0  0.89373298899E+02  0.26395034957E+02 -0.27117508421E+02  0.12599055889E+03  0.80336649415E+02 0.  0.
          5    1    5    5  501    0  0.70243323747E+02 -0.99757996398E+02 -0.43444773710E+02  0.12959676207E+03  0.47000000000E+01 0. -1.
        -11    1    6    6    0    0  0.27659526379E+02  0.20154761195E+02  0.27063133611E+02  0.43631147122E+02  0.00000000000E+00 0.  1.
         12    1    6    6    0    0  0.61713772520E+02  0.62402737621E+01 -0.54180642032E+02  0.82359411765E+02  0.00000000000E+00 0. -1.
         -5    1    3    3    0  503 -0.83423800404E+02 -0.22314294726E+02 -0.10095486253E+03  0.13293394033E+03  0.47000000000E+01 0.  1.
         13    1    4    4    0    0 -0.31141176317E+02  0.48656365022E+02 -0.60710325148E+02  0.83803092420E+02  0.00000000000E+00 0. -1.
        -14    1    4    4    0    0 -0.45051645925E+02  0.47020891146E+02  0.18198472182E+02  0.67615082596E+02  0.00000000000E+00 0.  1.
</event>
<event>
12    1  0.1050869E+000  0.2214215E+03  0.7818608E-02  0.1133363E+00
         21   -1    0    0  503  502  0.00000000000E+00  0.00000000000E+00  0.56209224842E+03  0.56209224842E+03  0.00000000000E+00 0. -1.
         21   -1    0    0  501  503 -0.00000000000E+00 -0.00000000000E+00 -0.86804774393E+02  0.86804774393E+02  0.00000000000E+00 0. -1.
          6    2    1    2  501    0 -0.13557577185E+03 -0.13076942899E+02  0.20982705975E+03  0.30504896989E+03  0.17457285779E+03 0.  0.
         24    2    3    3    0    0 -0.10613642835E+03 -0.65455164303E+02  0.96800782418E+02  0.17695844569E+03  0.79966118233E+02 0.  0.
         -6    2    1    2    0  502  0.13557577185E+03  0.13076942899E+02  0.26546041428E+03  0.34384805293E+03  0.17091066557E+03 0.  0.
        -24    2    5    5    0    0  0.89214966823E+02  0.75074884573E+02  0.17513692603E+03  0.22479557902E+03  0.79148979070E+02 0.  0.
          5    1    3    3  501    0 -0.29439343495E+02  0.52378221403E+02  0.11302627733E+03  0.12809052420E+03  0.47000000000E+01 0. -1.
        -13    1    4    4    0    0 -0.11819887228E+03 -0.62084150479E+02  0.95933302234E+02  0.16440381269E+03  0.00000000000E+00 0.  1.
         14    1    4    4    0    0  0.12062443930E+02 -0.33710138236E+01  0.86748018416E+00  0.12554632995E+02  0.00000000000E+00 0. -1.
         -5    1    5    5    0  502  0.46360805026E+02 -0.61997941674E+02  0.90323488250E+02  0.11905247391E+03  0.47000000000E+01 0.  1.
         11    1    6    6    0    0  0.44138711647E+02  0.42237969542E+02  0.15308571374E+03  0.16482568880E+03  0.00000000000E+00 0. -1.
        -12    1    6    6    0    0  0.45076255176E+02  0.32836915032E+02  0.22051212291E+02  0.59969890220E+02  0.00000000000E+00 0.  1.
</event>
<event>
12    1  0.1050869E+000  0.2950087E+03  0.7818608E-02  0.1087785E+00
         21   -1    0    0  501  502  0.00000000000E+00  0.00000000000E+00  0.50773733911E+02  0.50773733911E+02  0.00000000000E+00 0. -1.
         21   -1    0    0  502  503 -0.00000000000E+00 -0.00000000000E+00 -0.17144932787E+04  0.17144932787E+04  0.00000000000E+00 0. -1.
         -6    2    1    2    0  503 -0.23869861697E+03 -0.18330910524E+02 -0.85756333526E+03  0.90688755265E+03  0.17238650513E+03 0.  0.
        -24    2    3    3    0    0 -0.11261233866E+03 -0.71027844721E+02 -0.52399632781E+03  0.54638269151E+03  0.78964552017E+02 0.  0.
          6    2    1    2  501    0  0.23869861697E+03  0.18330910524E+02 -0.80615620951E+03  0.85837945993E+03  0.17208838160E+03 0.  0.
         24    2    5    5    0    0  0.20876038075E+03  0.11329503415E+02 -0.79386115688E+03  0.82493434057E+03  0.81190366639E+02 0.  0.
          5    1    5    5  501    0  0.29938236227E+02  0.70014071099E+01 -0.12295052624E+02  0.33445119359E+02  0.47000000000E+01 0. -1.
        -13    1    6    6    0    0  0.10626291614E+03  0.16943131527E+01 -0.25387572982E+03  0.27522275385E+03  0.00000000000E+00 0.  1.
         14    1    6    6    0    0  0.10249746461E+03  0.96351902619E+01 -0.53998542706E+03  0.54971158672E+03  0.00000000000E+00 0. -1.
         -5    1    3    3    0  503 -0.12608627831E+03  0.52696934196E+02 -0.33356700745E+03  0.36050486114E+03  0.47000000000E+01 0.  1.
         13    1    4    4    0    0 -0.29882595853E+02  0.16675930688E+02 -0.11334074842E+03  0.11839417828E+03  0.00000000000E+00 0. -1.
        -14    1    4    4    0    0 -0.82729742809E+02 -0.87703775409E+02 -0.41065557939E+03  0.42798851323E+03  0.00000000000E+00 0.  1.
</event>
<event>
12    1  0.1050869E+000  0.1988830E+03  0.7818608E-02  0.1150951E+00
         21   -1    0    0  501  502  0.00000000000E+00  0.00000000000E+00  0.75775671292E+02  0.75775671292E+02  0.00000000000E+00 0. -1.
         21   -1    0    0  502  503 -0.00000000000E+00 -0.00000000000E+00 -0.52437119470E+03  0.52437119470E+03  0.00000000000E+00 0. -1.
         -6    2    1    2    0  503  0.79820099822E+01 -0.97668413823E+02 -0.25614465343E+03  0.32429078916E+03  0.17306530823E+03 0.  0.
        -24    2    3    3    0    0  0.27140274018E+02 -0.33137434397E+01 -0.57275957371E+02  0.10329148786E+03  0.81492458560E+02 0.  0.
          6    2    1    2  501    0 -0.79820099822E+01  0.97668413823E+02 -0.19245086998E+03  0.27585607683E+03  0.17162868707E+03 0.  0.
         24    2    5    5    0    0  0.59750470167E+02  0.68334991588E+02 -0.96550170036E+02  0.15474797315E+03  0.79907509659E+02 0.  0.
          5    1    5    5  501    0 -0.67732480149E+02  0.29333422236E+02 -0.95900699941E+02  0.12110810368E+03  0.47000000000E+01 0. -1.
        -13    1    6    6    0    0 -0.84219725123E+01  0.45451387578E+02 -0.22088637745E+02  0.51231495890E+02  0.00000000000E+00 0.  1.
         14    1    6    6    0    0  0.68172442679E+02  0.22883604010E+02 -0.74461532291E+02  0.10351647726E+03  0.00000000000E+00 0. -1.
         -5    1    3    3    0  503 -0.19158264036E+02 -0.94354670384E+02 -0.19886869606E+03  0.22099930130E+03  0.47000000000E+01 0.  1.
         13    1    4    4    0    0  0.26590874451E+02 -0.65979438675E+01  0.14799654742E+02  0.31138998825E+02  0.00000000000E+00 0. -1.
        -14    1    4    4    0    0  0.54939956681E+00  0.32842004279E+01 -0.72075612113E+02  0.72152489034E+02  0.00000000000E+00 0.  1.
</event>
<event>
12    1  0.1050869E+000  0.2681144E+03  0.7818608E-02  0.1102566E+00
         21   -1    0    0  503  502  0.00000000000E+00  0.00000000000E+00  0.12085720857E+03  0.12085720857E+03  0.00000000000E+00 0.  1.
         21   -1    0    0  501  503 -0.00000000000E+00 -0.00000000000E+00 -0.64941596465E+03  0.64941596465E+03  0.00000000000E+00 0.  1.
          6    2    1    2  501    0 -0.49177824219E+02 -0.19786813056E+03 -0.15009449289E+03  0.30726807071E+03  0.17411219084E+03 0.  0.
         24    2    3    3    0    0  0.21314569090E+02 -0.67692077615E+02 -0.41775068567E+02  0.12377373848E+03  0.92402671808E+02 0.  0.
         -6    2    1    2    0  502  0.49177824219E+02  0.19786813056E+03 -0.37846426319E+03  0.46300510251E+03  0.17195426994E+03 0.  0.
        -24    2    5    5    0    0 -0.10888744022E+02  0.15625312554E+03 -0.32201960039E+03  0.37055029613E+03  0.95274838978E+02 0.  0.
          5    1    3    3  501    0 -0.70492393308E+02 -0.13017605294E+03 -0.10831942432E+03  0.18349433223E+03  0.47000000000E+01 0. -1.
        -13    1    4    4    0    0  0.40298646940E+02 -0.78819742939E+02 -0.48271372600E+02  0.10082984794E+03  0.00000000000E+00 0.  1.
         14    1    4    4    0    0 -0.18984077850E+02  0.11127665324E+02  0.64963040329E+01  0.22943890548E+02  0.00000000000E+00 0. -1.
         -5    1    5    5    0  502  0.60066568241E+02  0.41615005017E+02 -0.56444662799E+02  0.92454806372E+02  0.47000000000E+01 0.  1.
         13    1    6    6    0    0  0.53531585897E+01  0.12291452919E+03 -0.30664420000E+03  0.33040475660E+03  0.00000000000E+00 0. -1.
        -14    1    6    6    0    0 -0.16241902612E+02  0.33338596350E+02 -0.15375400391E+02  0.40145539531E+02  0.00000000000E+00 0.  1.
</event>
<event>
12    1  0.1050869E+000  0.2223105E+03  0.7818608E-02  0.1132573E+00
         21   -1    0    0  501  502  0.00000000000E+00  0.00000000000E+00  0.92224104511E+02  0.92224104511E+02  0.00000000000E+00 0.  1.
         21   -1    0    0  502  503 -0.00000000000E+00 -0.00000000000E+00 -0.94385040016E+03  0.94385040016E+03  0.00000000000E+00 0.  1.
         -6    2    1    2    0  503 -0.88408311458E+02 -0.11170286778E+03 -0.81896581261E+02  0.23488427720E+03  0.16783924884E+03 0.  0.
        -24    2    3    3    0    0 -0.79091112540E+02 -0.53500300121E+02 -0.11280665685E+03  0.16816192824E+03  0.80220982818E+02 0.  0.
          6    2    1    2  501    0  0.88408311458E+02  0.11170286778E+03 -0.76972971439E+03  0.80119022746E+03  0.17067040508E+03 0.  0.
         24    2    5    5    0    0  0.45025899970E+02  0.12713582974E+03 -0.70111639817E+03  0.71842497447E+03  0.79871079147E+02 0.  0.
          5    1    5    5  501    0  0.43382411488E+02 -0.15432961961E+02 -0.68613316216E+02  0.82765252996E+02  0.47000000000E+01 0. -1.
        -13    1    6    6    0    0 -0.13099642846E+02  0.79142254658E+01 -0.24177981667E+02  0.28614863357E+02  0.00000000000E+00 0.  1.
         14    1    6    6    0    0  0.58125542817E+02  0.11922160427E+03 -0.67693841650E+03  0.68981011111E+03  0.00000000000E+00 0. -1.
         -5    1    3    3    0  503 -0.93171989186E+01 -0.58202567658E+02  0.30910075592E+02  0.66722348961E+02  0.47000000000E+01 0.  1.
         13    1    4    4    0    0 -0.37148503726E+02 -0.11058341040E+02  0.19611858009E+01  0.38809077358E+02  0.00000000000E+00 0. -1.
        -14    1    4    4    0    0 -0.41942608814E+02 -0.42441959081E+02 -0.11476784265E+03  0.12935285089E+03  0.00000000000E+00 0.  1.
</event>
<event>
12    1  0.1050869E+000  0.3960618E+03  0.7818608E-02  0.1045257E+00
         21   -1    0    0  501  502  0.00000000000E+00  0.00000000000E+00  0.11733135870E+04  0.11733135870E+04  0.00000000000E+00 0.  1.
         21   -1    0    0  502  503 -0.00000000000E+00 -0.00000000000E+00 -0.13686345855E+03  0.13686345855E+03  0.00000000000E+00 0.  1.
         -6    2    1    2    0  503  0.29463504785E+03  0.20046750141E+03  0.41311873659E+03  0.57230413960E+03  0.17282334085E+03 0.  0.
        -24    2    3    3    0    0  0.75936388450E+02  0.57610830691E+02  0.19650587494E+03  0.23292182742E+03  0.80948600342E+02 0.  0.
          6    2    1    2  501    0 -0.29463504785E+03 -0.20046750141E+03  0.62333139182E+03  0.73787290590E+03  0.17005108260E+03 0.  0.
         24    2    5    5    0    0 -0.10431605303E+03 -0.20564885682E+02  0.19044414998E+03  0.23190875195E+03  0.78790491352E+02 0.  0.
          5    1    5    5  501    0 -0.19031899482E+03 -0.17990261572E+03  0.43288724184E+03  0.50596415395E+03  0.47000000000E+01 0. -1.
        -11    1    6    6    0    0 -0.85947928293E+01 -0.98269151907E+00 -0.73160883848E+01  0.11329664411E+02  0.00000000000E+00 0.  1.
         12    1    6    6    0    0 -0.95721260205E+02 -0.19582194163E+02  0.19776023836E+03  0.22057908754E+03  0.00000000000E+00 0. -1.
         -5    1    3    3    0  503  0.21869865940E+03  0.14285667071E+03  0.21661286165E+03  0.33938231219E+03  0.47000000000E+01 0.  1.
         11    1    4    4    0    0  0.89423241295E+02  0.57390713791E+02  0.14553350303E+03  0.18019492395E+03  0.00000000000E+00 0. -1.
        -12    1    4    4    0    0 -0.13486852845E+02  0.22011690004E+00  0.50972371908E+02  0.52726903465E+02  0.00000000000E+00 0.  1.
</event>
<event>
12    1  0.1050869E+000  0.1908423E+03  0.7818608E-02  0.1157815E+00
         21   -1    0    0  503  502  0.00000000000E+00  0.00000000000E+00  0.48768401273E+03  0.48768401273E+03  0.00000000000E+00 0.  1.
         21   -1    0    0  501  503 -0.00000000000E+00 -0.00000000000E+00 -0.15107425251E+03  0.15107425251E+03  0.00000000000E+00 0.  1.
          6    2    1    2  501    0  0.36800977201E+02  0.74256383090E+02  0.39559657911E+03  0.43900783975E+03  0.17135608424E+03 0.  0.
         24    2    3    3    0    0  0.48861250509E+02  0.11352405767E+03  0.28857535536E+03  0.32427757874E+03  0.81271636371E+02 0.  0.
         -6    2    1    2    0  502 -0.36800977201E+02 -0.74256383090E+02 -0.58986818885E+02  0.19975042549E+03  0.17190830501E+03 0.  0.
        -24    2    5    5    0    0 -0.42741949062E+02 -0.11659211231E+03 -0.37816121974E+02  0.15181403511E+03  0.78720056620E+02 0.  0.
          5    1    3    3  501    0 -0.12060273308E+02 -0.39267674582E+02  0.10702122374E+03  0.11473026101E+03  0.47000000000E+01 0. -1.
        -11    1    4    4    0    0 -0.85380864429E+01  0.18662378695E+01  0.82561701537E+02  0.83022986724E+02  0.00000000000E+00 0.  1.
         12    1    4    4    0    0  0.57399336952E+02  0.11165781980E+03  0.20601365382E+03  0.24125459201E+03  0.00000000000E+00 0. -1.
         -5    1    5    5    0  502  0.59409718607E+01  0.42335729217E+02 -0.21170696910E+02  0.47936390380E+02  0.47000000000E+01 0.  1.
         13    1    6    6    0    0 -0.18745305839E+02 -0.46358051168E+02 -0.56326586190E+02  0.75320247682E+02  0.00000000000E+00 0. -1.
        -14    1    6    6    0    0 -0.23996643223E+02 -0.70234061139E+02  0.18510464216E+02  0.76493787431E+02  0.00000000000E+00 0.  1.
</event>
<event>
12    1  0.1050869E+000  0.2205355E+03  0.7818608E-02  0.1133531E+00
         21   -1    0    0  501  502  0.00000000000E+00  0.00000000000E+00  0.16329732566E+03  0.16329732566E+03  0.00000000000E+00 0. -1.
         21   -1    0    0  502  503 -0.00000000000E+00 -0.00000000000E+00 -0.38619652574E+03  0.38619652574E+03  0.00000000000E+00 0. -1.
         -6    2    1    2    0  503  0.86485663332E+02  0.10769251180E+03  0.20171862783E+02  0.22145608068E+03  0.17192569489E+03 0.  0.
        -24    2    3    3    0    0  0.38438303210E+02  0.13520814609E+03 -0.22919728274E+01  0.16151967392E+03  0.79527391528E+02 0.  0.
          6    2    1    2  501    0 -0.86485663332E+02 -0.10769251180E+03 -0.24307106286E+03  0.32803777072E+03  0.17160358492E+03 0.  0.
         24    2    5    5    0    0 -0.12327439891E+03 -0.74239422651E+02 -0.15136920567E+03  0.22361631291E+03  0.79897119300E+02 0.  0.
          5    1    5    5  501    0  0.36788735575E+02 -0.33453089149E+02 -0.91701857193E+02  0.10442145781E+03  0.47000000000E+01 0. -1.
        -11    1    6    6    0    0 -0.66055466717E+02 -0.75614304052E+02 -0.63659639492E+02  0.11888396595E+03  0.00000000000E+00 0.  1.
         12    1    6    6    0    0 -0.57218932190E+02  0.13748814006E+01 -0.87709566178E+02  0.10473234696E+03  0.00000000000E+00 0. -1.
         -5    1    3    3    0  503  0.48047360121E+02 -0.27515634287E+02  0.22463835610E+02  0.59936406759E+02  0.47000000000E+01 0.  1.
         11    1    4    4    0    0 -0.22395555250E+02  0.29732922750E+02 -0.12660404498E+02  0.39317851318E+02  0.00000000000E+00 0. -1.
        -12    1    4    4    0    0  0.60833858460E+02  0.10547522334E+03  0.10368431670E+02  0.12220182261E+03  0.00000000000E+00 0.  1.
</event>
<event>
12    1  0.1050869E+000  0.1967231E+03  0.7818608E-02  0.1153089E+00
         21   -1    0    0  501  502  0.00000000000E+00  0.00000000000E+00  0.23687664916E+03  0.23687664916E+03  0.00000000000E+00 0.  1.
         21   -1    0    0  502  503 -0.00000000000E+00 -0.00000000000E+00 -0.20701815435E+03  0.20701815435E+03  0.00000000000E+00 0.  1.
         -6    2    1    2    0  503 -0.79842152004E+02 -0.42765113086E+02  0.11935523705E+03  0.23009921584E+03  0.17463204856E+03 0.  0.
        -24    2    3    3    0    0 -0.62031923430E+02  0.23602380936E+02  0.16212370613E+02  0.10607345480E+03  0.81140032921E+02 0.  0.
          6    2    1    2  501    0  0.79842152004E+02  0.42765113086E+02 -0.89496742245E+02  0.21379558767E+03  0.17174184784E+03 0.  0.
         24    2    5    5    0    0  0.14061185186E+02 -0.31850534430E+02 -0.72018198610E+02  0.11269059305E+03  0.79374903832E+02 0.  0.
          5    1    5    5  501    0  0.65780966818E+02  0.74615647515E+02 -0.17478543635E+02  0.10110499462E+03  0.47000000000E+01 0. -1.
        -13    1    6    6    0    0  0.43385299502E+02 -0.33328611910E+02 -0.59333037859E+02  0.80706195340E+02  0.00000000000E+00 0.  1.
         14    1    6    6    0    0 -0.29324114317E+02  0.14780774800E+01 -0.12685160751E+02  0.31984397709E+02  0.00000000000E+00 0. -1.
         -5    1    3    3    0  503 -0.17810228574E+02 -0.66367494021E+02  0.10314286644E+03  0.12402576104E+03  0.47000000000E+01 0.  1.
         13    1    4    4    0    0 -0.19911293546E+02 -0.27081214712E+02 -0.10123688328E+02  0.35104712879E+02  0.00000000000E+00 0. -1.
        -14    1    4    4    0    0 -0.42120629884E+02  0.50683595648E+02  0.26336058941E+02  0.70968741923E+02  0.00000000000E+00 0.  1.
</event>
<event>
12    1  0.1050869E+000  0.2567254E+03  0.7818608E-02  0.1109341E+00
         21   -1    0    0  501  502  0.00000000000E+00  0.00000000000E+00  0.33458115358E+03  0.33458115358E+03  0.00000000000E+00 0.  1.
         21   -1    0    0  502  503 -0.00000000000E+00 -0.00000000000E+00 -0.23171759070E+03  0.23171759070E+03  0.00000000000E+00 0.  1.
         -6    2    1    2    0  503 -0.18963133770E+03 -0.41158821843E+01  0.16260964092E+03  0.30271286378E+03  0.17092746372E+03 0.  0.
        -24    2    3    3    0    0 -0.17020326462E+03  0.50321141222E+02  0.90748943282E+02  0.21037170608E+03  0.67227341672E+02 0.  0.
          6    2    1    2  501    0  0.18963133770E+03  0.41158821843E+01 -0.59746078041E+02  0.26358588050E+03  0.17300560059E+03 0.  0.
         24    2    5    5    0    0  0.17480022791E+02  0.71606997553E+01 -0.28885588830E+02  0.88600721325E+02  0.81601983796E+02 0.  0.
          5    1    5    5  501    0  0.17215131491E+03 -0.30448175709E+01 -0.30860489211E+02  0.17498515918E+03  0.47000000000E+01 0. -1.
        -13    1    6    6    0    0 -0.42592884845E+01  0.10089179022E+02  0.26691795168E+02  0.28851083186E+02  0.00000000000E+00 0.  1.
         14    1    6    6    0    0  0.21739311276E+02 -0.29284792669E+01 -0.55577383998E+02  0.59749638138E+02  0.00000000000E+00 0. -1.
         -5    1    3    3    0  503 -0.19428073077E+02 -0.54437023407E+02  0.71860697638E+02  0.92341157703E+02  0.47000000000E+01 0.  1.
         13    1    4    4    0    0 -0.13359035397E+03  0.15510316070E+02  0.85988553739E+02  0.15962764157E+03  0.00000000000E+00 0. -1.
        -14    1    4    4    0    0 -0.36612910656E+02  0.34810825152E+02  0.47603895436E+01  0.50744064511E+02  0.00000000000E+00 0.  1.
</event>
<event>
12    1  0.1050869E+000  0.1950671E+03  0.7818608E-02  0.1154121E+00
         21   -1    0    0  503  502  0.00000000000E+00  0.00000000000E+00  0.55504006743E+03  0.55504006743E+03  0.00000000000E+00 0. -1.
         21   -1    0    0  501  503 -0.00000000000E+00 -0.00000000000E+00 -0.92749741278E+02  0.92749741278E+02  0.00000000000E+00 0. -1.
          6    2    1    2  501    0  0.12033609690E+02  0.90905295951E+02  0.39709918802E+03  0.44211763198E+03  0.17138160574E+03 0.  0.
         24    2    3    3    0    0  0.45763190022E+02  0.75351921308E+02  0.10121234274E+03  0.14387158043E+03  0.51796831248E+02 0.  0.
         -6    2    1    2    0  502 -0.12033609690E+02 -0.90905295951E+02  0.65191138136E+02  0.20567217674E+03  0.17217020415E+03 0.  0.
        -24    2    5    5    0    0  0.52226861573E+02 -0.76680975546E+02  0.67689689874E+02  0.13964133380E+03  0.79436710091E+02 0.  0.
          5    1    3    3  501    0 -0.33729580333E+02  0.15553374642E+02  0.29588684528E+03  0.29824605154E+03  0.47000000000E+01 0. -1.
        -13    1    4    4    0    0  0.20405890406E+02  0.58289264325E+02  0.35098020839E+02  0.71034567400E+02  0.00000000000E+00 0.  1.
         14    1    4    4    0    0  0.25357299617E+02  0.17062656983E+02  0.66114321899E+02  0.72837013031E+02  0.00000000000E+00 0. -1.
         -5    1    5    5    0  502 -0.64260471262E+02 -0.14224320405E+02 -0.24985517384E+01  0.66030842934E+02  0.47000000000E+01 0.  1.
         13    1    6    6    0    0  0.14897737585E+02  0.10100468916E+02  0.35563304426E+02  0.39858633684E+02  0.00000000000E+00 0. -1.
        -14    1    6    6    0    0  0.37329123988E+02 -0.86781444462E+02  0.32126385448E+02  0.99782700116E+02  0.00000000000E+00 0.  1.
</event>
<event>
12    1  0.1050869E+000  0.1888440E+03  0.7818608E-02  0.1159511E+00
         21   -1    0    0  501  502  0.00000000000E+00  0.00000000000E+00  0.63507686485E+02  0.63507686485E+02  0.00000000000E+00 0. -1.
         21   -1    0    0  502  503 -0.00000000000E+00 -0.00000000000E+00 -0.57986157100E+03  0.57986157100E+03  0.00000000000E+00 0. -1.
         -6    2    1    2    0  503 -0.74429588938E+02 -0.24709643833E+02 -0.31540990378E+03  0.36761474108E+03  0.17177561017E+03 0.  0.
        -24    2    3    3    0    0 -0.98506688206E+02 -0.52005573437E+02 -0.29535466558E+03  0.32579277244E+03  0.80612683892E+02 0.  0.
          6    2    1    2  501    0  0.74429588938E+02  0.24709643833E+02 -0.20094398073E+03  0.27575451640E+03  0.17178981260E+03 0.  0.
         24    2    5    5    0    0  0.10277713950E+03 -0.17720645054E+02 -0.10695167480E+03  0.16870052716E+03  0.78383961731E+02 0.  0.
          5    1    5    5  501    0 -0.28347550561E+02  0.42430288887E+02 -0.93992305929E+02  0.10705398924E+03  0.47000000000E+01 0. -1.
        -13    1    6    6    0    0  0.18071113109E+01 -0.10276554181E+02 -0.52923922442E+02  0.53942699077E+02  0.00000000000E+00 0.  1.
         14    1    6    6    0    0  0.10097002819E+03 -0.74440908734E+01 -0.54027752359E+02  0.11475782808E+03  0.00000000000E+00 0. -1.
         -5    1    3    3    0  503  0.24077099267E+02  0.27295929604E+02 -0.20055238205E+02  0.41821968647E+02  0.47000000000E+01 0.  1.
         13    1    4    4    0    0 -0.37281974533E+02 -0.63965015953E+02 -0.18042138295E+03  0.19502139451E+03  0.00000000000E+00 0. -1.
        -14    1    4    4    0    0 -0.61224713672E+02  0.11959442516E+02 -0.11493328263E+03  0.13077137793E+03  0.00000000000E+00 0.  1.
</event>
<event>
12    1  0.1050869E+000  0.1842664E+03  0.7818608E-02  0.1164986E+00
         21   -1    0    0  501  502  0.00000000000E+00  0.00000000000E+00  0.49796651267E+03  0.49796651267E+03  0.00000000000E+00 0.  1.
         21   -1    0    0  502  503 -0.00000000000E+00 -0.00000000000E+00 -0.66598999958E+02  0.66598999958E+02  0.00000000000E+00 0.  1.
         -6    2    1    2    0  503 -0.55846080463E+02  0.23729231526E+02  0.23891616439E+03  0.30172015992E+03  0.17398925301E+03 0.  0.
        -24    2    3    3    0    0  0.16221952926E+02  0.49252305600E+02  0.75120930144E+02  0.12089926094E+03  0.79275064086E+02 0.  0.
          6    2    1    2  501    0  0.55846080463E+02 -0.23729231526E+02  0.19245134832E+03  0.26284535271E+03  0.16842890737E+03 0.  0.
         24    2    5    5    0    0  0.82662414520E+02 -0.95984228983E+01  0.20027581255E+03  0.23118926695E+03  0.80080406865E+02 0.  0.
          5    1    5    5  501    0 -0.26816334056E+02 -0.14130808628E+02 -0.78244642339E+01  0.31656085754E+02  0.47000000000E+01 0. -1.
        -13    1    6    6    0    0  0.54958598562E+02  0.73097057302E+01  0.41826968179E+02  0.69450519227E+02  0.00000000000E+00 0.  1.
         14    1    6    6    0    0  0.27703815957E+02 -0.16908128629E+02  0.15844884438E+03  0.16173874773E+03  0.00000000000E+00 0. -1.
         -5    1    3    3    0  503 -0.72068033389E+02 -0.25523074074E+02  0.16379523425E+03  0.18082089898E+03  0.47000000000E+01 0.  1.
         11    1    4    4    0    0  0.15283470219E+02  0.11730293156E+02  0.80686804898E+02  0.82955076542E+02  0.00000000000E+00 0. -1.
        -12    1    4    4    0    0  0.93848270707E+00  0.37522012445E+02 -0.55658747537E+01  0.37944184396E+02  0.00000000000E+00 0.  1.
</event>
<event>
12    1  0.1050869E+000  0.2061206E+03  0.7818608E-02  0.1144758E+00
         21   -1    0    0  501  502  0.00000000000E+00  0.00000000000E+00  0.96259488703E+03  0.96259488703E+03  0.00000000000E+00 0. -1.
         21   -1    0    0  502  503 -0.00000000000E+00 -0.00000000000E+00 -0.45253472891E+02  0.45253472891E+02  0.00000000000E+00 0. -1.
         -6    2    1    2    0  503  0.47340926455E+02  0.10377154610E+03  0.37604396894E+03  0.42863456300E+03  0.17119820361E+03 0.  0.
        -24    2    3    3    0    0  0.81346337468E+02  0.25630490984E+02  0.17580687076E+03  0.21096651766E+03  0.79527775521E+02 0.  0.
          6    2    1    2  501    0 -0.47340926455E+02 -0.10377154610E+03  0.54129744520E+03  0.57921379692E+03  0.17168576317E+03 0.  0.
         24    2    5    5    0    0 -0.20170870378E+02 -0.13809904589E+03  0.44496218154E+03  0.47329325022E+03  0.80851389721E+02 0.  0.
          5    1    5    5  501    0 -0.27170056077E+02  0.34327499794E+02  0.96335263661E+02  0.10592054670E+03  0.47000000000E+01 0. -1.
        -13    1    6    6    0    0  0.15868519929E+02 -0.10103887360E+03  0.22215816764E+03  0.24457088001E+03  0.00000000000E+00 0.  1.
         14    1    6    6    0    0 -0.36039390307E+02 -0.37060172294E+02  0.22280401390E+03  0.22872237021E+03  0.00000000000E+00 0. -1.
         -5    1    3    3    0  503 -0.34005411013E+02  0.78141055112E+02  0.20023709819E+03  0.21766804534E+03  0.47000000000E+01 0.  1.
         13    1    4    4    0    0 -0.32301225295E+00  0.10929033375E+02 -0.50027627741E+01  0.12023965353E+02  0.00000000000E+00 0. -1.
        -14    1    4    4    0    0  0.81669349721E+02  0.14701457609E+02  0.18080963353E+03  0.19894255230E+03  0.00000000000E+00 0.  1.
</event>
<event>
12    1  0.1050869E+000  0.2196615E+03  0.7818608E-02  0.1134904E+00
         21   -1    0    0  503  502  0.00000000000E+00  0.00000000000E+00  0.38253646176E+03  0.38253646176E+03  0.00000000000E+00 0.  1.
         21   -1    0    0  501  503 -0.00000000000E+00 -0.00000000000E+00 -0.13565344562E+03  0.13565344562E+03  0.00000000000E+00 0.  1.
          6    2    1    2  501    0  0.97548887072E+02 -0.95855834982E+02  0.45818317753E+02  0.22040111129E+03  0.16665294822E+03 0.  0.
         24    2    3    3    0    0  0.12308615956E+03 -0.10988711258E+03  0.26805669328E+02  0.18529271006E+03  0.79934124788E+02 0.  0.
         -6    2    1    2    0  502 -0.97548887072E+02  0.95855834982E+02  0.20106469838E+03  0.29778879609E+03  0.17189248870E+03 0.  0.
        -24    2    5    5    0    0 -0.10383062911E+03  0.12766802177E+03  0.18712991503E+03  0.26218340747E+03  0.81502213042E+02 0.  0.
          5    1    3    3  501    0 -0.25537272487E+02  0.14031277602E+02  0.19012648425E+02  0.35108401236E+02  0.47000000000E+01 0. -1.
        -13    1    4    4    0    0 -0.11377764443E+02 -0.60184152715E+01 -0.17844268271E+01  0.12994576761E+02  0.00000000000E+00 0.  1.
         14    1    4    4    0    0  0.13446392400E+03 -0.10386869731E+03  0.28590096155E+02  0.17229813330E+03  0.00000000000E+00 0. -1.
         -5    1    5    5    0  502  0.62817420352E+01 -0.31812186790E+02  0.13934783349E+02  0.35605388614E+02  0.47000000000E+01 0.  1.
         11    1    6    6    0    0 -0.15857125838E+02  0.23519930318E+02 -0.26741251657E+01  0.28491867391E+02  0.00000000000E+00 0. -1.
        -12    1    6    6    0    0 -0.87973503269E+02  0.10414809145E+03  0.18980404020E+03  0.23369154008E+03  0.00000000000E+00 0.  1.
</event>
<event>
12    1  0.1050869E+000  0.2018946E+03  0.7818608E-02  0.1148183E+00
         21   -1    0    0  503  502  0.00000000000E+00  0.00000000000E+00  0.15420113613E+04  0.15420113613E+04  0.00000000000E+00 0.  1.
         21   -1    0    0  501  503 -0.00000000000E+00 -0.00000000000E+00 -0.29586859619E+02  0.29586859619E+02  0.00000000000E+00 0.  1.
          6    2    1    2  501    0  0.10259592551E+03  0.25543020455E+02  0.10133096231E+04  0.10331958620E+04  0.17181073052E+03 0.  0.
         24    2    3    3    0    0  0.52430094063E+02  0.66661074967E+02  0.84301956384E+03  0.85091009914E+03  0.78570975055E+02 0.  0.
         -6    2    1    2    0  502 -0.10259592551E+03 -0.25543020455E+02  0.49911487859E+03  0.53840235894E+03  0.17199729144E+03 0.  0.
        -24    2    5    5    0    0 -0.72387894633E+02  0.24499830055E+02  0.44535763967E+03  0.45884896333E+03  0.79741425743E+02 0.  0.
          5    1    3    3  501    0  0.50165831451E+02 -0.41118054512E+02  0.17029005926E+03  0.18228576284E+03  0.47000000000E+01 0. -1.
        -11    1    4    4    0    0 -0.50612289491E+01 -0.98872837408E+01  0.24712447359E+03  0.24737396764E+03  0.00000000000E+00 0.  1.
         12    1    4    4    0    0  0.57491323012E+02  0.76548358708E+02  0.59589509025E+03  0.60353613150E+03  0.00000000000E+00 0. -1.
         -5    1    5    5    0  502 -0.30208030881E+02 -0.50042850510E+02  0.53757238919E+02  0.79553395610E+02  0.47000000000E+01 0.  1.
         11    1    6    6    0    0 -0.65598005193E+02  0.58547070548E+01  0.42622961194E+03  0.43128767426E+03  0.00000000000E+00 0. -1.
        -12    1    6    6    0    0 -0.67898894395E+01  0.18645123000E+02  0.19128027731E+02  0.27561289069E+02  0.00000000000E+00 0.  1.
</event>
<event>
12    1  0.1050869E+000  0.2196998E+03  0.7818608E-02  0.1134604E+00
         21   -1    0    0  501  502  0.00000000000E+00  0.00000000000E+00  0.76192870201E+02  0.76192870201E+02  0.00000000000E+00 0.  1.
         21   -1    0    0  502  503 -0.00000000000E+00 -0.00000000000E+00 -0.17835724744E+04  0.17835724744E+04  0.00000000000E+00 0.  1.
         -6    2    1    2    0  503 -0.16795066497E+02  0.12880934806E+03 -0.10634567655E+03  0.24408486145E+03  0.17718378669E+03 0.  0.
        -24    2    3    3    0    0 -0.78982667683E+02  0.81433225001E+02 -0.49564173705E+02  0.14734798202E+03  0.79907374890E+02 0.  0.
          6    2    1    2  501    0  0.16795066497E+02 -0.12880934806E+03 -0.16010339276E+04  0.16156804831E+04  0.17389612916E+03 0.  0.
         24    2    5    5    0    0  0.42208086532E+01 -0.74483046028E+02 -0.14584203837E+04  0.14624807052E+04  0.79336360219E+02 0.  0.
          5    1    5    5  501    0  0.12574257843E+02 -0.54326302029E+02 -0.14261354393E+03  0.15319977796E+03  0.47000000000E+01 0. -1.
        -11    1    6    6    0    0  0.32192918696E+02 -0.36876735123E+02 -0.10889122443E+04  0.10900119969E+04  0.00000000000E+00 0.  1.
         12    1    6    6    0    0 -0.27972110043E+02 -0.37606310905E+02 -0.36950813940E+03  0.37246870827E+03  0.00000000000E+00 0. -1.
         -5    1    3    3    0  503  0.62187601187E+02  0.47376123056E+02 -0.56781502845E+02  0.96736879434E+02  0.47000000000E+01 0.  1.
         13    1    4    4    0    0 -0.38521740507E+01  0.35954411334E+01  0.18700396473E+02  0.19428619871E+02  0.00000000000E+00 0. -1.
        -14    1    4    4    0    0 -0.75130493633E+02  0.77837783867E+02 -0.68264570178E+02  0.12791936215E+03  0.00000000000E+00 0.  1.
</event>
<event>
12    1  0.1050869E+000  0.1929369E+03  0.7818608E-02  0.1157120E+00
         21   -1    0    0  503  502  0.00000000000E+00  0.00000000000E+00  0.41595888671E+02  0.41595888671E+02  0.00000000000E+00 0. -1.
         21   -1    0    0  501  503 -0.00000000000E+00 -0.00000000000E+00 -0.11190989230E+04  0.11190989230E+04  0.00000000000E+00 0. -1.
          6    2    1    2  501    0 -0.21782985485E+01 -0.83028301051E+02 -0.81954964182E+03  0.84195384067E+03  0.17414422372E+03 0.  0.
         24    2    3    3    0    0 -0.22027457356E+02  0.22665355308E+02 -0.33332868018E+03  0.34395981296E+03  0.78749074224E+02 0.  0.
         -6    2    1    2    0  502  0.21782985485E+01  0.83028301051E+02 -0.25795339250E+03  0.31874097099E+03  0.16780169882E+03 0.  0.
        -24    2    5    5    0    0 -0.16376001378E+01  0.25288174352E+02 -0.24526287634E+03  0.25931351509E+03  0.80295996805E+02 0.  0.
          5    1    3    3  501    0  0.19849158807E+02 -0.10569365636E+03 -0.48622096164E+03  0.49799402771E+03  0.47000000000E+01 0. -1.
        -13    1    4    4    0    0  0.22748597366E+02  0.32400462040E+01 -0.36397001537E+02  0.43043446684E+02  0.00000000000E+00 0.  1.
         14    1    4    4    0    0 -0.44776054722E+02  0.19425309104E+02 -0.29693167864E+03  0.30091636627E+03  0.00000000000E+00 0. -1.
         -5    1    5    5    0  502  0.38158986863E+01  0.57740126699E+02 -0.12690516158E+02  0.59427455897E+02  0.47000000000E+01 0.  1.
         13    1    6    6    0    0  0.23909826996E+02  0.22756227608E+02 -0.37447247483E+02  0.49918153672E+02  0.00000000000E+00 0. -1.
        -14    1    6    6    0    0 -0.25547427134E+02  0.25319467440E+01 -0.20781562886E+03  0.20939536142E+03  0.00000000000E+00 0.  1.
</event>
<event>
12    1  0.1050869E+000  0.2822517E+03  0.7818608E-02  0.1094624E+00
         21   -1    0    0  501  502  0.00000000000E+00  0.00000000000E+00  0.97062457125E+02  0.97062457125E+02  0.00000000000E+00 0.  1.
         21   -1    0    0  502  503 -0.00000000000E+00 -0.00000000000E+00 -0.94861574972E+03  0.94861574972E+03  0.00000000000E+00 0. -1.
         -6    2    1    2    0  503  0.99204521743E+02  0.19894537762E+03 -0.23053683320E+03  0.36352904604E+03  0.17200388207E+03 0.  0.
        -24    2    3    3    0    0  0.74206423272E+02  0.14633619647E+03 -0.24287957832E+03  0.30380414148E+03  0.79909893999E+02 0.  0.
          6    2    1    2  501    0 -0.99204521743E+02 -0.19894537762E+03 -0.62101645940E+03  0.68214916081E+03  0.17391157043E+03 0.  0.
         24    2    5    5    0    0 -0.90951743742E+02 -0.61091904852E+02 -0.22345157028E+03  0.26125532697E+03  0.79494031732E+02 0.  0.
          5    1    5    5  501    0 -0.82527780015E+01 -0.13785347277E+03 -0.39756488912E+03  0.42089383383E+03  0.47000000000E+01 0. -1.
        -11    1    6    6    0    0 -0.35218734711E+02 -0.53105535127E+02 -0.56845321642E+02  0.85392902096E+02  0.00000000000E+00 0.  1.
         12    1    6    6    0    0 -0.55733009031E+02 -0.79863697252E+01 -0.16660624864E+03  0.17586242488E+03  0.00000000000E+00 0. -1.
         -5    1    3    3    0  503  0.24998098471E+02  0.52609181150E+02  0.12342745127E+02  0.59724904568E+02  0.47000000000E+01 0.  1.
         13    1    4    4    0    0  0.40471967343E+02  0.11728356134E+03 -0.22268917226E+03  0.25491936244E+03  0.00000000000E+00 0. -1.
        -14    1    4    4    0    0  0.33734455929E+02  0.29052635132E+02 -0.20190406059E+02  0.48884779040E+02  0.00000000000E+00 0.  1.
</event>
<event>
12    1  0.1050869E+000  0.1773186E+03  0.7818608E-02  0.1170631E+00
         21   -1    0    0  501  502  0.00000000000E+00  0.00000000000E+00  0.58247740881E+03  0.58247740881E+03  0.00000000000E+00 0.  1.
         21   -1    0    0  502  503 -0.00000000000E+00 -0.00000000000E+00 -0.55654477355E+02  0.55654477355E+02  0.00000000000E+00 0.  1.
         -6    2    1    2    0  503  0.32211109410E+02  0.26166367302E+02  0.20459484772E+03  0.27074142654E+03  0.17239383395E+03 0.  0.
        -24    2    3    3    0    0 -0.10304703623E+02  0.68671510696E+02  0.78112109674E+02  0.13061914210E+03  0.78344720995E+02 0.  0.
          6    2    1    2  501    0 -0.32211109410E+02 -0.26166367302E+02  0.32222808374E+03  0.36739045963E+03  0.17153010677E+03 0.  0.
         24    2    5    5    0    0  0.62520736681E+01 -0.61733366560E+02  0.11286014413E+03  0.15151676502E+03  0.79811158219E+02 0.  0.
          5    1    5    5  501    0 -0.38463183078E+02  0.35566999259E+02  0.20936793961E+03  0.21587369461E+03  0.47000000000E+01 0. -1.
        -13    1    6    6    0    0 -0.35900344585E+02 -0.20245388172E+02  0.55460645970E+02  0.69098435112E+02  0.00000000000E+00 0.  1.
         14    1    6    6    0    0  0.42152418253E+02 -0.41487978388E+02  0.57399498158E+02  0.82418329903E+02  0.00000000000E+00 0. -1.
         -5    1    3    3    0  503  0.42515813033E+02 -0.42505143394E+02  0.12648273804E+03  0.14012228443E+03  0.47000000000E+01 0.  1.
         13    1    4    4    0    0  0.13539937337E+02  0.26050712038E+02 -0.90371588857E+01  0.30718719724E+02  0.00000000000E+00 0. -1.
        -14    1    4    4    0    0 -0.23844640960E+02  0.42620798658E+02  0.87149268560E+02  0.99900422378E+02  0.00000000000E+00 0.  1.
</event>
<event>
12    1  0.1050869E+000  0.1933300E+03  0.7818608E-02  0.1155893E+00
         21   -1    0    0  501  502  0.00000000000E+00  0.00000000000E+00  0.10318673196E+03  0.10318673196E+03  0.00000000000E+00 0.  1.
         21   -1    0    0  502  503 -0.00000000000E+00 -0.00000000000E+00 -0.49762444586E+03  0.49762444586E+03  0.00000000000E+00 0.  1.
         -6    2    1    2    0  503 -0.80186642534E+02  0.19386146628E+02 -0.35519706701E+03  0.40353895567E+03  0.17283810925E+03 0.  0.
        -24    2    3    3    0    0  0.74295883392E+01 -0.24692465465E+01 -0.26066978625E+03  0.27272703369E+03  0.79812289042E+02 0.  0.
          6    2    1    2  501    0  0.80186642534E+02 -0.19386146628E+02 -0.39240646890E+02  0.19727222215E+03  0.17484501978E+03 0.  0.
         24    2    5    5    0    0  0.29913256210E+02  0.39701383227E+02  0.20572369989E+02  0.99198593970E+02  0.83343481517E+02 0.  0.
          5    1    5    5  501    0  0.50273386324E+02 -0.59087529855E+02 -0.59813016878E+02  0.98073628183E+02  0.47000000000E+01 0. -1.
        -11    1    6    6    0    0  0.58124192161E+02  0.27157321229E+02  0.43020442155E+01  0.64299684254E+02  0.00000000000E+00 0.  1.
         12    1    6    6    0    0 -0.28210935951E+02  0.12544061998E+02  0.16270325773E+02  0.34898909716E+02  0.00000000000E+00 0. -1.
         -5    1    3    3    0  503 -0.87616230873E+02  0.21855393175E+02 -0.94527280764E+02  0.13081192198E+03  0.47000000000E+01 0.  1.
         13    1    4    4    0    0  0.66202853760E+01  0.38501291948E+02 -0.11888459717E+03  0.12513882333E+03  0.00000000000E+00 0. -1.
        -14    1    4    4    0    0  0.80930296327E+00 -0.40970538494E+02 -0.14178518908E+03  0.14758821037E+03  0.00000000000E+00 0.  1.
</event>
<event>
12    1  0.1050869E+000  0.2172592E+03  0.7818608E-02  0.1136051E+00
         21   -1    0    0  503  502  0.00000000000E+00  0.00000000000E+00  0.91184652397E+02  0.91184652397E+02  0.00000000000E+00 0. -1.
         21   -1    0    0  501  503 -0.00000000000E+00 -0.00000000000E+00 -0.55184013229E+03  0.55184013229E+03  0.00000000000E+00 0. -1.
          6    2    1    2  501    0 -0.22937700889E+02  0.12985207181E+03 -0.31221795308E+03  0.38037034652E+03  0.17266688048E+03 0.  0.
         24    2    3    3    0    0  0.31534701831E+02  0.12453677749E+03 -0.27159410648E+03  0.31204844722E+03  0.84303193118E+02 0.  0.
         -6    2    1    2    0  502  0.22937700889E+02 -0.12985207181E+03 -0.14843752682E+03  0.26265443817E+03  0.17194753807E+03 0.  0.
        -24    2    5    5    0    0 -0.13511311800E+02 -0.57760520356E+02 -0.13680756820E+03  0.18090440297E+03  0.10242684727E+03 0.  0.
          5    1    3    3  501    0 -0.54472402720E+02  0.53152943156E+01 -0.40623846595E+02  0.68321899300E+02  0.47000000000E+01 0. -1.
        -13    1    4    4    0    0  0.38494714994E+02  0.15745284897E+02 -0.10520893676E+03  0.11313123996E+03  0.00000000000E+00 0.  1.
         14    1    4    4    0    0 -0.69600131635E+01  0.10879149259E+03 -0.16638516972E+03  0.19891720726E+03  0.00000000000E+00 0. -1.
         -5    1    5    5    0  502  0.36449012689E+02 -0.72091551449E+02 -0.11629958621E+02  0.81750035192E+02  0.47000000000E+01 0.  1.
         13    1    6    6    0    0  0.24213452676E+02  0.11837635131E+02 -0.77311672152E+02  0.81874999523E+02  0.00000000000E+00 0. -1.
        -14    1    6    6    0    0 -0.37724764476E+02 -0.69598155487E+02 -0.59495896043E+02  0.99029403452E+02  0.00000000000E+00 0.  1.
</event>
<event>
12    1  0.1050869E+000  0.2559489E+03  0.7818608E-02  0.1109614E+00
         21   -1    0    0  503  502  0.00000000000E+00  0.00000000000E+00  0.32683156952E+02  0.32683156952E+02  0.00000000000E+00 0.  1.
         21   -1    0    0  501  503 -0.00000000000E+00 -0.00000000000E+00 -0.21365712908E+04  0.21365712908E+04  0.00000000000E+00 0.  1.
          6    2    1    2  501    0 -0.18446673272E+03 -0.46320426725E+02 -0.78169930799E+03  0.82253487676E+03  0.17127830554E+03 0.  0.
         24    2    3    3    0    0 -0.37757002132E+02 -0.60049804654E+02 -0.36136477193E+03  0.37709638148E+03  0.81151785448E+02 0.  0.
         -6    2    1    2    0  502  0.18446673272E+03  0.46320426725E+02 -0.13221888259E+04  0.13467195710E+04  0.17116294658E+03 0.  0.
        -24    2    5    5    0    0  0.19153309048E+03  0.92774833082E+01 -0.12247509811E+04  0.12421330678E+04  0.78157506841E+02 0.  0.
          5    1    3    3  501    0 -0.14670973059E+03  0.13729377929E+02 -0.42033453606E+03  0.44543849528E+03  0.47000000000E+01 0. -1.
        -11    1    4    4    0    0 -0.25957397840E+01  0.18452523244E+02 -0.35790544692E+02  0.40350917814E+02  0.00000000000E+00 0.  1.
         12    1    4    4    0    0 -0.35161262348E+02 -0.78502327898E+02 -0.32557422724E+03  0.33674546366E+03  0.00000000000E+00 0. -1.
         -5    1    5    5    0  502 -0.70663577596E+01  0.37042943417E+02 -0.97437844773E+02  0.10458650325E+03  0.47000000000E+01 0.  1.
         13    1    6    6    0    0  0.36632374358E+02 -0.21226654194E+02 -0.15045146793E+03  0.15629506039E+03  0.00000000000E+00 0. -1.
        -14    1    6    6    0    0  0.15490071613E+03  0.30504137502E+02 -0.10742995132E+04  0.10858380074E+04  0.00000000000E+00 0.  1.
</event>
<event>
12    1  0.1050869E+000  0.1921755E+03  0.7818608E-02  0.1156515E+00
         21   -1    0    0  503  502  0.00000000000E+00  0.00000000000E+00  0.14368433036E+03  0.14368433036E+03  0.00000000000E+00 0.  1.
         21   -1    0    0  501  503 -0.00000000000E+00 -0.00000000000E+00 -0.37629530393E+03  0.37629530393E+03  0.00000000000E+00 0.  1.
          6    2    1    2  501    0  0.68817581813E+02  0.50074341882E+02  0.30067547408E+02  0.19450857507E+03  0.17229692130E+03 0.  0.
         24    2    3    3    0    0 -0.10170014852E+02 -0.14944530864E+02 -0.13411127715E+02  0.83247712996E+02  0.80147084586E+02 0.  0.
         -6    2    1    2    0  502 -0.68817581813E+02 -0.50074341882E+02 -0.26267852098E+03  0.32547105922E+03  0.17230236714E+03 0.  0.
        -24    2    5    5    0    0 -0.63881756843E+02 -0.98941511198E+02 -0.18401603363E+03  0.23261504422E+03  0.79859605991E+02 0.  0.
          5    1    3    3  501    0  0.78987596665E+02  0.65018872746E+02  0.43478675123E+02  0.11126086208E+03  0.47000000000E+01 0. -1.
        -13    1    4    4    0    0  0.32944575976E+02  0.53884421205E+01  0.11578917342E+01  0.33402411709E+02  0.00000000000E+00 0.  1.
         14    1    4    4    0    0 -0.43114590828E+02 -0.20332972985E+02 -0.14569019449E+02  0.49845301286E+02  0.00000000000E+00 0. -1.
         -5    1    5    5    0  502 -0.49358249700E+01  0.48867169316E+02 -0.78662487352E+02  0.92856014999E+02  0.47000000000E+01 0.  1.
         11    1    6    6    0    0 -0.18465415134E+02  0.12137421004E+02 -0.33178998306E+02  0.39863949544E+02  0.00000000000E+00 0. -1.
        -12    1    6    6    0    0 -0.45416341709E+02 -0.11107893220E+03 -0.15083703532E+03  0.19275109468E+03  0.00000000000E+00 0.  1.
</event>
<event>
12    1  0.1050869E+000  0.2530055E+03  0.7818608E-02  0.1111551E+00
         21   -1    0    0  501  502  0.00000000000E+00  0.00000000000E+00  0.19812503944E+03  0.19812503944E+03  0.00000000000E+00 0.  1.
         21   -1    0    0  502  503 -0.00000000000E+00 -0.00000000000E+00 -0.39147759485E+03  0.39147759485E+03  0.00000000000E+00 0.  1.
         -6    2    1    2    0  503  0.17147295164E+03  0.69548582686E+02  0.27368112798E+02  0.25448141194E+03  0.17254505768E+03 0.  0.
        -24    2    3    3    0    0  0.18136599814E+03  0.99673024044E+02  0.22987375210E+02  0.22212967013E+03  0.77361708418E+02 0.  0.
          6    2    1    2  501    0 -0.17147295164E+03 -0.69548582686E+02 -0.22072066821E+03  0.33512122234E+03  0.17131445296E+03 0.  0.
         24    2    5    5    0    0 -0.59152181015E+02 -0.93125936751E+02 -0.10029853337E+03  0.16870178930E+03  0.78924503800E+02 0.  0.
          5    1    5    5  501    0 -0.11232077062E+03  0.23577354065E+02 -0.12042213483E+03  0.16641943305E+03  0.47000000000E+01 0. -1.
        -13    1    6    6    0    0 -0.81991473453E+01 -0.44813522835E+02  0.85607979867E+00  0.45565455321E+02  0.00000000000E+00 0.  1.
         14    1    6    6    0    0 -0.50953033670E+02 -0.48312413917E+02 -0.10115461317E+03  0.12313633397E+03  0.00000000000E+00 0. -1.
         -5    1    3    3    0  503 -0.98930465046E+01 -0.30124441358E+02  0.43807375883E+01  0.32351741809E+02  0.47000000000E+01 0.  1.
         13    1    4    4    0    0  0.12170629884E+03  0.34474177128E+02  0.38884042458E+02  0.13233616597E+03  0.00000000000E+00 0. -1.
        -14    1    4    4    0    0  0.59659699306E+02  0.65198846916E+02 -0.15896667249E+02  0.89793504164E+02  0.00000000000E+00 0.  1.
</event>
<event>
12    1  0.1050869E+000  0.2429684E+03  0.7818608E-02  0.1119005E+00
         21   -1    0    0  503  502  0.00000000000E+00  0.00000000000E+00  0.50401279583E+02  0.50401279583E+02  0.00000000000E+00 0. -1.
         21   -1    0    0  501  503 -0.00000000000E+00 -0.00000000000E+00 -0.12652089572E+04  0.12652089572E+04  0.00000000000E+00 0. -1.
          6    2    1    2  501    0  0.72648105614E+02  0.14461729942E+03 -0.40650096560E+03  0.47357859034E+03  0.18122288942E+03 0.  0.
         24    2    3    3    0    0  0.53799013628E+02  0.23499618550E+02 -0.28355208600E+03  0.29990274895E+03  0.78059640079E+02 0.  0.
         -6    2    1    2    0  502 -0.72648105614E+02 -0.14461729942E+03 -0.80830671205E+03  0.84203164648E+03  0.17165559235E+03 0.  0.
        -24    2    5    5    0    0  0.22452777770E+02 -0.91638132543E+02 -0.50852616632E+03  0.52306231293E+03  0.78061814061E+02 0.  0.
          5    1    3    3  501    0  0.18849091985E+02  0.12111768087E+03 -0.12294887960E+03  0.17367584139E+03  0.47000000000E+01 0. -1.
        -11    1    4    4    0    0  0.84156420445E+01 -0.36030691231E+01  0.21071362795E+01  0.93938895793E+01  0.00000000000E+00 0.  1.
         12    1    4    4    0    0  0.45383371584E+02  0.27102687673E+02 -0.28565922228E+03  0.29050885937E+03  0.00000000000E+00 0. -1.
         -5    1    5    5    0  502 -0.95100883384E+02 -0.52979166882E+02 -0.29978054573E+03  0.31896933355E+03  0.47000000000E+01 0.  1.
         13    1    6    6    0    0 -0.11864487399E+01 -0.97948593378E+02 -0.41163864454E+03  0.42313320395E+03  0.00000000000E+00 0. -1.
        -14    1    6    6    0    0  0.23639226510E+02  0.63104608350E+01 -0.96887521784E+02  0.99929108989E+02  0.00000000000E+00 0.  1.
</event>
<event>
12    1  0.1050869E+000  0.1958509E+03  0.7818608E-02  0.1153632E+00
         21   -1    0    0  503  502  0.00000000000E+00  0.00000000000E+00  0.77769786513E+03  0.77769786513E+03  0.00000000000E+00 0. -1.
         21   -1    0    0  501  503 -0.00000000000E+00 -0.00000000000E+00 -0.75977655698E+02  0.75977655698E+02  0.00000000000E+00 0.  1.
          6    2    1    2  501    0 -0.75098051810E+02  0.49989963452E+02  0.60647397959E+03  0.63731332967E+03  0.17383578004E+03 0.  0.
         24    2    3    3    0    0 -0.85339554214E+02  0.69114259337E+02  0.29466504775E+03  0.32471530179E+03  0.80950086402E+02 0.  0.
         -6    2    1    2    0  502  0.75098051810E+02 -0.49989963452E+02  0.95246229842E+02  0.21636219116E+03  0.17205243280E+03 0.  0.
        -24    2    5    5    0    0 -0.72308939199E+01  0.17273517627E+02  0.49857929971E+02  0.10067027719E+03  0.85428515678E+02 0.  0.
          5    1    3    3  501    0  0.10241502404E+02 -0.19124295886E+02  0.31180893183E+03  0.31259802788E+03  0.47000000000E+01 0. -1.
        -11    1    4    4    0    0 -0.22335010648E+02  0.59086210152E+02  0.87284067133E+02  0.10774294086E+03  0.00000000000E+00 0.  1.
         12    1    4    4    0    0 -0.63004543566E+02  0.10028049186E+02  0.20738098062E+03  0.21697236092E+03  0.00000000000E+00 0. -1.
         -5    1    5    5    0  502  0.82328945730E+02 -0.67263481079E+02  0.45388299871E+02  0.11569191397E+03  0.47000000000E+01 0.  1.
         11    1    6    6    0    0 -0.33648414435E+02  0.23512623878E+02  0.59133517157E+02  0.71984943752E+02  0.00000000000E+00 0. -1.
        -12    1    6    6    0    0  0.26417520515E+02 -0.62391062506E+01 -0.92755871861E+01  0.28685333441E+02  0.00000000000E+00 0.  1.
</event>
<event>
12    1  0.1050869E+000  0.1123990E+04  0.7818608E-02  0.9182186E-01
         21   -1    0    0  503  502  0.00000000000E+00  0.00000000000E+00  0.10651572362E+04  0.10651572362E+04  0.00000000000E+00 0.  1.
         21   -1    0    0  501  503 -0.00000000000E+00 -0.00000000000E+00 -0.13467587190E+04  0.13467587190E+04  0.00000000000E+00 0.  1.
          6    2    1    2  501    0 -0.25598167938E+03  0.10806882747E+04 -0.55772324274E+03  0.12545067398E+04  0.17122551628E+03 0.  0.
         24    2    3    3    0    0 -0.41369530329E+02  0.26311588224E+03 -0.16339474774E+03  0.32176881121E+03  0.76784886224E+02 0.  0.
         -6    2    1    2    0  502  0.25598167938E+03 -0.10806882747E+04  0.27612175997E+03  0.11574092155E+04  0.17302918389E+03 0.  0.
        -24    2    5    5    0    0  0.18168107712E+03 -0.50130487855E+03  0.14905184227E+03  0.55960109139E+03  0.81377728904E+02 0.  0.
          5    1    3    3  501    0 -0.21461214905E+03  0.81757239246E+03 -0.39432849499E+03  0.93273792858E+03  0.47000000000E+01 0. -1.
        -11    1    4    4    0    0 -0.40545513784E+02  0.25886520274E+03 -0.13825573230E+03  0.29625964861E+03  0.00000000000E+00 0.  1.
         12    1    4    4    0    0 -0.82401654494E+00  0.42506794975E+01 -0.25139015440E+02  0.25509162604E+02  0.00000000000E+00 0. -1.
         -5    1    5    5    0  502  0.74300602261E+02 -0.57938339615E+03  0.12706991770E+03  0.59780812408E+03  0.47000000000E+01 0.  1.
         11    1    6    6    0    0  0.11504368063E+02 -0.63315196543E+02 -0.63928603851E+01  0.64668642028E+02  0.00000000000E+00 0. -1.
        -12    1    6    6    0    0  0.17017670906E+03 -0.43798968201E+03  0.15544470266E+03  0.49493244937E+03  0.00000000000E+00 0.  1.
</event>
<event>
12    1  0.1050869E+000  0.2205152E+03  0.7818608E-02  0.1133920E+00
         21   -1    0    0  503  502  0.00000000000E+00  0.00000000000E+00  0.12745489076E+03  0.12745489076E+03  0.00000000000E+00 0. -1.
         21   -1    0    0  501  503 -0.00000000000E+00 -0.00000000000E+00 -0.71490972093E+03  0.71490972093E+03  0.00000000000E+00 0. -1.
          6    2    1    2  501    0 -0.83489347639E-01  0.13673591456E+03 -0.52353108511E+01  0.22057733265E+03  0.17300356614E+03 0.  0.
         24    2    3    3    0    0  0.52642589732E+02  0.62334503003E+02  0.36809265983E+02  0.12005148573E+03  0.80003778945E+02 0.  0.
         -6    2    1    2    0  502  0.83489347639E-01 -0.13673591456E+03 -0.58221951931E+03  0.62178727904E+03  0.17012681861E+03 0.  0.
        -24    2    5    5    0    0  0.12809994992E+02 -0.10028368666E+03 -0.56491495326E+03  0.57921655118E+03  0.78370880805E+02 0.  0.
          5    1    3    3  501    0 -0.52726079080E+02  0.74401411558E+02 -0.42044576834E+02  0.10052584692E+03  0.47000000000E+01 0. -1.
        -13    1    4    4    0    0 -0.66694874128E+01  0.46500187676E+02 -0.26892857641E+01  0.47052967751E+02  0.00000000000E+00 0.  1.
         14    1    4    4    0    0  0.59312077145E+02  0.15834315327E+02  0.39498551747E+02  0.72998517980E+02  0.00000000000E+00 0. -1.
         -5    1    5    5    0  502 -0.12726505644E+02 -0.36452227902E+02 -0.17304566051E+02  0.42570727867E+02  0.47000000000E+01 0.  1.
         13    1    6    6    0    0  0.32380420773E+02 -0.10309737796E+03 -0.46973273805E+03  0.48200249603E+03  0.00000000000E+00 0. -1.
        -14    1    6    6    0    0 -0.19570425782E+02  0.28136912999E+01 -0.95182215214E+02  0.97214055142E+02  0.00000000000E+00 0.  1.
</event>
<event>
12    1  0.1050869E+000  0.1820294E+03  0.7818608E-02  0.1166131E+00
         21   -1    0    0  501  502  0.00000000000E+00  0.00000000000E+00  0.10387623259E+03  0.10387623259E+03  0.00000000000E+00 0. -1.
         21   -1    0    0  502  503 -0.00000000000E+00 -0.00000000000E+00 -0.45624998125E+03  0.45624998125E+03  0.00000000000E+00 0. -1.
         -6    2    1    2    0  503 -0.26021737176E+02  0.56101548900E+02 -0.33132529771E+03  0.37803589916E+03  0.17120214238E+03 0.  0.
        -24    2    3    3    0    0  0.11562437117E+02 -0.29685108477E+02 -0.11673734160E+03  0.14385220706E+03  0.77787884229E+02 0.  0.
          6    2    1    2  501    0  0.26021737176E+02 -0.56101548900E+02 -0.21048450946E+02  0.18209031468E+03  0.16996861715E+03 0.  0.
         24    2    5    5    0    0  0.49426102420E+02 -0.48497102569E+02 -0.69888383064E+02  0.12719932374E+03  0.80624892653E+02 0.  0.
          5    1    5    5  501    0 -0.23404365244E+02 -0.76044463304E+01  0.48839932118E+02  0.54890990934E+02  0.47000000000E+01 0. -1.
        -11    1    6    6    0    0  0.31605678203E+02 -0.61552258402E+02 -0.77444405730E+02  0.10385198789E+03  0.00000000000E+00 0.  1.
         12    1    6    6    0    0  0.17820424217E+02  0.13055155833E+02  0.75560226652E+01  0.23347335857E+02  0.00000000000E+00 0. -1.
         -5    1    3    3    0  503 -0.37584174294E+02  0.85786657377E+02 -0.21458795611E+03  0.23418369210E+03  0.47000000000E+01 0.  1.
         11    1    4    4    0    0 -0.25291460615E+02 -0.20364582035E+02 -0.16036731280E+02  0.36215341109E+02  0.00000000000E+00 0. -1.
        -12    1    4    4    0    0  0.36853897733E+02 -0.93205264425E+01 -0.10070061032E+03  0.10763686595E+03  0.00000000000E+00 0.  1.
</event>
<event>
12    1  0.1050869E+000  0.1830177E+03  0.7818608E-02  0.1165904E+00
         21   -1    0    0  503  502  0.00000000000E+00  0.00000000000E+00  0.80257076601E+02  0.80257076601E+02  0.00000000000E+00 0. -1.
         21   -1    0    0  501  503 -0.00000000000E+00 -0.00000000000E+00 -0.77969692094E+03  0.77969692094E+03  0.00000000000E+00 0. -1.
          6    2    1    2  501    0 -0.50356350349E+02 -0.77294086738E+01 -0.54935779132E+02  0.19108488886E+03  0.17578392743E+03 0.  0.
         24    2    3    3    0    0 -0.75834067036E+02 -0.85271101791E+01 -0.93296758171E+02  0.14478796576E+03  0.80223142626E+02 0.  0.
         -6    2    1    2    0  502  0.50356350349E+02  0.77294086738E+01 -0.64450406521E+03  0.66886910869E+03  0.17147853716E+03 0.  0.
        -24    2    5    5    0    0 -0.31737291944E+01 -0.18123751092E+02 -0.12860041182E+03  0.14953056316E+03  0.74045799942E+02 0.  0.
          5    1    3    3  501    0  0.25477716686E+02  0.79770150528E+00  0.38360979039E+02  0.46296923095E+02  0.47000000000E+01 0. -1.
        -13    1    4    4    0    0 -0.64483607578E+02 -0.29096388085E+02 -0.97962290059E+02  0.12083602823E+03  0.00000000000E+00 0.  1.
         14    1    4    4    0    0 -0.11350459457E+02  0.20569277906E+02  0.46655318884E+01  0.23951937526E+02  0.00000000000E+00 0. -1.
         -5    1    5    5    0  502  0.53530079544E+02  0.25853159766E+02 -0.51590365339E+03  0.51933854553E+03  0.47000000000E+01 0.  1.
         13    1    6    6    0    0  0.19737662016E+01 -0.10609047282E+02 -0.13682998264E+03  0.13725484249E+03  0.00000000000E+00 0. -1.
        -14    1    6    6    0    0 -0.51474953960E+01 -0.75147038102E+01  0.82295708202E+01  0.12275720675E+02  0.00000000000E+00 0.  1.
</event>
<event>
12    1  0.1050869E+000  0.1954290E+03  0.7818608E-02  0.1156298E+00
         21   -1    0    0  501  502  0.00000000000E+00  0.00000000000E+00  0.11434468149E+04  0.11434468149E+04  0.00000000000E+00 0. -1.
         21   -1    0    0  502  503 -0.00000000000E+00 -0.00000000000E+00 -0.36786297452E+02  0.36786297452E+02  0.00000000000E+00 0. -1.
         -6    2    1    2    0  503 -0.87993650421E+02 -0.34018690458E+02  0.31337507246E+03  0.36322986471E+03  0.15758123227E+03 0.  0.
        -24    2    3    3    0    0 -0.67870796779E+02  0.28503125116E+02  0.13557116229E+03  0.17362441348E+03  0.79668210203E+02 0.  0.
          6    2    1    2  501    0  0.87993650421E+02  0.34018690458E+02  0.79328544500E+03  0.81700324765E+03  0.17115009674E+03 0.  0.
         24    2    5    5    0    0  0.20394931390E+02  0.56832909940E+02  0.64155679099E+03  0.64927206429E+03  0.79455424767E+02 0.  0.
          5    1    5    5  501    0  0.67598719031E+02 -0.22814219481E+02  0.15172865401E+03  0.16773118337E+03  0.47000000000E+01 0. -1.
        -11    1    6    6    0    0  0.50084080084E+02  0.25356942925E+02  0.33357288589E+03  0.33826359519E+03  0.00000000000E+00 0.  1.
         12    1    6    6    0    0 -0.29689148694E+02  0.31475967015E+02  0.30798390510E+03  0.31100846910E+03  0.00000000000E+00 0. -1.
         -5    1    3    3    0  503 -0.20122853641E+02 -0.62521815575E+02  0.17780391017E+03  0.18960545123E+03  0.47000000000E+01 0.  1.
         13    1    4    4    0    0  0.82888293785E+01 -0.17218945318E+01 -0.57734888894E+01  0.10247086766E+02  0.00000000000E+00 0. -1.
        -14    1    4    4    0    0 -0.76159626158E+02  0.30225019648E+02  0.14134465118E+03  0.16337732672E+03  0.00000000000E+00 0.  1.
</event>
<event>
12    1  0.1050869E+000  0.3309484E+03  0.7818608E-02  0.1070862E+00
         21   -1    0    0  501  502  0.00000000000E+00  0.00000000000E+00  0.21933361596E+03  0.21933361596E+03  0.00000000000E+00 0. -1.
         21   -1    0    0  502  503 -0.00000000000E+00 -0.00000000000E+00 -0.70419850913E+03  0.70419850913E+03  0.00000000000E+00 0. -1.
         -6    2    1    2    0  503 -0.25441428376E+03 -0.12357765755E+03 -0.49301064035E+03  0.59378978639E+03  0.17183932525E+03 0.  0.
        -24    2    3    3    0    0 -0.85874855159E+02 -0.10872003831E+03 -0.26866308686E+03  0.31275562015E+03  0.80260115953E+02 0.  0.
          6    2    1    2  501    0  0.25441428376E+03  0.12357765755E+03  0.81457471783E+01  0.32974233870E+03  0.16930915955E+03 0.  0.
         24    2    5    5    0    0  0.18207810132E+03  0.18018864019E+02 -0.11718561554E+02  0.20015891791E+03  0.80306620480E+02 0.  0.
          5    1    5    5  501    0  0.72336182442E+02  0.10555879354E+03  0.19864308733E+02  0.12958342079E+03  0.47000000000E+01 0. -1.
        -11    1    6    6    0    0  0.54886406029E+02  0.42690261296E+02  0.39865019618E+01  0.69648174235E+02  0.00000000000E+00 0.  1.
         12    1    6    6    0    0  0.12719169529E+03 -0.24671397276E+02 -0.15705063516E+02  0.13051074367E+03  0.00000000000E+00 0. -1.
         -5    1    3    3    0  503 -0.16853942860E+03 -0.14857619246E+02 -0.22434755348E+03  0.28103416624E+03  0.47000000000E+01 0.  1.
         11    1    4    4    0    0 -0.73316758244E+01 -0.92175406463E-01  0.44091615756E+01  0.85558560354E+01  0.00000000000E+00 0. -1.
        -12    1    4    4    0    0 -0.78543179335E+02 -0.10862786290E+03 -0.27307224844E+03  0.30419976411E+03  0.00000000000E+00 0.  1.
</event>
<event>
12    1  0.1050869E+000  0.1806223E+03  0.7818608E-02  0.1167444E+00
         21   -1    0    0  501  502  0.00000000000E+00  0.00000000000E+00  0.31029069330E+02  0.31029069330E+02  0.00000000000E+00 0.  1.
         21   -1    0    0  502  503 -0.00000000000E+00 -0.00000000000E+00 -0.11305777284E+04  0.11305777284E+04  0.00000000000E+00 0.  1.
         -6    2    1    2    0  503 -0.91146885716E+01  0.51234726990E+02 -0.38913649168E+03  0.42859256480E+03  0.17191946559E+03 0.  0.
        -24    2    3    3    0    0 -0.50464021153E+02  0.71847500877E+02 -0.19013246549E+03  0.22424152812E+03  0.80157517971E+02 0.  0.
          6    2    1    2  501    0  0.91146885716E+01 -0.51234726990E+02 -0.71041216735E+03  0.73301423288E+03  0.17296341608E+03 0.  0.
         24    2    5    5    0    0 -0.51662447335E+02  0.64556887793E+01 -0.43231057843E+03  0.44252390933E+03  0.78894167879E+02 0.  0.
          5    1    5    5  501    0  0.60777135906E+02 -0.57690415769E+02 -0.27810158892E+03  0.29049032356E+03  0.47000000000E+01 0. -1.
        -11    1    6    6    0    0  0.20019890625E+02  0.61343793486E+01 -0.13972407733E+03  0.14128426812E+03  0.00000000000E+00 0.  1.
         12    1    6    6    0    0 -0.71682337960E+02  0.32130943070E+00 -0.29258650109E+03  0.30123964121E+03  0.00000000000E+00 0. -1.
         -5    1    3    3    0  503  0.41349332581E+02 -0.20612773887E+02 -0.19900402619E+03  0.20435103668E+03  0.47000000000E+01 0.  1.
         13    1    4    4    0    0 -0.42800302228E+02  0.23488258474E+02 -0.15874295035E+03  0.16608096954E+03  0.00000000000E+00 0. -1.
        -14    1    4    4    0    0 -0.76637189252E+01  0.48359242403E+02 -0.31389515132E+02  0.58160558575E+02  0.00000000000E+00 0.  1.
</event>
<event>
12    1  0.1050869E+000  0.2248093E+03  0.7818608E-02  0.1130393E+00
         21   -1    0    0  503  502  0.00000000000E+00  0.00000000000E+00  0.71705635961E+02  0.71705635961E+02  0.00000000000E+00 0.  1.
         21   -1    0    0  501  503 -0.00000000000E+00 -0.00000000000E+00 -0.76831868243E+03  0.76831868243E+03  0.00000000000E+00 0.  1.
          6    2    1    2  501    0  0.65069720025E+02  0.12850130352E+03 -0.22699382921E+03  0.31947678255E+03  0.17260522187E+03 0.  0.
         24    2    3    3    0    0  0.10688777123E+02  0.11390225530E+03 -0.22278933470E+03  0.26281827097E+03  0.79689285239E+02 0.  0.
         -6    2    1    2    0  502 -0.65069720025E+02 -0.12850130352E+03 -0.46961921726E+03  0.52054753584E+03  0.17228138142E+03 0.  0.
        -24    2    5    5    0    0 -0.90820456979E+02 -0.39911831403E+02 -0.32412964867E+03  0.34820920699E+03  0.79676301328E+02 0.  0.
          5    1    3    3  501    0  0.54380942901E+02  0.14599048225E+02 -0.42044945091E+01  0.56658511576E+02  0.47000000000E+01 0. -1.
        -11    1    4    4    0    0 -0.34193785774E+02  0.47867217904E+02 -0.81221672196E+02  0.10028681653E+03  0.00000000000E+00 0.  1.
         12    1    4    4    0    0  0.44882562897E+02  0.66035037393E+02 -0.14156766251E+03  0.16253145444E+03  0.00000000000E+00 0. -1.
         -5    1    5    5    0  502  0.25750736955E+02 -0.88589472119E+02 -0.14548956859E+03  0.17233832885E+03  0.47000000000E+01 0.  1.
         11    1    6    6    0    0 -0.58672206344E+02 -0.55098716793E+02 -0.14744958715E+03  0.16798713386E+03  0.00000000000E+00 0. -1.
        -12    1    6    6    0    0 -0.32148250635E+02  0.15186885390E+02 -0.17668006152E+03  0.18022207314E+03  0.00000000000E+00 0.  1.
</event>
<event>
12    1  0.1050869E+000  0.2517013E+03  0.7818608E-02  0.1112439E+00
         21   -1    0    0  503  502  0.00000000000E+00  0.00000000000E+00  0.59102264703E+03  0.59102264703E+03  0.00000000000E+00 0.  1.
         21   -1    0    0  501  503 -0.00000000000E+00 -0.00000000000E+00 -0.10949827844E+03  0.10949827844E+03  0.00000000000E+00 0.  1.
          6    2    1    2  501    0 -0.16825829634E+03 -0.79302377147E+02  0.29797305913E+03  0.39005316752E+03  0.16956947902E+03 0.  0.
         24    2    3    3    0    0 -0.15982118367E+03 -0.20085489421E+02  0.14412337698E+03  0.22491795213E+03  0.62211733324E+02 0.  0.
         -6    2    1    2    0  502  0.16825829634E+03  0.79302377147E+02  0.18355130946E+03  0.31046775796E+03  0.16762882872E+03 0.  0.
        -24    2    5    5    0    0  0.15878967587E+03  0.56328074003E+02  0.20499004138E+03  0.27731383503E+03  0.80591767280E+02 0.  0.
          5    1    3    3  501    0 -0.84371126686E+01 -0.59216887726E+02  0.15384968216E+03  0.16513521539E+03  0.47000000000E+01 0. -1.
        -11    1    4    4    0    0 -0.36481490972E+02 -0.25250641488E+02  0.16438591612E+02  0.47315128376E+02  0.00000000000E+00 0.  1.
         12    1    4    4    0    0 -0.12333969270E+03  0.51651520672E+01  0.12768478536E+03  0.17760282375E+03  0.00000000000E+00 0. -1.
         -5    1    5    5    0  502  0.94686204724E+01  0.22974303145E+02 -0.21438731922E+02  0.33153922921E+02  0.47000000000E+01 0.  1.
         11    1    6    6    0    0  0.40788055353E+02 -0.13809007967E+01  0.10369217668E+03  0.11143446438E+03  0.00000000000E+00 0. -1.
        -12    1    6    6    0    0  0.11800162051E+03  0.57708974799E+02  0.10129786470E+03  0.16587937066E+03  0.00000000000E+00 0.  1.
</event>
<event>
12    1  0.1050869E+000  0.3202913E+03  0.7818608E-02  0.1076707E+00
         21   -1    0    0  501  502  0.00000000000E+00  0.00000000000E+00  0.18950090095E+03  0.18950090095E+03  0.00000000000E+00 0. -1.
         21   -1    0    0  502  503 -0.00000000000E+00 -0.00000000000E+00 -0.57655082323E+03  0.57655082323E+03  0.00000000000E+00 0. -1.
         -6    2    1    2    0  503 -0.20623754178E+03 -0.15541438439E+03 -0.81028705120E+02  0.33038187154E+03  0.18947024958E+03 0.  0.
        -24    2    3    3    0    0 -0.16093849680E+03 -0.13560551115E+03 -0.13066735963E+03  0.26016448796E+03  0.79508160050E+02 0.  0.
          6    2    1    2  501    0  0.20623754178E+03  0.15541438439E+03 -0.30602121716E+03  0.43566985264E+03  0.17167317971E+03 0.  0.
         24    2    5    5    0    0  0.16054978319E+03  0.47307481530E+02 -0.23142851497E+03  0.29652735392E+03  0.79718776886E+02 0.  0.
          5    1    5    5  501    0  0.45687758589E+02  0.10810690286E+03 -0.74592702190E+02  0.13914249872E+03  0.47000000000E+01 0. -1.
        -11    1    6    6    0    0  0.12219732297E+03  0.64724542173E+02 -0.14491428402E+03  0.20030377384E+03  0.00000000000E+00 0.  1.
         12    1    6    6    0    0  0.38352460223E+02 -0.17417060644E+02 -0.86514230946E+02  0.96223580077E+02  0.00000000000E+00 0. -1.
         -5    1    3    3    0  503 -0.45299044983E+02 -0.19808873238E+02  0.49638654515E+02  0.70217383584E+02  0.47000000000E+01 0.  1.
         13    1    4    4    0    0 -0.81361199562E+02 -0.27487771271E+02 -0.77813670528E+02  0.11588869524E+03  0.00000000000E+00 0. -1.
        -14    1    4    4    0    0 -0.79577297237E+02 -0.10811773988E+03 -0.52853689107E+02  0.14427579272E+03  0.00000000000E+00 0.  1.
</event>
<event>
12    1  0.1050869E+000  0.4807339E+03  0.7818608E-02  0.1018962E+00
         21   -1    0    0  503  502  0.00000000000E+00  0.00000000000E+00  0.19013239470E+04  0.19013239470E+04  0.00000000000E+00 0.  1.
         21   -1    0    0  501  503 -0.00000000000E+00 -0.00000000000E+00 -0.12607696067E+03  0.12607696067E+03  0.00000000000E+00 0.  1.
          6    2    1    2  501    0 -0.39898431664E+03 -0.20328647539E+03  0.69300283282E+03  0.84318912974E+03  0.17378465473E+03 0.  0.
         24    2    3    3    0    0 -0.27334779012E+03 -0.68657256808E+02  0.46947143875E+03  0.55353772301E+03  0.81041629484E+02 0.  0.
         -6    2    1    2    0  502  0.39898431664E+03  0.20328647539E+03  0.10822441535E+04  0.11842117779E+04  0.17490354817E+03 0.  0.
        -24    2    5    5    0    0  0.39499589775E+03  0.16665034883E+03  0.10410289904E+04  0.11287240052E+04  0.80513495641E+02 0.  0.
          5    1    3    3  501    0 -0.12563652652E+03 -0.13462921858E+03  0.22353139407E+03  0.28965140674E+03  0.47000000000E+01 0. -1.
        -13    1    4    4    0    0 -0.41491273814E+02  0.58448426953E+01  0.31532162842E+02  0.52440111387E+02  0.00000000000E+00 0.  1.
         14    1    4    4    0    0 -0.23185651631E+03 -0.74502099503E+02  0.43793927591E+03  0.50109761162E+03  0.00000000000E+00 0. -1.
         -5    1    5    5    0  502  0.39884188892E+01  0.36636126556E+02  0.41215163065E+02  0.55487772714E+02  0.47000000000E+01 0.  1.
         11    1    6    6    0    0  0.28810000389E+03  0.13471515906E+03  0.67700237617E+03  0.74798529642E+03  0.00000000000E+00 0. -1.
        -12    1    6    6    0    0  0.10689589386E+03  0.31935189771E+02  0.36402661422E+03  0.38073870874E+03  0.00000000000E+00 0.  1.
</event>
<event>
12    1  0.1050869E+000  0.1730621E+03  0.7818608E-02  0.1174746E+00
         21   -1    0    0  503  502  0.00000000000E+00  0.00000000000E+00  0.12781234813E+04  0.12781234813E+04  0.00000000000E+00 0. -1.
         21   -1    0    0  501  503 -0.00000000000E+00 -0.00000000000E+00 -0.24313841883E+02  0.24313841883E+02  0.00000000000E+00 0. -1.
          6    2    1    2  501    0  0.16458507340E+02 -0.25829739694E+01  0.50132456236E+03  0.53035534387E+03  0.17225829363E+03 0.  0.
         24    2    3    3    0    0 -0.46105478970E+02  0.32166477049E+02  0.23190164710E+03  0.25154972341E+03  0.79614646804E+02 0.  0.
         -6    2    1    2    0  502 -0.16458507340E+02  0.25829739694E+01  0.75248507710E+03  0.77208197936E+03  0.17204428898E+03 0.  0.
        -24    2    5    5    0    0  0.12677852090E+02 -0.54051304610E+02  0.53449097510E+03  0.54492589325E+03  0.90450844117E+02 0.  0.
          5    1    3    3  501    0  0.62563986310E+02 -0.34749451018E+02  0.26942291526E+03  0.27880562046E+03  0.47000000000E+01 0. -1.
        -11    1    4    4    0    0 -0.43490873772E+02  0.60012184704E+01  0.45224152015E+02  0.63029315799E+02  0.00000000000E+00 0.  1.
         12    1    4    4    0    0 -0.26146051983E+01  0.26165258578E+02  0.18667749508E+03  0.18852040761E+03  0.00000000000E+00 0. -1.
         -5    1    5    5    0  502 -0.29136359430E+02  0.56634278579E+02  0.21799410200E+03  0.22715608611E+03  0.47000000000E+01 0.  1.
         13    1    6    6    0    0 -0.14265243174E+01 -0.95428487544E+01  0.13482164054E+01  0.97426188190E+01  0.00000000000E+00 0. -1.
        -14    1    6    6    0    0  0.14104376407E+02 -0.44508455855E+02  0.53314275870E+03  0.53518327443E+03  0.00000000000E+00 0.  1.
</event>
<event>
12    1  0.1050869E+000  0.2839315E+03  0.7818608E-02  0.1093854E+00
         21   -1    0    0  501  502  0.00000000000E+00  0.00000000000E+00  0.11569390598E+03  0.11569390598E+03  0.00000000000E+00 0. -1.
         21   -1    0    0  502  503 -0.00000000000E+00 -0.00000000000E+00 -0.78780854219E+03  0.78780854219E+03  0.00000000000E+00 0. -1.
         -6    2    1    2    0  503  0.97627391547E+02 -0.19964722383E+03 -0.49516358444E+03  0.57079248575E+03  0.17671153008E+03 0.  0.
        -24    2    3    3    0    0  0.66418431234E+02 -0.21945835689E+03 -0.42772300702E+03  0.49374184214E+03  0.90888159464E+02 0.  0.
          6    2    1    2  501    0 -0.97627391547E+02  0.19964722383E+03 -0.17695105177E+03  0.33270996243E+03  0.17318811395E+03 0.  0.
         24    2    5    5    0    0 -0.28870885909E+02  0.18894827313E+03 -0.12243608231E+03  0.24418936308E+03  0.90015958685E+02 0.  0.
          5    1    5    5  501    0 -0.68756505638E+02  0.10698950696E+02 -0.54514969459E+02  0.88520599347E+02  0.47000000000E+01 0. -1.
        -11    1    6    6    0    0 -0.39249879479E+02  0.24881519203E+02 -0.20807310407E+02  0.50917454800E+02  0.00000000000E+00 0.  1.
         12    1    6    6    0    0  0.10378993570E+02  0.16406675393E+03 -0.10162877190E+03  0.19327190828E+03  0.00000000000E+00 0. -1.
         -5    1    3    3    0  503  0.31208960313E+02  0.19811133061E+02 -0.67440577421E+02  0.77050643605E+02  0.47000000000E+01 0.  1.
         11    1    4    4    0    0 -0.17504068975E+02 -0.71849255853E+02 -0.96971052448E+02  0.12195119110E+03  0.00000000000E+00 0. -1.
        -12    1    4    4    0    0  0.83922500209E+02 -0.14760910103E+03 -0.33075195457E+03  0.37179065104E+03  0.00000000000E+00 0.  1.
</event>
<event>
12    1  0.1050869E+000  0.2797315E+03  0.7818608E-02  0.1095951E+00
         21   -1    0    0  503  502  0.00000000000E+00  0.00000000000E+00  0.23586259451E+03  0.23586259451E+03  0.00000000000E+00 0.  1.
         21   -1    0    0  501  503 -0.00000000000E+00 -0.00000000000E+00 -0.51185210587E+03  0.51185210587E+03  0.00000000000E+00 0.  1.
          6    2    1    2  501    0 -0.20053293329E+03 -0.89891490542E+02  0.84241669510E+02  0.29214105192E+03  0.17307743334E+03 0.  0.
         24    2    3    3    0    0 -0.14006712921E+03 -0.56239235723E+02 -0.16229486314E+02  0.17005448071E+03  0.76638618629E+02 0.  0.
         -6    2    1    2    0  502  0.20053293329E+03  0.89891490542E+02 -0.36023118087E+03  0.45557364846E+03  0.17171752414E+03 0.  0.
        -24    2    5    5    0    0  0.20914051718E+03  0.40043111816E+02 -0.30681080845E+03  0.38185270468E+03  0.79595283546E+02 0.  0.
          5    1    3    3  501    0 -0.60465804084E+02 -0.33652254819E+02  0.10047115582E+03  0.12208657121E+03  0.47000000000E+01 0. -1.
        -11    1    4    4    0    0 -0.85917399350E+02 -0.11028068659E+02 -0.40273638052E+02  0.95526874393E+02  0.00000000000E+00 0.  1.
         12    1    4    4    0    0 -0.54149729857E+02 -0.45211167063E+02  0.24044151738E+02  0.74527606319E+02  0.00000000000E+00 0. -1.
         -5    1    5    5    0  502 -0.86075838929E+01  0.49848378726E+02 -0.53420372419E+02  0.73720943778E+02  0.47000000000E+01 0.  1.
         13    1    6    6    0    0  0.44762116713E+02 -0.23729342530E+02 -0.77580117422E+02  0.92657451987E+02  0.00000000000E+00 0. -1.
        -14    1    6    6    0    0  0.16437840047E+03  0.63772454346E+02 -0.22923069103E+03  0.28919525270E+03  0.00000000000E+00 0.  1.
</event>
<event>
12    1  0.1050869E+000  0.1743784E+03  0.7818608E-02  0.1173656E+00
         21   -1    0    0  501  502  0.00000000000E+00  0.00000000000E+00  0.24570792574E+03  0.24570792574E+03  0.00000000000E+00 0.  1.
         21   -1    0    0  502  503 -0.00000000000E+00 -0.00000000000E+00 -0.18924009586E+03  0.18924009586E+03  0.00000000000E+00 0.  1.
         -6    2    1    2    0  503 -0.30725473459E+02 -0.45249376366E+01 -0.10044765251E+03  0.20124006733E+03  0.17159051263E+03 0.  0.
        -24    2    3    3    0    0  0.42434529814E+02  0.23037135123E+02 -0.71690331996E+02  0.11780669620E+03  0.80046955306E+02 0.  0.
          6    2    1    2  501    0  0.30725473459E+02  0.45249376366E+01  0.15691548238E+03  0.23370795428E+03  0.17038899467E+03 0.  0.
         24    2    5    5    0    0  0.53318679791E+02  0.87742428197E+01  0.24819924988E+02  0.99544487382E+02  0.79832370251E+02 0.  0.
          5    1    5    5  501    0 -0.22593206333E+02 -0.42493051831E+01  0.13209555740E+03  0.13416346690E+03  0.47000000000E+01 0. -1.
        -11    1    6    6    0    0  0.25181282230E+02  0.43417115565E+02  0.41561421840E+01  0.50362847582E+02  0.00000000000E+00 0.  1.
         12    1    6    6    0    0  0.28137397562E+02 -0.34642872746E+02  0.20663782804E+02  0.49181639799E+02  0.00000000000E+00 0. -1.
         -5    1    3    3    0  503 -0.73160003273E+02 -0.27562072759E+02 -0.28757320509E+02  0.83433371121E+02  0.47000000000E+01 0.  1.
         13    1    4    4    0    0  0.37846081020E+02  0.37715441504E+02 -0.83004497715E+02  0.98714370875E+02  0.00000000000E+00 0. -1.
        -14    1    4    4    0    0  0.45884487947E+01 -0.14678306382E+02  0.11314165719E+02  0.19092325330E+02  0.00000000000E+00 0.  1.
</event>
<event>
12    1  0.1050869E+000  0.2724272E+03  0.7818608E-02  0.1101913E+00
         21   -1    0    0  503  502  0.00000000000E+00  0.00000000000E+00  0.67360881052E+03  0.67360881052E+03  0.00000000000E+00 0. -1.
         21   -1    0    0  501  503 -0.00000000000E+00 -0.00000000000E+00 -0.38738759311E+03  0.38738759311E+03  0.00000000000E+00 0.  1.
          6    2    1    2  501    0 -0.84969213885E+02  0.19274486851E+03  0.59729371636E+03  0.65648791926E+03  0.17276068096E+03 0.  0.
         24    2    3    3    0    0  0.16717678098E+02  0.89452739554E+02  0.34186940392E+03  0.36276499320E+03  0.80265045835E+02 0.  0.
         -6    2    1    2    0  502  0.84969213885E+02 -0.19274486851E+03 -0.31107249895E+03  0.40450848437E+03  0.14996887238E+03 0.  0.
        -24    2    5    5    0    0  0.38579346379E+02 -0.18966170314E+03 -0.22858329066E+03  0.30970297187E+03  0.78776153831E+02 0.  0.
          5    1    3    3  501    0 -0.10168689198E+03  0.10329212896E+03  0.25542431244E+03  0.29372292605E+03  0.47000000000E+01 0. -1.
        -13    1    4    4    0    0 -0.26554335543E+02  0.14845554254E+02  0.13957437012E+03  0.14285141935E+03  0.00000000000E+00 0.  1.
         14    1    4    4    0    0  0.43272013642E+02  0.74607185299E+02  0.20229503380E+03  0.21991357385E+03  0.00000000000E+00 0. -1.
         -5    1    5    5    0  502  0.46389867506E+02 -0.30831653645E+01 -0.82489208289E+02  0.94805512498E+02  0.47000000000E+01 0.  1.
         11    1    6    6    0    0  0.11139279568E+02 -0.75918741146E+00 -0.39399669511E+02  0.40951115643E+02  0.00000000000E+00 0. -1.
        -12    1    6    6    0    0  0.27440066811E+02 -0.18890251573E+03 -0.18918362115E+03  0.26875185623E+03  0.00000000000E+00 0.  1.
</event>
<event>
12    1  0.1050869E+000  0.1809536E+03  0.7818608E-02  0.1167380E+00
         21   -1    0    0  503  502  0.00000000000E+00  0.00000000000E+00  0.13690033429E+03  0.13690033429E+03  0.00000000000E+00 0. -1.
         21   -1    0    0  501  503 -0.00000000000E+00 -0.00000000000E+00 -0.42119433308E+03  0.42119433308E+03  0.00000000000E+00 0. -1.
          6    2    1    2  501    0 -0.47850329674E+02 -0.14546941625E+02 -0.32739730326E+03  0.37407644265E+03  0.17390492576E+03 0.  0.
         24    2    3    3    0    0 -0.31661031831E+02 -0.19145884154E+02 -0.34078707270E+03  0.35206236618E+03  0.80268891512E+02 0.  0.
         -6    2    1    2    0  502  0.47850329674E+02  0.14546941625E+02  0.43103304474E+02  0.18401822472E+03  0.17176595883E+03 0.  0.
        -24    2    5    5    0    0  0.57940144419E+01  0.40467372632E+02  0.85261012986E+02  0.11890321277E+03  0.72092682158E+02 0.  0.
          5    1    3    3  501    0 -0.16189297843E+02  0.45989425292E+01  0.13389769441E+02  0.22014076468E+02  0.47000000000E+01 0. -1.
        -13    1    4    4    0    0 -0.39603672544E+02  0.89080151376E+01 -0.80582866639E+02  0.90229717990E+02  0.00000000000E+00 0.  1.
         14    1    4    4    0    0  0.79426407133E+01 -0.28053899292E+02 -0.26020420606E+03  0.26183264819E+03  0.00000000000E+00 0. -1.
         -5    1    5    5    0  502  0.42056315232E+02 -0.25920431008E+02 -0.42157708512E+02  0.65115011952E+02  0.47000000000E+01 0.  1.
         13    1    6    6    0    0 -0.10073208771E+02 -0.61419965511E+01  0.64329549614E+02  0.65402481682E+02  0.00000000000E+00 0. -1.
        -14    1    6    6    0    0  0.15867223213E+02  0.46609369184E+02  0.20931463372E+02  0.53500731089E+02  0.00000000000E+00 0.  1.
</event>
<event>
12    1  0.1050869E+000  0.2624922E+03  0.7818608E-02  0.1105663E+00
         21   -1    0    0  501  502  0.00000000000E+00  0.00000000000E+00  0.19259519150E+04  0.19259519150E+04  0.00000000000E+00 0. -1.
         21   -1    0    0  502  503 -0.00000000000E+00 -0.00000000000E+00 -0.14855368806E+03  0.14855368806E+03  0.00000000000E+00 0. -1.
         -6    2    1    2    0  503 -0.42517432099E+02  0.19419611765E+03  0.17924707801E+04  0.18115809848E+04  0.17133097439E+03 0.  0.
        -24    2    3    3    0    0 -0.52767339905E+02  0.31826850793E+02  0.65500284426E+03  0.66252735919E+03  0.78207640906E+02 0.  0.
          6    2    1    2  501    0  0.42517432099E+02 -0.19419611765E+03 -0.15072553192E+02  0.26292461824E+03  0.17141268587E+03 0.  0.
         24    2    5    5    0    0  0.19574287029E+02 -0.18410821970E+03 -0.61876486260E+02  0.20962497714E+03  0.76386793470E+02 0.  0.
          5    1    5    5  501    0  0.22943145070E+02 -0.10087897946E+02  0.46803933068E+02  0.53299641099E+02  0.47000000000E+01 0. -1.
        -11    1    6    6    0    0 -0.23014715016E+02 -0.11356137681E+03 -0.21455597320E+02  0.11783974739E+03  0.00000000000E+00 0.  1.
         12    1    6    6    0    0  0.42589002046E+02 -0.70546842893E+02 -0.40420888940E+02  0.91785229749E+02  0.00000000000E+00 0. -1.
         -5    1    3    3    0  503  0.10249907806E+02  0.16236926685E+03  0.11374679359E+04  0.11490536256E+04  0.47000000000E+01 0.  1.
         13    1    4    4    0    0 -0.58408623962E+02  0.92920162325E+01  0.25166681066E+03  0.25852290518E+03  0.00000000000E+00 0. -1.
        -14    1    4    4    0    0  0.56412840575E+01  0.22534834560E+02  0.40333603360E+03  0.40400445401E+03  0.00000000000E+00 0.  1.
</event>
<event>
12    1  0.1050869E+000  0.2647947E+03  0.7818608E-02  0.1104411E+00
         21   -1    0    0  503  502  0.00000000000E+00  0.00000000000E+00  0.13283420555E+03  0.13283420555E+03  0.00000000000E+00 0. -1.
         21   -1    0    0  501  503 -0.00000000000E+00 -0.00000000000E+00 -0.13560442972E+04  0.13560442972E+04  0.00000000000E+00 0. -1.
          6    2    1    2  501    0 -0.12951110868E+03 -0.15451891825E+03 -0.29628678213E+02  0.26644719530E+03  0.17165962235E+03 0.  0.
         24    2    3    3    0    0 -0.40527387731E+02 -0.14206324366E+03 -0.36264060675E+02  0.17622876745E+03  0.88977873808E+02 0.  0.
         -6    2    1    2    0  502  0.12951110868E+03  0.15451891825E+03 -0.11935814134E+04  0.12224313074E+04  0.17044790282E+03 0.  0.
        -24    2    5    5    0    0  0.43189027393E+02  0.56399916896E+02 -0.81217391265E+03  0.81922836625E+03  0.80389109691E+02 0.  0.
          5    1    3    3  501    0 -0.88983720946E+02 -0.12455674590E+02  0.66353824621E+01  0.90218427848E+02  0.47000000000E+01 0. -1.
        -11    1    4    4    0    0 -0.67580178813E+02 -0.84899893433E+02 -0.15205351494E+02  0.10957314994E+03  0.00000000000E+00 0.  1.
         12    1    4    4    0    0  0.27052791082E+02 -0.57163350222E+02 -0.21058709181E+02  0.66655617515E+02  0.00000000000E+00 0. -1.
         -5    1    5    5    0  502  0.86322081284E+02  0.98119001349E+02 -0.38140750073E+03  0.40320294116E+03  0.47000000000E+01 0.  1.
         11    1    6    6    0    0 -0.19563270620E+02  0.17660779300E+01 -0.26930622431E+03  0.27002163439E+03  0.00000000000E+00 0. -1.
        -12    1    6    6    0    0  0.62752298013E+02  0.54633838966E+02 -0.54286768834E+03  0.54920673185E+03  0.00000000000E+00 0.  1.
</event>
<event>
12    1  0.1050869E+000  0.1963561E+03  0.7818608E-02  0.1153083E+00
         21   -1    0    0  503  502  0.00000000000E+00  0.00000000000E+00  0.46398608504E+03  0.46398608504E+03  0.00000000000E+00 0. -1.
         21   -1    0    0  501  503 -0.00000000000E+00 -0.00000000000E+00 -0.11575610000E+03  0.11575610000E+03  0.00000000000E+00 0. -1.
          6    2    1    2  501    0  0.63693493447E+02 -0.73280484300E+02  0.32881098660E+03  0.38242815005E+03  0.16943356973E+03 0.  0.
         24    2    3    3    0    0 -0.61907801717E+01  0.17306463294E+02  0.14153876318E+03  0.16292238147E+03  0.78566159832E+02 0.  0.
         -6    2    1    2    0  502 -0.63693493447E+02  0.73280484300E+02  0.19418998435E+02  0.19731403499E+03  0.17067173292E+03 0.  0.
        -24    2    5    5    0    0  0.95437011278E+01  0.41162165348E+02 -0.37390723193E+02  0.99106563010E+02  0.81477840935E+02 0.  0.
          5    1    3    3  501    0  0.69884273619E+02 -0.90586947594E+02  0.18727222342E+03  0.21950576858E+03  0.47000000000E+01 0. -1.
        -13    1    4    4    0    0  0.34808479178E-01 -0.24983685437E+02  0.14503947211E+02  0.28888583114E+02  0.00000000000E+00 0.  1.
         14    1    4    4    0    0 -0.62255886509E+01  0.42290148731E+02  0.12703481597E+03  0.13403379836E+03  0.00000000000E+00 0. -1.
         -5    1    5    5    0  502 -0.73237194575E+02  0.32118318952E+02  0.56809721628E+02  0.98207471981E+02  0.47000000000E+01 0.  1.
         13    1    6    6    0    0 -0.34844789466E+02  0.89584679919E+01 -0.21906558957E+02  0.42122569094E+02  0.00000000000E+00 0. -1.
        -14    1    6    6    0    0  0.44388490594E+02  0.32203697356E+02 -0.15484164236E+02  0.56983993917E+02  0.00000000000E+00 0.  1.
</event>
<event>
12    1  0.1050869E+000  0.2152561E+03  0.7818608E-02  0.1137795E+00
         21   -1    0    0  503  502  0.00000000000E+00  0.00000000000E+00  0.14852758572E+03  0.14852758572E+03  0.00000000000E+00 0. -1.
         21   -1    0    0  501  503 -0.00000000000E+00 -0.00000000000E+00 -0.34670287038E+03  0.34670287038E+03  0.00000000000E+00 0. -1.
          6    2    1    2  501    0 -0.93005886777E+02  0.87222400960E+02 -0.17982667092E+03  0.27919376441E+03  0.17132916946E+03 0.  0.
         24    2    3    3    0    0 -0.73284465047E+02  0.13308330420E+02 -0.17058413128E+03  0.20199441961E+03  0.78454287544E+02 0.  0.
         -6    2    1    2    0  502  0.93005886777E+02 -0.87222400960E+02 -0.18348613744E+02  0.21603669169E+03  0.17342819357E+03 0.  0.
        -24    2    5    5    0    0  0.12882588552E+03 -0.40516334099E+02 -0.97067228427E+01  0.15636005246E+03  0.78208461361E+02 0.  0.
          5    1    3    3  501    0 -0.19721421731E+02  0.73914070540E+02 -0.92425396472E+01  0.77199344803E+02  0.47000000000E+01 0. -1.
        -13    1    4    4    0    0 -0.87933427184E+02  0.45349878358E+01 -0.12168824555E+03  0.15020280569E+03  0.00000000000E+00 0.  1.
         14    1    4    4    0    0  0.14648962137E+02  0.87733425846E+01 -0.48895885724E+02  0.51791613921E+02  0.00000000000E+00 0. -1.
         -5    1    5    5    0  502 -0.35819998739E+02 -0.46706066861E+02 -0.86418909015E+01  0.59676639229E+02  0.47000000000E+01 0.  1.
         13    1    6    6    0    0  0.57936211479E+02  0.20093330518E+02 -0.14344409370E+02  0.62977048295E+02  0.00000000000E+00 0. -1.
        -14    1    6    6    0    0  0.70889674037E+02 -0.60609664617E+02  0.46376865276E+01  0.93383004162E+02  0.00000000000E+00 0.  1.
</event>
<event>
12    1  0.1050869E+000  0.2101176E+03  0.7818608E-02  0.1141746E+00
         21   -1    0    0  501  502  0.00000000000E+00  0.00000000000E+00  0.51336759681E+03  0.51336759681E+03  0.00000000000E+00 0. -1.
         21   -1    0    0  502  503 -0.00000000000E+00 -0.00000000000E+00 -0.97235529591E+02  0.97235529591E+02  0.00000000000E+00 0. -1.
         -6    2    1    2    0  503  0.77544885355E+02  0.89229314483E+02  0.31381451262E+03  0.37689758540E+03  0.17203825663E+03 0.  0.
        -24    2    3    3    0    0  0.43494897258E+02  0.79432394894E+01  0.61884240095E+02  0.10995605643E+03  0.79408903983E+02 0.  0.
          6    2    1    2  501    0 -0.77544885355E+02 -0.89229314483E+02  0.10231755460E+03  0.23370554100E+03  0.17370756491E+03 0.  0.
         24    2    5    5    0    0 -0.11900554841E+03 -0.63278137130E+02  0.74470504477E+02  0.17722547029E+03  0.87730086574E+02 0.  0.
          5    1    5    5  501    0  0.41460663057E+02 -0.25951177353E+02  0.27847050124E+02  0.56480070713E+02  0.47000000000E+01 0. -1.
        -13    1    6    6    0    0 -0.83728457017E+02 -0.75845424635E+02  0.25917365758E+02  0.11590812224E+03  0.00000000000E+00 0.  1.
         14    1    6    6    0    0 -0.35277091395E+02  0.12567287506E+02  0.48553138719E+02  0.61317348051E+02  0.00000000000E+00 0. -1.
         -5    1    3    3    0  503  0.34049988096E+02  0.81286074993E+02  0.25193027252E+03  0.26694152897E+03  0.47000000000E+01 0.  1.
         13    1    4    4    0    0 -0.16115768602E+02  0.17051690952E+02 -0.12160659318E+00  0.23462586177E+02  0.00000000000E+00 0. -1.
        -14    1    4    4    0    0  0.59610665860E+02 -0.91084514624E+01  0.62005846688E+02  0.86493470250E+02  0.00000000000E+00 0.  1.
</event>
<event>
12    1  0.1050869E+000  0.1812386E+03  0.7818608E-02  0.1168761E+00
         21   -1    0    0  503  502  0.00000000000E+00  0.00000000000E+00  0.29512207450E+03  0.29512207450E+03  0.00000000000E+00 0. -1.
         21   -1    0    0  501  503 -0.00000000000E+00 -0.00000000000E+00 -0.11869987771E+03  0.11869987771E+03  0.00000000000E+00 0. -1.
          6    2    1    2  501    0  0.31845149871E+02  0.43811496103E+02  0.15392651209E+03  0.23119254470E+03  0.16377747354E+03 0.  0.
         24    2    3    3    0    0  0.59276795443E+02 -0.21234733164E+02  0.83117239613E+02  0.13109484148E+03  0.79452687630E+02 0.  0.
         -6    2    1    2    0  502 -0.31845149871E+02 -0.43811496103E+02  0.22495684702E+02  0.18262940751E+03  0.17295630632E+03 0.  0.
        -24    2    5    5    0    0  0.19573369425E+02  0.21842796752E+02  0.40009684001E+02  0.97287855680E+02  0.83689470595E+02 0.  0.
          5    1    3    3  501    0 -0.27431645572E+02  0.65046229267E+02  0.70809272475E+02  0.10009770322E+03  0.47000000000E+01 0. -1.
        -11    1    4    4    0    0 -0.18924192502E+01 -0.37857569287E+02  0.28524210095E+02  0.47438458707E+02  0.00000000000E+00 0.  1.
         12    1    4    4    0    0  0.61169214693E+02  0.16622836123E+02  0.54593029518E+02  0.83656382774E+02  0.00000000000E+00 0. -1.
         -5    1    5    5    0  502 -0.51418519296E+02 -0.65654292854E+02 -0.17513999299E+02  0.85341551827E+02  0.47000000000E+01 0.  1.
         13    1    6    6    0    0 -0.33268464229E+01  0.32178589100E+01 -0.25245880417E+02  0.25666651537E+02  0.00000000000E+00 0. -1.
        -14    1    6    6    0    0  0.22900215848E+02  0.18624937842E+02  0.65255564418E+02  0.71621204144E+02  0.00000000000E+00 0.  1.
</event>
<event>
12    1  0.1050869E+000  0.2537763E+03  0.7818608E-02  0.1111093E+00
         21   -1    0    0  503  502  0.00000000000E+00  0.00000000000E+00  0.27426938828E+03  0.27426938828E+03  0.00000000000E+00 0.  1.
         21   -1    0    0  501  503 -0.00000000000E+00 -0.00000000000E+00 -0.25045600237E+03  0.25045600237E+03  0.00000000000E+00 0.  1.
          6    2    1    2  501    0 -0.17199590005E+03 -0.69002112523E+02  0.79315703062E+02  0.26495065669E+03  0.17194181738E+03 0.  0.
         24    2    3    3    0    0 -0.12389056078E+02 -0.36598386664E+01 -0.30545382736E+01  0.73767749366E+02  0.72563541210E+02 0.  0.
         -6    2    1    2    0  502  0.17199590005E+03  0.69002112523E+02 -0.55502317157E+02  0.25977473396E+03  0.17337394276E+03 0.  0.
        -24    2    5    5    0    0  0.10031019403E+03 -0.90316565092E+01 -0.79378088505E+02  0.15105375156E+03  0.79828873719E+02 0.  0.
          5    1    3    3  501    0 -0.15960684397E+03 -0.65342273857E+02  0.82370241335E+02  0.19118290733E+03  0.47000000000E+01 0. -1.
        -11    1    4    4    0    0 -0.26682431146E+02 -0.25963563842E+01 -0.31832945156E+02  0.41617659661E+02  0.00000000000E+00 0.  1.
         12    1    4    4    0    0  0.14293375068E+02 -0.10634822822E+01  0.28778406882E+02  0.32150089706E+02  0.00000000000E+00 0. -1.
         -5    1    5    5    0  502  0.71685706018E+02  0.78033769032E+02  0.23875771348E+02  0.10872098240E+03  0.47000000000E+01 0.  1.
         13    1    6    6    0    0  0.75442298881E+02  0.29359311060E+02 -0.38225775528E+02  0.89524965910E+02  0.00000000000E+00 0. -1.
        -14    1    6    6    0    0  0.24867895153E+02 -0.38390967569E+02 -0.41152312977E+02  0.61528785651E+02  0.00000000000E+00 0.  1.
</event>
<event>
12    1  0.1050869E+000  0.2447130E+03  0.7818608E-02  0.1116732E+00
         21   -1    0    0  503  502  0.00000000000E+00  0.00000000000E+00  0.15011918591E+03  0.15011918591E+03  0.00000000000E+00 0.  1.
         21   -1    0    0  501  503 -0.00000000000E+00 -0.00000000000E+00 -0.40781154120E+03  0.40781154120E+03  0.00000000000E+00 0.  1.
          6    2    1    2  501    0 -0.14533894812E+03 -0.95014790292E+02 -0.17089547521E+03  0.29828071302E+03  0.17208980242E+03 0.  0.
         24    2    3    3    0    0 -0.43958808474E+02 -0.88233926923E+02 -0.39775186537E+02  0.13233333303E+03  0.78819051405E+02 0.  0.
         -6    2    1    2    0  502  0.14533894812E+03  0.95014790292E+02 -0.86796880074E+02  0.25965001410E+03  0.17243320798E+03 0.  0.
        -24    2    5    5    0    0  0.88653309408E+02  0.12658967629E+03 -0.34477089232E+02  0.17616537135E+03  0.77208891769E+02 0.  0.
          5    1    3    3  501    0 -0.10138013964E+03 -0.67808633688E+01 -0.13112028868E+03  0.16594737999E+03  0.47000000000E+01 0. -1.
        -13    1    4    4    0    0 -0.14278272290E+02 -0.61875288843E+02 -0.60365919311E+02  0.87615436102E+02  0.00000000000E+00 0.  1.
         14    1    4    4    0    0 -0.29680536185E+02 -0.26358638080E+02  0.20590732774E+02  0.44717896930E+02  0.00000000000E+00 0. -1.
         -5    1    5    5    0  502  0.56685638708E+02 -0.31574885994E+02 -0.52319790843E+02  0.83484642750E+02  0.47000000000E+01 0.  1.
         11    1    6    6    0    0  0.78943485110E+02  0.58294080685E+02  0.19549590496E+01  0.98153428616E+02  0.00000000000E+00 0. -1.
        -12    1    6    6    0    0  0.97098242973E+01  0.68295595601E+02 -0.36432048281E+02  0.78011942729E+02  0.00000000000E+00 0.  1.
</event>
<event>
12    1  0.1050869E+000  0.2061827E+03  0.7818608E-02  0.1144905E+00
         21   -1    0    0  501  502  0.00000000000E+00  0.00000000000E+00  0.49230008048E+03  0.49230008048E+03  0.00000000000E+00 0. -1.
         21   -1    0    0  502  503 -0.00000000000E+00 -0.00000000000E+00 -0.14048081329E+03  0.14048081329E+03  0.00000000000E+00 0. -1.
         -6    2    1    2    0  503 -0.43862286501E+02 -0.10311267036E+03  0.37370422994E+03  0.42680926434E+03  0.17307562995E+03 0.  0.
        -24    2    3    3    0    0 -0.25035071203E+02 -0.78807215457E+02  0.98416526367E+02  0.14977022573E+03  0.76863358340E+02 0.  0.
          6    2    1    2  501    0  0.43862286501E+02  0.10311267036E+03 -0.21884962746E+02  0.20597162944E+03  0.17143289525E+03 0.  0.
         24    2    5    5    0    0  0.29834471896E+02  0.11449056082E+02  0.39311994815E+02  0.94768412851E+02  0.80090215005E+02 0.  0.
          5    1    5    5  501    0  0.14027814605E+02  0.91663614278E+02 -0.61196957561E+02  0.11120321659E+03  0.47000000000E+01 0. -1.
        -11    1    6    6    0    0  0.22183327369E+01  0.91847677171E+00 -0.24408905933E+02  0.24526705620E+02  0.00000000000E+00 0.  1.
         12    1    6    6    0    0  0.27616139159E+02  0.10530579310E+02  0.63720900748E+02  0.70241707232E+02  0.00000000000E+00 0. -1.
         -5    1    3    3    0  503 -0.18827215297E+02 -0.24305454904E+02  0.27528770357E+03  0.27703903860E+03  0.47000000000E+01 0.  1.
         11    1    4    4    0    0 -0.54288023096E+01  0.15371742420E+02  0.18925913695E+02  0.24979042591E+02  0.00000000000E+00 0. -1.
        -12    1    4    4    0    0 -0.19606268894E+02 -0.94178957877E+02  0.79490612672E+02  0.12479118314E+03  0.00000000000E+00 0.  1.
</event>
<event>
12    1  0.1050869E+000  0.3396406E+03  0.7818608E-02  0.1066966E+00
         21   -1    0    0  503  502  0.00000000000E+00  0.00000000000E+00  0.31516685012E+03  0.31516685012E+03  0.00000000000E+00 0. -1.
         21   -1    0    0  501  503 -0.00000000000E+00 -0.00000000000E+00 -0.37890554137E+03  0.37890554137E+03  0.00000000000E+00 0. -1.
          6    2    1    2  501    0 -0.25404806943E+03  0.14573117717E+03  0.32582475079E+02  0.34103767045E+03  0.17165977224E+03 0.  0.
         24    2    3    3    0    0 -0.26440739242E+03  0.14060419725E+03  0.37969688010E+01  0.30966416463E+03  0.78718920431E+02 0.  0.
         -6    2    1    2    0  502  0.25404806943E+03 -0.14573117717E+03 -0.96321166337E+02  0.35303472104E+03  0.17198182925E+03 0.  0.
        -24    2    5    5    0    0  0.19587552536E+03 -0.16328059382E+03 -0.11221945394E+03  0.29005160857E+03  0.80678101343E+02 0.  0.
          5    1    3    3  501    0  0.10359322988E+02  0.51269799219E+01  0.28785506278E+02  0.31373505823E+02  0.47000000000E+01 0. -1.
        -13    1    4    4    0    0 -0.19601266126E+02 -0.77410145265E+01 -0.94858176801E+01  0.23110899522E+02  0.00000000000E+00 0.  1.
         14    1    4    4    0    0 -0.24480612629E+03  0.14834521178E+03  0.13282786481E+02  0.28655326511E+03  0.00000000000E+00 0. -1.
         -5    1    5    5    0  502  0.58172544066E+02  0.17549416647E+02  0.15898287603E+02  0.62983112471E+02  0.47000000000E+01 0.  1.
         11    1    6    6    0    0  0.21315475956E+02 -0.52789161474E+02 -0.45738939057E+02  0.73028046875E+02  0.00000000000E+00 0. -1.
        -12    1    6    6    0    0  0.17456004941E+03 -0.11049143234E+03 -0.66480514884E+02  0.21702356169E+03  0.00000000000E+00 0.  1.
</event>
<event>
12    1  0.1050869E+000  0.2546773E+03  0.7818608E-02  0.1110505E+00
         21   -1    0    0  503  502  0.00000000000E+00  0.00000000000E+00  0.18145913377E+03  0.18145913377E+03  0.00000000000E+00 0.  1.
         21   -1    0    0  501  503 -0.00000000000E+00 -0.00000000000E+00 -0.52508745677E+03  0.52508745677E+03  0.00000000000E+00 0.  1.
          6    2    1    2  501    0  0.18360678959E+03  0.36859538567E+02 -0.37226142641E+03  0.45104222202E+03  0.17259906629E+03 0.  0.
         24    2    3    3    0    0  0.10496586788E+03  0.82263591799E+02 -0.28511942900E+03  0.32509882072E+03  0.81308194456E+02 0.  0.
         -6    2    1    2    0  502 -0.18360678959E+03 -0.36859538567E+02  0.28633103407E+02  0.25550436852E+03  0.17144255292E+03 0.  0.
        -24    2    5    5    0    0 -0.20124063705E+03 -0.25654015600E+02  0.52112793441E+02  0.22372541062E+03  0.78621839204E+02 0.  0.
          5    1    3    3  501    0  0.78640921716E+02 -0.45404053232E+02 -0.87141997407E+02  0.12594340130E+03  0.47000000000E+01 0. -1.
        -13    1    4    4    0    0  0.38458753436E+02  0.15617982107E+02 -0.24982014336E+02  0.48446858734E+02  0.00000000000E+00 0.  1.
         14    1    4    4    0    0  0.66507114442E+02  0.66645609692E+02 -0.26013741467E+03  0.27665196199E+03  0.00000000000E+00 0. -1.
         -5    1    5    5    0  502  0.17633847455E+02 -0.11205522966E+02 -0.23479690033E+02  0.31778957898E+02  0.47000000000E+01 0.  1.
         11    1    6    6    0    0 -0.28800933901E+02  0.16076056861E+02  0.30629617609E+02  0.45012296905E+02  0.00000000000E+00 0. -1.
        -12    1    6    6    0    0 -0.17243970315E+03 -0.41730072461E+02  0.21483175831E+02  0.17871311371E+03  0.00000000000E+00 0.  1.
</event>
<event>
12    1  0.1050869E+000  0.1981490E+03  0.7818608E-02  0.1151572E+00
         21   -1    0    0  503  502  0.00000000000E+00  0.00000000000E+00  0.29859775247E+03  0.29859775247E+03  0.00000000000E+00 0.  1.
         21   -1    0    0  501  503 -0.00000000000E+00 -0.00000000000E+00 -0.17660521793E+03  0.17660521793E+03  0.00000000000E+00 0.  1.
          6    2    1    2  501    0  0.87829524265E+02 -0.41933637752E+02  0.18201856888E+03  0.26816158913E+03  0.17119410960E+03 0.  0.
         24    2    3    3    0    0 -0.14583473428E+02  0.21744335850E+01  0.10289221507E+03  0.13135145091E+03  0.80305603015E+02 0.  0.
         -6    2    1    2    0  502 -0.87829524265E+02  0.41933637752E+02 -0.60026034336E+02  0.20704138127E+03  0.17259940166E+03 0.  0.
        -24    2    5    5    0    0 -0.52520383649E+02 -0.37097307009E+02 -0.18040033948E+01  0.10261666902E+03  0.79952019656E+02 0.  0.
          5    1    3    3  501    0  0.10241299769E+03 -0.44108071337E+02  0.79126353811E+02  0.13681013822E+03  0.47000000000E+01 0. -1.
        -13    1    4    4    0    0  0.24281339470E+02 -0.72737249810E+01  0.82797562116E+02  0.86590570006E+02  0.00000000000E+00 0.  1.
         14    1    4    4    0    0 -0.38864812899E+02  0.94481585660E+01  0.20094652951E+02  0.44760880902E+02  0.00000000000E+00 0. -1.
         -5    1    5    5    0  502 -0.35309140615E+02  0.79030944761E+02 -0.58222030941E+02  0.10442471225E+03  0.47000000000E+01 0.  1.
         13    1    6    6    0    0 -0.66196397150E+02 -0.50442339896E+02  0.14272479615E+01  0.83237189325E+02  0.00000000000E+00 0. -1.
        -14    1    6    6    0    0  0.13676013501E+02  0.13345032888E+02 -0.32312513563E+01  0.19379479698E+02  0.00000000000E+00 0.  1.
</event>
<event>
12    1  0.1050869E+000  0.2990815E+03  0.7818608E-02  0.1085770E+00
         21   -1    0    0  501  502  0.00000000000E+00  0.00000000000E+00  0.57009656640E+03  0.57009656640E+03  0.00000000000E+00 0.  1.
         21   -1    0    0  502  503 -0.00000000000E+00 -0.00000000000E+00 -0.21597818769E+03  0.21597818769E+03  0.00000000000E+00 0.  1.
         -6    2    1    2    0  503 -0.12745548235E+03 -0.20888277491E+03  0.38300270060E+03  0.48560167049E+03  0.17100000024E+03 0.  0.
        -24    2    3    3    0    0 -0.13415498716E+03 -0.11644968883E+03  0.20204763214E+03  0.28224094280E+03  0.85314790803E+02 0.  0.
          6    2    1    2  501    0  0.12745548235E+03  0.20888277491E+03 -0.28884321895E+02  0.30047308360E+03  0.17196760242E+03 0.  0.
         24    2    5    5    0    0  0.12539341285E+03  0.22374457520E+03 -0.11167497650E+01  0.26856300211E+03  0.79622208304E+02 0.  0.
          5    1    5    5  501    0  0.20620694988E+01 -0.14861800292E+02 -0.27767572130E+02  0.31910081488E+02  0.47000000000E+01 0. -1.
        -11    1    6    6    0    0 -0.38341336835E+01  0.50526989008E+02  0.11931959985E+02  0.52058129706E+02  0.00000000000E+00 0.  1.
         12    1    6    6    0    0  0.12922754653E+03  0.17321758619E+03 -0.13048709750E+02  0.21650487241E+03  0.00000000000E+00 0. -1.
         -5    1    3    3    0  503  0.66995048054E+01 -0.92433086075E+02  0.18095506846E+03  0.20336072769E+03  0.47000000000E+01 0.  1.
         11    1    4    4    0    0 -0.49451683736E+02 -0.97174362780E+02  0.97075109681E+02  0.14598596756E+03  0.00000000000E+00 0. -1.
        -12    1    4    4    0    0 -0.84703303419E+02 -0.19275326055E+02  0.10497252246E+03  0.13625497523E+03  0.00000000000E+00 0.  1.
</event>
<event>
12    1  0.1050869E+000  0.1958138E+03  0.7818608E-02  0.1159582E+00
         21   -1    0    0  501  502  0.00000000000E+00  0.00000000000E+00  0.57557744518E+03  0.57557744518E+03  0.00000000000E+00 0.  1.
         21   -1    0    0  502  503 -0.00000000000E+00 -0.00000000000E+00 -0.72105257934E+02  0.72105257934E+02  0.00000000000E+00 0.  1.
         -6    2    1    2    0  503  0.60099041426E+02  0.51476189840E+02  0.38069792819E+03  0.41656245917E+03  0.14943786991E+03 0.  0.
        -24    2    3    3    0    0  0.81053457933E+02  0.21108276436E+02  0.34856574741E+03  0.36741101181E+03  0.80483221590E+02 0.  0.
          6    2    1    2  501    0 -0.60099041426E+02 -0.51476189840E+02  0.12277425906E+03  0.23112024394E+03  0.17911268959E+03 0.  0.
         24    2    5    5    0    0 -0.40161072895E+01 -0.91886238944E+02  0.96006285355E+02  0.15684452795E+03  0.83209308946E+02 0.  0.
          5    1    5    5  501    0 -0.56082934136E+02  0.40410049104E+02  0.26767973700E+02  0.74275715991E+02  0.47000000000E+01 0. -1.
        -11    1    6    6    0    0 -0.29615883020E+02 -0.16701781810E+02  0.61450148602E+02  0.70229415532E+02  0.00000000000E+00 0.  1.
         12    1    6    6    0    0  0.25599775731E+02 -0.75184457134E+02  0.34556136753E+02  0.86615112418E+02  0.00000000000E+00 0. -1.
         -5    1    3    3    0  503 -0.20954416507E+02  0.30367913404E+02  0.32132180778E+02  0.49151447357E+02  0.47000000000E+01 0.  1.
         13    1    4    4    0    0  0.75168046041E+02 -0.16012735617E+02  0.26196493724E+03  0.27300599112E+03  0.00000000000E+00 0. -1.
        -14    1    4    4    0    0  0.58854118924E+01  0.37121012053E+02  0.86600810175E+02  0.94405020693E+02  0.00000000000E+00 0.  1.
</event>
<event>
12    1  0.1050869E+000  0.2525819E+03  0.7818608E-02  0.1112144E+00
         21   -1    0    0  501  502  0.00000000000E+00  0.00000000000E+00  0.10535681749E+03  0.10535681749E+03  0.00000000000E+00 0. -1.
         21   -1    0    0  502  503 -0.00000000000E+00 -0.00000000000E+00 -0.62774186290E+03  0.62774186290E+03  0.00000000000E+00 0.  1.
         -6    2    1    2    0  503 -0.13092390973E+03  0.12491722940E+03 -0.33880267503E+03  0.42084863013E+03  0.17199108271E+03 0.  0.
        -24    2    3    3    0    0 -0.40540235407E+01  0.56262548284E+02 -0.89501473119E+02  0.13278160228E+03  0.80240455920E+02 0.  0.
          6    2    1    2  501    0  0.13092390973E+03 -0.12491722940E+03 -0.18358237038E+03  0.31225005027E+03  0.17621640910E+03 0.  0.
         24    2    5    5    0    0  0.63441429613E+02  0.10574548706E+02 -0.56898277029E+02  0.11480928303E+03  0.76204471451E+02 0.  0.
          5    1    5    5  501    0  0.67482480118E+02 -0.13549177811E+03 -0.12668409336E+03  0.19744076724E+03  0.47000000000E+01 0. -1.
        -11    1    6    6    0    0  0.22698827689E+02 -0.12654405602E+02 -0.62393307592E+02  0.67589167711E+02  0.00000000000E+00 0.  1.
         12    1    6    6    0    0  0.40742601923E+02  0.23228954308E+02  0.54950305635E+01  0.47220115318E+02  0.00000000000E+00 0. -1.
         -5    1    3    3    0  503 -0.12686988619E+03  0.68654681119E+02 -0.24930120191E+03  0.28806702785E+03  0.47000000000E+01 0.  1.
         11    1    4    4    0    0 -0.99401808139E+01  0.61473284046E+02 -0.10111839067E+03  0.11875479266E+03  0.00000000000E+00 0. -1.
        -12    1    4    4    0    0  0.58861572732E+01 -0.52107357620E+01  0.11616917556E+02  0.14026809620E+02  0.00000000000E+00 0.  1.
</event>
<event>
12    1  0.1050869E+000  0.2617857E+03  0.7818608E-02  0.1107230E+00
         21   -1    0    0  501  502  0.00000000000E+00  0.00000000000E+00  0.14327951544E+03  0.14327951544E+03  0.00000000000E+00 0. -1.
         21   -1    0    0  502  503 -0.00000000000E+00 -0.00000000000E+00 -0.49675981315E+03  0.49675981315E+03  0.00000000000E+00 0. -1.
         -6    2    1    2    0  503  0.12028968562E+03 -0.14337797058E+03 -0.97584695100E+02  0.27938244620E+03  0.18304351290E+03 0.  0.
        -24    2    3    3    0    0  0.78892879787E+02 -0.68538633771E+01 -0.72681644861E+02  0.13448669302E+03  0.80826896355E+02 0.  0.
          6    2    1    2  501    0 -0.12028968562E+03  0.14337797058E+03 -0.25589560261E+03  0.36065688238E+03  0.17194178219E+03 0.  0.
         24    2    5    5    0    0 -0.45214635208E+02  0.70285328487E+02 -0.22249389435E+03  0.25058162796E+03  0.79392875072E+02 0.  0.
          5    1    5    5  501    0 -0.75075050408E+02  0.73092642089E+02 -0.33401708265E+02  0.11007525442E+03  0.47000000000E+01 0. -1.
        -11    1    6    6    0    0  0.15053217390E+02  0.48786136984E+02 -0.90956226284E+02  0.10430590403E+03  0.00000000000E+00 0.  1.
         12    1    6    6    0    0 -0.60267852598E+02  0.21499191503E+02 -0.13153766806E+03  0.14627572393E+03  0.00000000000E+00 0. -1.
         -5    1    3    3    0  503  0.41396805829E+02 -0.13652410720E+03 -0.24903050240E+02  0.14489575318E+03  0.47000000000E+01 0.  1.
         13    1    4    4    0    0  0.30884538961E+02  0.36091563196E+02 -0.21155966424E+02  0.52000294192E+02  0.00000000000E+00 0. -1.
        -14    1    4    4    0    0  0.48008340827E+02 -0.42945426573E+02 -0.51525678437E+02  0.82486398824E+02  0.00000000000E+00 0.  1.
</event>
<event>
12    1  0.1050869E+000  0.1835820E+03  0.7818608E-02  0.1164712E+00
         21   -1    0    0  503  502  0.00000000000E+00  0.00000000000E+00  0.79559928402E+02  0.79559928402E+02  0.00000000000E+00 0. -1.
         21   -1    0    0  501  503 -0.00000000000E+00 -0.00000000000E+00 -0.42469364397E+03  0.42469364397E+03  0.00000000000E+00 0. -1.
          6    2    1    2  501    0  0.60833130182E+02 -0.15465413815E+02 -0.14783100747E+03  0.23570392419E+03  0.17251806965E+03 0.  0.
         24    2    3    3    0    0  0.84755048722E+02  0.23045160022E+02 -0.52937630282E+02  0.13043205939E+03  0.80595482079E+02 0.  0.
         -6    2    1    2    0  502 -0.60833130182E+02  0.15465413815E+02 -0.19730270809E+03  0.26854964818E+03  0.17102837825E+03 0.  0.
        -24    2    5    5    0    0 -0.28070306960E+02  0.74003154575E+02 -0.10013944266E+03  0.15038510262E+03  0.79519570508E+02 0.  0.
          5    1    3    3  501    0 -0.23921918541E+02 -0.38510573837E+02 -0.94893377189E+02  0.10527186480E+03  0.47000000000E+01 0. -1.
        -13    1    4    4    0    0  0.72940016531E+02  0.17333464324E+02  0.94206463478E+00  0.74977213090E+02  0.00000000000E+00 0.  1.
         14    1    4    4    0    0  0.11815032191E+02  0.57116956981E+01 -0.53879694917E+02  0.55454846296E+02  0.00000000000E+00 0. -1.
         -5    1    5    5    0  502 -0.32762823222E+02 -0.58537740760E+02 -0.97163265429E+02  0.11816454556E+03  0.47000000000E+01 0.  1.
         11    1    6    6    0    0 -0.24465902567E+02  0.10547683066E+02  0.54009217502E+01  0.27184627314E+02  0.00000000000E+00 0. -1.
        -12    1    6    6    0    0 -0.36044043932E+01  0.63455471509E+02 -0.10554036441E+03  0.12320047531E+03  0.00000000000E+00 0.  1.
</event>
<event>
12    1  0.1050869E+000  0.2230020E+03  0.7818608E-02  0.1131780E+00
         21   -1    0    0  501  502  0.00000000000E+00  0.00000000000E+00  0.21080272187E+03  0.21080272187E+03  0.00000000000E+00 0.  1.
         21   -1    0    0  502  503 -0.00000000000E+00 -0.00000000000E+00 -0.24823434742E+03  0.24823434742E+03  0.00000000000E+00 0.  1.
         -6    2    1    2    0  503  0.11834712592E+03 -0.78511083152E+02  0.33823368925E+02  0.22492774579E+03  0.17110943326E+03 0.  0.
        -24    2    3    3    0    0  0.64536102440E+02  0.18748756604E+02  0.45047826572E+02  0.11311012139E+03  0.79045357170E+02 0.  0.
          6    2    1    2  501    0 -0.11834712592E+03  0.78511083152E+02 -0.71254994478E+02  0.23410932349E+03  0.17192983662E+03 0.  0.
         24    2    5    5    0    0 -0.14354158511E+03  0.42418045299E+02 -0.30874762428E+02  0.17419170258E+03  0.83582420817E+02 0.  0.
          5    1    5    5  501    0  0.25194459196E+02  0.36093037853E+02 -0.40380232050E+02  0.59917620915E+02  0.47000000000E+01 0. -1.
        -11    1    6    6    0    0 -0.37613798473E+02 -0.83460750194E+01  0.23097769109E+02  0.44921729058E+02  0.00000000000E+00 0.  1.
         12    1    6    6    0    0 -0.10592778664E+03  0.50764120318E+02 -0.53972531537E+02  0.12926997352E+03  0.00000000000E+00 0. -1.
         -5    1    3    3    0  503  0.53811023475E+02 -0.97259839756E+02 -0.11224457647E+02  0.11181762440E+03  0.47000000000E+01 0.  1.
         13    1    4    4    0    0  0.66876032485E+02 -0.15443165141E+02  0.23127873785E+02  0.72427851109E+02  0.00000000000E+00 0. -1.
        -14    1    4    4    0    0 -0.23399300440E+01  0.34191921745E+02  0.21919952787E+02  0.40682270283E+02  0.00000000000E+00 0.  1.
</event>
<event>
12    1  0.1050869E+000  0.1770025E+03  0.7818608E-02  0.1171529E+00
         21   -1    0    0  501  502  0.00000000000E+00  0.00000000000E+00  0.14681274243E+03  0.14681274243E+03  0.00000000000E+00 0.  1.
         21   -1    0    0  502  503 -0.00000000000E+00 -0.00000000000E+00 -0.24810928498E+03  0.24810928498E+03  0.00000000000E+00 0.  1.
         -6    2    1    2    0  503 -0.19628468490E+00 -0.33694860652E+02  0.26767171149E+02  0.17901495196E+03  0.17376561631E+03 0.  0.
        -24    2    3    3    0    0  0.38856195723E+02  0.25171759445E+02  0.48139349020E+02  0.10506067436E+03  0.81098254938E+02 0.  0.
          6    2    1    2  501    0  0.19628468490E+00  0.33694860652E+02 -0.12806371370E+03  0.21590707546E+03  0.17052908345E+03 0.  0.
         24    2    5    5    0    0 -0.45355907708E+02 -0.28328020509E+02 -0.79635363094E+02  0.12486183856E+03  0.79931549235E+02 0.  0.
          5    1    5    5  501    0  0.45552192393E+02  0.62022881161E+02 -0.48428350606E+02  0.91045236897E+02  0.47000000000E+01 0. -1.
        -11    1    6    6    0    0  0.35568187614E+01 -0.52317890775E+01  0.14764524063E+02  0.16062806338E+02  0.00000000000E+00 0.  1.
         12    1    6    6    0    0 -0.48912726470E+02 -0.23096231431E+02 -0.94399887156E+02  0.10879903222E+03  0.00000000000E+00 0. -1.
         -5    1    3    3    0  503 -0.39052480408E+02 -0.58866620097E+02 -0.21372177871E+02  0.73954277595E+02  0.47000000000E+01 0.  1.
         11    1    4    4    0    0  0.26796021552E+02 -0.20491293927E+02 -0.48486615272E+01  0.34079750827E+02  0.00000000000E+00 0. -1.
        -12    1    4    4    0    0  0.12060174171E+02  0.45663053372E+02  0.52988010547E+02  0.70980923536E+02  0.00000000000E+00 0.  1.
</event>
<event>
12    1  0.1050869E+000  0.2354534E+03  0.7818608E-02  0.1123018E+00
         21   -1    0    0  503  502  0.00000000000E+00  0.00000000000E+00  0.30638264329E+03  0.30638264329E+03  0.00000000000E+00 0. -1.
         21   -1    0    0  501  503 -0.00000000000E+00 -0.00000000000E+00 -0.18809944449E+03  0.18809944449E+03  0.00000000000E+00 0. -1.
          6    2    1    2  501    0 -0.29280923277E+02 -0.15873589385E+03  0.10958902119E+03  0.25886826084E+03  0.17014278252E+03 0.  0.
         24    2    3    3    0    0 -0.11320174752E+02 -0.17605509065E+02  0.69837798655E+01  0.83396612013E+02  0.80424631850E+02 0.  0.
         -6    2    1    2    0  502  0.29280923277E+02  0.15873589385E+03  0.86941776171E+01  0.23561382694E+03  0.17141712358E+03 0.  0.
        -24    2    5    5    0    0 -0.18727111275E+02  0.16743321486E+03  0.66157453086E+01  0.18655442768E+03  0.79838588825E+02 0.  0.
          5    1    3    3  501    0 -0.17960748525E+02 -0.14113038478E+03  0.10260524132E+03  0.17547164883E+03  0.47000000000E+01 0. -1.
        -11    1    4    4    0    0 -0.45971591072E+02 -0.62964561196E+01  0.68261709220E+00  0.46405802563E+02  0.00000000000E+00 0.  1.
         12    1    4    4    0    0  0.34651416320E+02 -0.11309052946E+02  0.63011627733E+01  0.36990809451E+02  0.00000000000E+00 0. -1.
         -5    1    5    5    0  502  0.48008034552E+02 -0.86973210160E+01  0.20784323085E+01  0.49059399255E+02  0.47000000000E+01 0.  1.
         11    1    6    6    0    0 -0.37361444788E+02  0.46904637753E+02 -0.16998613647E+02  0.62328769163E+02  0.00000000000E+00 0. -1.
        -12    1    6    6    0    0  0.18634333512E+02  0.12052857711E+03  0.23614358956E+02  0.12422565852E+03  0.00000000000E+00 0.  1.
</event>
<event>
12    1  0.1050869E+000  0.2178460E+03  0.7818608E-02  0.1135592E+00
         21   -1    0    0  501  502  0.00000000000E+00  0.00000000000E+00  0.23405593415E+03  0.23405593415E+03  0.00000000000E+00 0. -1.
         21   -1    0    0  502  503 -0.00000000000E+00 -0.00000000000E+00 -0.29024390521E+03  0.29024390521E+03  0.00000000000E+00 0. -1.
         -6    2    1    2    0  503 -0.13160232400E+03 -0.27144033778E+02  0.11618432470E+03  0.24689207289E+03  0.17146698837E+03 0.  0.
        -24    2    3    3    0    0 -0.15707957208E+03 -0.45816201921E+02  0.11770461144E+03  0.21492112819E+03  0.74589539912E+02 0.  0.
          6    2    1    2  501    0  0.13160232400E+03  0.27144033778E+02 -0.17237229575E+03  0.27740776647E+03  0.17084171126E+03 0.  0.
         24    2    5    5    0    0  0.36817729242E+02 -0.20649033079E+02 -0.13844764168E+03  0.16586733077E+03  0.81007988355E+02 0.  0.
          5    1    5    5  501    0  0.94784594753E+02  0.47793066858E+02 -0.33924654073E+02  0.11154043570E+03  0.47000000000E+01 0. -1.
        -11    1    6    6    0    0  0.62876682134E+02 -0.15170239963E+02 -0.10019955643E+03  0.11926258611E+03  0.00000000000E+00 0.  1.
         12    1    6    6    0    0 -0.26058952892E+02 -0.54787931165E+01 -0.38248085251E+02  0.46604744664E+02  0.00000000000E+00 0. -1.
         -5    1    3    3    0  503  0.25477248089E+02  0.18672168143E+02 -0.15202867403E+01  0.31970944702E+02  0.47000000000E+01 0.  1.
         11    1    4    4    0    0  0.67615729665E+01  0.17916001596E+01 -0.10085525010E+01  0.70672397908E+01  0.00000000000E+00 0. -1.
        -12    1    4    4    0    0 -0.16384114505E+03 -0.47607802081E+02  0.11871316394E+03  0.20785388840E+03  0.00000000000E+00 0.  1.
</event>
<event>
12    1  0.1050869E+000  0.2333055E+03  0.7818608E-02  0.1124477E+00
         21   -1    0    0  503  502  0.00000000000E+00  0.00000000000E+00  0.34922794856E+03  0.34922794856E+03  0.00000000000E+00 0.  1.
         21   -1    0    0  501  503 -0.00000000000E+00 -0.00000000000E+00 -0.15537343828E+03  0.15537343828E+03  0.00000000000E+00 0.  1.
          6    2    1    2  501    0  0.18896510336E+02  0.15528833689E+03  0.10176337772E+03  0.25377828877E+03  0.17197700175E+03 0.  0.
         24    2    3    3    0    0  0.65886985037E+02  0.74215901961E+02  0.98306111212E+02  0.15989065855E+03  0.77793549139E+02 0.  0.
         -6    2    1    2    0  502 -0.18896510336E+02 -0.15528833689E+03  0.92091132560E+02  0.25082309806E+03  0.17308929531E+03 0.  0.
        -24    2    5    5    0    0  0.49020656287E+02 -0.60282296196E+02  0.69840249373E+02  0.13184376754E+03  0.80424738905E+02 0.  0.
          5    1    3    3  501    0 -0.46990474700E+02  0.81072434926E+02  0.34572665061E+01  0.93887630224E+02  0.47000000000E+01 0. -1.
        -13    1    4    4    0    0  0.32402945243E+02  0.28801470431E+02  0.93743396042E+02  0.10328262129E+03  0.00000000000E+00 0.  1.
         14    1    4    4    0    0  0.33484039794E+02  0.45414431531E+02  0.45627151708E+01  0.56608037255E+02  0.00000000000E+00 0. -1.
         -5    1    5    5    0  502 -0.67917166623E+02 -0.95006040692E+02  0.22250883186E+02  0.11897933053E+03  0.47000000000E+01 0.  1.
         13    1    6    6    0    0  0.61589419243E+02 -0.70332958038E+02  0.49115883963E+02  0.10560469500E+03  0.00000000000E+00 0. -1.
        -14    1    6    6    0    0 -0.12568762956E+02  0.10050661843E+02  0.20724365410E+02  0.26239072533E+02  0.00000000000E+00 0.  1.
</event>
<event>
12    1  0.1050869E+000  0.1736766E+03  0.7818608E-02  0.1174188E+00
         21   -1    0    0  501  502  0.00000000000E+00  0.00000000000E+00  0.70762144295E+02  0.70762144295E+02  0.00000000000E+00 0. -1.
         21   -1    0    0  502  503 -0.00000000000E+00 -0.00000000000E+00 -0.43495306852E+03  0.43495306852E+03  0.00000000000E+00 0. -1.
         -6    2    1    2    0  503 -0.24854211323E+02  0.14317086802E+02 -0.22039438199E+03  0.28060157036E+03  0.17129170114E+03 0.  0.
        -24    2    3    3    0    0 -0.85183008975E+02  0.21175717264E+02 -0.13919713118E+03  0.17910433800E+03  0.70696297934E+02 0.  0.
          6    2    1    2  501    0  0.24854211323E+02 -0.14317086802E+02 -0.14379654224E+03  0.22511364246E+03  0.17080982310E+03 0.  0.
         24    2    5    5    0    0  0.34890049681E+02 -0.65020571111E+02 -0.54734526532E+02  0.12203263541E+03  0.80318774117E+02 0.  0.
          5    1    5    5  501    0 -0.10035838358E+02  0.50703484310E+02 -0.89062015706E+02  0.10308100705E+03  0.47000000000E+01 0. -1.
        -13    1    6    6    0    0 -0.24453454138E+02 -0.18899386618E+02 -0.29569934100E+02  0.42773113477E+02  0.00000000000E+00 0.  1.
         14    1    6    6    0    0  0.59343503819E+02 -0.46121184494E+02 -0.25164592432E+02  0.79259521932E+02  0.00000000000E+00 0. -1.
         -5    1    3    3    0  503  0.60328797652E+02 -0.68586304621E+01 -0.81197250811E+02  0.10149723236E+03  0.47000000000E+01 0.  1.
         13    1    4    4    0    0 -0.57536980885E+02  0.41024519278E+02 -0.12196398513E+03  0.14095647917E+03  0.00000000000E+00 0. -1.
        -14    1    4    4    0    0 -0.27646028090E+02 -0.19848802014E+02 -0.17233146054E+02  0.38147858832E+02  0.00000000000E+00 0.  1.
</event>
<event>
12    1  0.1050869E+000  0.2500987E+03  0.7818608E-02  0.1113244E+00
         21   -1    0    0  501  502  0.00000000000E+00  0.00000000000E+00  0.34352083361E+03  0.34352083361E+03  0.00000000000E+00 0. -1.
         21   -1    0    0  502  503 -0.00000000000E+00 -0.00000000000E+00 -0.19096496197E+03  0.19096496197E+03  0.00000000000E+00 0. -1.
         -6    2    1    2    0  503  0.10650584452E+03 -0.14697120027E+03  0.18616026641E+02  0.25079058654E+03  0.17206200402E+03 0.  0.
        -24    2    3    3    0    0  0.23845015030E+02 -0.12571706754E+03 -0.29510426949E+02  0.15269473329E+03  0.77919512734E+02 0.  0.
          6    2    1    2  501    0 -0.10650584452E+03  0.14697120027E+03  0.13393984500E+03  0.28369520903E+03  0.17204377619E+03 0.  0.
         24    2    5    5    0    0 -0.11599365946E+03  0.94160164206E+02  0.37856107685E+02  0.17354440904E+03  0.79774127776E+02 0.  0.
          5    1    5    5  501    0  0.94878149467E+01  0.52811036061E+02  0.96083737311E+02  0.11015079999E+03  0.47000000000E+01 0. -1.
        -13    1    6    6    0    0 -0.75383446449E+02  0.10292874070E+03  0.24570184877E+02  0.12992568509E+03  0.00000000000E+00 0.  1.
         14    1    6    6    0    0 -0.40610213014E+02 -0.87685764935E+01  0.13285922808E+02  0.43618723957E+02  0.00000000000E+00 0. -1.
         -5    1    3    3    0  503  0.82660829486E+02 -0.21254132728E+02  0.48126453590E+02  0.98095853248E+02  0.47000000000E+01 0.  1.
         13    1    4    4    0    0  0.49777437791E+01 -0.12996232446E+03 -0.21783691659E+02  0.13186930247E+03  0.00000000000E+00 0. -1.
        -14    1    4    4    0    0  0.18867271251E+02  0.42452569195E+01 -0.77267352903E+01  0.20825430824E+02  0.00000000000E+00 0.  1.
</event>
<event>
12    1  0.1050869E+000  0.2121174E+03  0.7818608E-02  0.1141030E+00
         21   -1    0    0  501  502  0.00000000000E+00  0.00000000000E+00  0.55557816682E+03  0.55557816682E+03  0.00000000000E+00 0.  1.
         21   -1    0    0  502  503 -0.00000000000E+00 -0.00000000000E+00 -0.79215765244E+02  0.79215765244E+02  0.00000000000E+00 0.  1.
         -6    2    1    2    0  503  0.25451274894E+02 -0.12034855618E+03  0.21909750233E+03  0.30495492166E+03  0.17280696267E+03 0.  0.
        -24    2    3    3    0    0 -0.42304702744E+02 -0.11127488325E+03  0.12637736818E+03  0.18966260915E+03  0.76347092977E+02 0.  0.
          6    2    1    2  501    0 -0.25451274894E+02  0.12034855618E+03  0.25726489925E+03  0.32983901041E+03  0.16576188354E+03 0.  0.
         24    2    5    5    0    0  0.97101135098E+00  0.52334259616E+02  0.46633669286E+02  0.10687783266E+03  0.80674372702E+02 0.  0.
          5    1    5    5  501    0 -0.26422286245E+02  0.68014296561E+02  0.21063122997E+03  0.22296117775E+03  0.47000000000E+01 0. -1.
        -11    1    6    6    0    0 -0.23442317867E+01  0.34118397253E+02 -0.18695657714E+02  0.38975480384E+02  0.00000000000E+00 0.  1.
         12    1    6    6    0    0  0.33152431377E+01  0.18215862362E+02  0.65329326999E+02  0.67902352278E+02  0.00000000000E+00 0. -1.
         -5    1    3    3    0  503  0.67755977639E+02 -0.90736729316E+01  0.92720134150E+02  0.11529231251E+03  0.47000000000E+01 0.  1.
         11    1    4    4    0    0  0.52683342231E+00 -0.43115916216E+02  0.41642462279E+01  0.43319749898E+02  0.00000000000E+00 0. -1.
        -12    1    4    4    0    0 -0.42831536166E+02 -0.68158967030E+02  0.12221312195E+03  0.14634285925E+03  0.00000000000E+00 0.  1.
</event>
<event>
12    1  0.1050869E+000  0.2183494E+03  0.7818608E-02  0.1135210E+00
         21   -1    0    0  503  502  0.00000000000E+00  0.00000000000E+00  0.17666361237E+03  0.17666361237E+03  0.00000000000E+00 0. -1.
         21   -1    0    0  501  503 -0.00000000000E+00 -0.00000000000E+00 -0.46350708459E+03  0.46350708459E+03  0.00000000000E+00 0. -1.
          6    2    1    2  501    0 -0.97224874216E+02  0.91907615217E+02  0.63871725149E+02  0.22703923344E+03  0.17195211643E+03 0.  0.
         24    2    3    3    0    0  0.11151635767E+02  0.27572090113E+02  0.36771083517E+02  0.98038991253E+02  0.85877541241E+02 0.  0.
         -6    2    1    2    0  502  0.97224874216E+02 -0.91907615217E+02 -0.35071519736E+03  0.41313146352E+03  0.17255946972E+03 0.  0.
        -24    2    5    5    0    0  0.21456546688E+02  0.19931233830E+02 -0.13273492401E+03  0.15664314569E+03  0.77851638148E+02 0.  0.
          5    1    3    3  501    0 -0.10837650998E+03  0.64335525104E+02  0.27100641632E+02  0.12900024218E+03  0.47000000000E+01 0. -1.
        -13    1    4    4    0    0 -0.10882490604E+02  0.11495501395E+02 -0.25524093937E+02  0.30034222570E+02  0.00000000000E+00 0.  1.
         14    1    4    4    0    0  0.22034126370E+02  0.16076588718E+02  0.62295177454E+02  0.68004768684E+02  0.00000000000E+00 0. -1.
         -5    1    5    5    0  502  0.75768327527E+02 -0.11183884905E+03 -0.21798027336E+03  0.25648831783E+03  0.47000000000E+01 0.  1.
         11    1    6    6    0    0  0.40652714623E+02 -0.61677921288E+01 -0.10895182812E+03  0.11645250412E+03  0.00000000000E+00 0. -1.
        -12    1    6    6    0    0 -0.19196167935E+02  0.26099025959E+02 -0.23783095885E+02  0.40190641563E+02  0.00000000000E+00 0.  1.
</event>
<event>
12    1  0.1050869E+000  0.1763920E+03  0.7818608E-02  0.1171576E+00
         21   -1    0    0  501  502  0.00000000000E+00  0.00000000000E+00  0.55113440035E+02  0.55113440035E+02  0.00000000000E+00 0. -1.
         21   -1    0    0  502  503 -0.00000000000E+00 -0.00000000000E+00 -0.69736839801E+03  0.69736839801E+03  0.00000000000E+00 0. -1.
         -6    2    1    2    0  503 -0.24785067148E+02 -0.31825228074E+02 -0.15438168176E+03  0.23370011220E+03  0.17074804269E+03 0.  0.
        -24    2    3    3    0    0 -0.40571362347E+02  0.22496024136E+01 -0.16603762739E+02  0.90818531304E+02  0.79506128930E+02 0.  0.
          6    2    1    2  501    0  0.24785067148E+02  0.31825228074E+02 -0.48787327621E+03  0.51878172584E+03  0.17171779388E+03 0.  0.
         24    2    5    5    0    0  0.25561383850E+02 -0.40856518523E+02 -0.18392021983E+03  0.20622326821E+03  0.79867074808E+02 0.  0.
          5    1    5    5  501    0 -0.77631670205E+00  0.72681746596E+02 -0.30395305638E+03  0.31255845763E+03  0.47000000000E+01 0. -1.
        -13    1    6    6    0    0  0.86572832068E+00  0.56602632631E+01  0.64951715296E+01  0.86588289585E+01  0.00000000000E+00 0.  1.
         14    1    6    6    0    0  0.24695655529E+02 -0.46516781786E+02 -0.19041539136E+03  0.19756443925E+03  0.00000000000E+00 0. -1.
         -5    1    3    3    0  503  0.15786295199E+02 -0.34074830487E+02 -0.13777791903E+03  0.14288158090E+03  0.47000000000E+01 0.  1.
         13    1    4    4    0    0 -0.11388821707E+02  0.17575808468E+02  0.28243214697E+02  0.35160965283E+02  0.00000000000E+00 0. -1.
        -14    1    4    4    0    0 -0.29182540640E+02 -0.15326206055E+02 -0.44846977436E+02  0.55657566021E+02  0.00000000000E+00 0.  1.
</event>
<event>
12    1  0.1050869E+000  0.2438603E+03  0.7818608E-02  0.1117453E+00
         21   -1    0    0  503  502  0.00000000000E+00  0.00000000000E+00  0.10614817909E+03  0.10614817909E+03  0.00000000000E+00 0. -1.
         21   -1    0    0  501  503 -0.00000000000E+00 -0.00000000000E+00 -0.56077506965E+03  0.56077506965E+03  0.00000000000E+00 0. -1.
          6    2    1    2  501    0  0.13096262421E+03  0.10837989250E+03 -0.25396520586E+03  0.35208827772E+03  0.17484398612E+03 0.  0.
         24    2    3    3    0    0  0.15380313481E+03  0.48108099645E+02 -0.18807532760E+03  0.25979556948E+03  0.78432235315E+02 0.  0.
         -6    2    1    2    0  502 -0.13096262421E+03 -0.10837989250E+03 -0.20066168471E+03  0.31483497101E+03  0.17308534666E+03 0.  0.
        -24    2    5    5    0    0 -0.89543105608E+02 -0.15551884737E+01 -0.93188866594E+02  0.15767393722E+03  0.90313449982E+02 0.  0.
          5    1    3    3  501    0 -0.22840510605E+02  0.60271792853E+02 -0.65889878255E+02  0.92292708244E+02  0.47000000000E+01 0. -1.
        -13    1    4    4    0    0  0.75532579825E+02  0.62239322679E+02 -0.85209772608E+02  0.12976752001E+03  0.00000000000E+00 0.  1.
         14    1    4    4    0    0  0.78270554989E+02 -0.14131223034E+02 -0.10286555499E+03  0.13002804946E+03  0.00000000000E+00 0. -1.
         -5    1    5    5    0  502 -0.41419518601E+02 -0.10682470402E+03 -0.10747281811E+03  0.15716103380E+03  0.47000000000E+01 0.  1.
         11    1    6    6    0    0 -0.98072724732E+02 -0.25679744201E+02 -0.70577747176E+02  0.12352702941E+03  0.00000000000E+00 0. -1.
        -12    1    6    6    0    0  0.85296191239E+01  0.24124555728E+02 -0.22611119418E+02  0.34146907807E+02  0.00000000000E+00 0.  1.
</event>
<event>
12    1  0.1050869E+000  0.2262444E+03  0.7818608E-02  0.1130183E+00
         21   -1    0    0  503  502  0.00000000000E+00  0.00000000000E+00  0.49806684041E+03  0.49806684041E+03  0.00000000000E+00 0.  1.
         21   -1    0    0  501  503 -0.00000000000E+00 -0.00000000000E+00 -0.10063538470E+03  0.10063538470E+03  0.00000000000E+00 0.  1.
          6    2    1    2  501    0 -0.93862058688E+02  0.10591495686E+03  0.20185776601E+03  0.29964437204E+03  0.17032946853E+03 0.  0.
         24    2    3    3    0    0 -0.96968087960E+01  0.64110873108E+01  0.12010990350E+03  0.14573007001E+03  0.81705166578E+02 0.  0.
         -6    2    1    2    0  502  0.93862058688E+02 -0.10591495686E+03  0.19557368970E+03  0.29905785307E+03  0.17651761168E+03 0.  0.
        -24    2    5    5    0    0  0.37505370188E+02 -0.12984791258E+03  0.10163630233E+03  0.18682957921E+03  0.79424306862E+02 0.  0.
          5    1    3    3  501    0 -0.84165249892E+02  0.99503869546E+02  0.81747862516E+02  0.15391430203E+03  0.47000000000E+01 0. -1.
        -11    1    4    4    0    0  0.21303310104E+02  0.34572589069E+02  0.61316612120E+02  0.73544692930E+02  0.00000000000E+00 0.  1.
         12    1    4    4    0    0 -0.31000118900E+02 -0.28161501759E+02  0.58793291375E+02  0.72185377078E+02  0.00000000000E+00 0. -1.
         -5    1    5    5    0  502  0.56356688500E+02  0.23932955727E+02  0.93937387373E+02  0.11222827387E+03  0.47000000000E+01 0.  1.
         13    1    6    6    0    0  0.58996084293E+02 -0.11214439674E+03  0.94536456963E+02  0.15809505172E+03  0.00000000000E+00 0. -1.
        -14    1    6    6    0    0 -0.21490714105E+02 -0.17703515843E+02  0.70998453681E+01  0.28734527492E+02  0.00000000000E+00 0.  1.
</event>
<event>
12    1  0.1050869E+000  0.2274641E+03  0.7818608E-02  0.1128771E+00
         21   -1    0    0  503  502  0.00000000000E+00  0.00000000000E+00  0.46867725658E+03  0.46867725658E+03  0.00000000000E+00 0.  1.
         21   -1    0    0  501  503 -0.00000000000E+00 -0.00000000000E+00 -0.12186675031E+03  0.12186675031E+03  0.00000000000E+00 0.  1.
          6    2    1    2  501    0  0.14564321772E+03 -0.12740114658E+02  0.26812184567E+03  0.35160952941E+03  0.17425750960E+03 0.  0.
         24    2    3    3    0    0  0.33787577859E+02 -0.32475958929E+02  0.19950296631E+03  0.21882463447E+03  0.76723521544E+02 0.  0.
         -6    2    1    2    0  502 -0.14564321772E+03  0.12740114658E+02  0.78688660601E+02  0.23893447749E+03  0.17182410144E+03 0.  0.
        -24    2    5    5    0    0 -0.15727085905E+03 -0.26236901826E+02  0.38594480337E+02  0.18162790589E+03  0.77952961226E+02 0.  0.
          5    1    3    3  501    0  0.11185563986E+03  0.19735844271E+02  0.68618879363E+02  0.13278489494E+03  0.47000000000E+01 0. -1.
        -11    1    4    4    0    0 -0.15151382014E+02  0.12286762467E+02  0.22361250124E+02  0.29674137157E+02  0.00000000000E+00 0.  1.
         12    1    4    4    0    0  0.48938959873E+02 -0.44762721396E+02  0.17714171619E+03  0.18915049731E+03  0.00000000000E+00 0. -1.
         -5    1    5    5    0  502  0.11627641323E+02  0.38977016484E+02  0.40094180264E+02  0.57306571593E+02  0.47000000000E+01 0.  1.
         13    1    6    6    0    0 -0.11854480842E+03 -0.53546180791E+02  0.27203717531E+02  0.13289133654E+03  0.00000000000E+00 0. -1.
        -14    1    6    6    0    0 -0.38726050630E+02  0.27309278965E+02  0.11390762805E+02  0.48736569353E+02  0.00000000000E+00 0.  1.
</event>
<event>
12    1  0.1050869E+000  0.1802929E+03  0.7818608E-02  0.1168125E+00
         21   -1    0    0  501  502  0.00000000000E+00  0.00000000000E+00  0.40532357255E+02  0.40532357255E+02  0.00000000000E+00 0.  1.
         21   -1    0    0  502  503 -0.00000000000E+00 -0.00000000000E+00 -0.19106389684E+04  0.19106389684E+04  0.00000000000E+00 0.  1.
         -6    2    1    2    0  503 -0.36527665741E+02  0.34651823789E+02 -0.16791959297E+04  0.16885834220E+04  0.17052854159E+03 0.  0.
        -24    2    3    3    0    0  0.30345204812E+02  0.48173391930E+02 -0.12572355094E+04  0.12611170492E+04  0.80830553763E+02 0.  0.
          6    2    1    2  501    0  0.36527665741E+02 -0.34651823789E+02 -0.19091068142E+03  0.26258790363E+03  0.17311989947E+03 0.  0.
         24    2    5    5    0    0 -0.39159117401E+02 -0.27096692825E+01 -0.66981679297E+02  0.11382877636E+03  0.83244616542E+02 0.  0.
          5    1    5    5  501    0  0.75686783141E+02 -0.31942154507E+02 -0.12392900213E+03  0.14875912727E+03  0.47000000000E+01 0. -1.
        -11    1    6    6    0    0  0.38609022117E+01  0.26806061254E+02  0.22092574284E+01  0.27172638890E+02  0.00000000000E+00 0.  1.
         12    1    6    6    0    0 -0.43020019612E+02 -0.29515730537E+02 -0.69190936725E+02  0.86656137471E+02  0.00000000000E+00 0. -1.
         -5    1    3    3    0  503 -0.66872870553E+02 -0.13521568141E+02 -0.42196042030E+03  0.42746637285E+03  0.47000000000E+01 0.  1.
         13    1    4    4    0    0  0.31398852277E+02  0.65708054955E+02 -0.11616731506E+04  0.11639535838E+04  0.00000000000E+00 0. -1.
        -14    1    4    4    0    0 -0.10536474652E+01 -0.17534663025E+02 -0.95562358815E+02  0.97163465370E+02  0.00000000000E+00 0.  1.
</event>
<event>
12    1  0.1050869E+000  0.2439389E+03  0.7818608E-02  0.1117407E+00
         21   -1    0    0  501  502  0.00000000000E+00  0.00000000000E+00  0.62647581738E+02  0.62647581738E+02  0.00000000000E+00 0.  1.
         21   -1    0    0  502  503 -0.00000000000E+00 -0.00000000000E+00 -0.94603387017E+03  0.94603387017E+03  0.00000000000E+00 0.  1.
         -6    2    1    2    0  503 -0.16255135831E+03  0.54403305390E+02 -0.42504446472E+03  0.49007039567E+03  0.17356132055E+03 0.  0.
        -24    2    3    3    0    0 -0.11960428147E+03  0.98924013528E+02 -0.36711194257E+03  0.40518923177E+03  0.72910839812E+02 0.  0.
          6    2    1    2  501    0  0.16255135831E+03 -0.54403305390E+02 -0.45834182371E+03  0.51861105624E+03  0.17174846888E+03 0.  0.
         24    2    5    5    0    0  0.23388659851E+02 -0.37705598720E+02 -0.26115902261E+03  0.27664366773E+03  0.79742975996E+02 0.  0.
          5    1    5    5  501    0  0.13916269846E+03 -0.16697706670E+02 -0.19718280110E+03  0.24196738851E+03  0.47000000000E+01 0. -1.
        -13    1    6    6    0    0  0.38008840622E+02 -0.30592269138E+02 -0.25439896075E+03  0.25903549974E+03  0.00000000000E+00 0.  1.
         14    1    6    6    0    0 -0.14620180771E+02 -0.71133295825E+01 -0.67600618590E+01  0.17608167988E+02  0.00000000000E+00 0. -1.
         -5    1    3    3    0  503 -0.42947076848E+02 -0.44520708138E+02 -0.57932522150E+02  0.84881163903E+02  0.47000000000E+01 0.  1.
         11    1    4    4    0    0 -0.25422920965E+02  0.37075824735E+02 -0.43630081022E+02  0.62646034673E+02  0.00000000000E+00 0. -1.
        -12    1    4    4    0    0 -0.94181360501E+02  0.61848188793E+02 -0.32348186155E+03  0.34254319709E+03  0.00000000000E+00 0.  1.
</event>
<event>
12    1  0.1050869E+000  0.2105265E+03  0.7818608E-02  0.1141177E+00
         21   -1    0    0  501  502  0.00000000000E+00  0.00000000000E+00  0.74608883366E+02  0.74608883366E+02  0.00000000000E+00 0. -1.
         21   -1    0    0  502  503 -0.00000000000E+00 -0.00000000000E+00 -0.19290570831E+04  0.19290570831E+04  0.00000000000E+00 0. -1.
         -6    2    1    2    0  503  0.51240459517E+01  0.12190843898E+03 -0.93775157895E+02  0.23046736337E+03  0.17156194799E+03 0.  0.
        -24    2    3    3    0    0 -0.35713943297E+02  0.66604040912E+02 -0.11413483906E+03  0.15861387056E+03  0.80124992571E+02 0.  0.
          6    2    1    2  501    0 -0.51240459517E+01 -0.12190843898E+03 -0.17606730418E+04  0.17731986031E+04  0.17139370586E+03 0.  0.
         24    2    5    5    0    0  0.62731134043E+01 -0.96281201609E+02 -0.17134899869E+04  0.17181079396E+04  0.80855024278E+02 0.  0.
          5    1    5    5  501    0 -0.11397159356E+02 -0.25627237374E+02 -0.47183054872E+02  0.55090663491E+02  0.47000000000E+01 0. -1.
        -11    1    6    6    0    0  0.36299939693E+02 -0.33151168514E+02 -0.44812981274E+03  0.45081816141E+03  0.00000000000E+00 0.  1.
         12    1    6    6    0    0 -0.30026826289E+02 -0.63130033094E+02 -0.12653601742E+04  0.12672897782E+04  0.00000000000E+00 0. -1.
         -5    1    3    3    0  503  0.40837989249E+02  0.55304398071E+02  0.20359681169E+02  0.71853492812E+02  0.47000000000E+01 0.  1.
         11    1    4    4    0    0 -0.20620249872E+01 -0.32717909659E+01  0.10851353531E+02  0.11519914784E+02  0.00000000000E+00 0. -1.
        -12    1    4    4    0    0 -0.33651918310E+02  0.69875831877E+02 -0.12498619260E+03  0.14709395578E+03  0.00000000000E+00 0.  1.
</event>
<event>
12    1  0.1050869E+000  0.2022405E+03  0.7818608E-02  0.1148155E+00
         21   -1    0    0  501  502  0.00000000000E+00  0.00000000000E+00  0.21240141296E+04  0.21240141296E+04  0.00000000000E+00 0.  1.
         21   -1    0    0  502  503 -0.00000000000E+00 -0.00000000000E+00 -0.31853572285E+02  0.31853572285E+02  0.00000000000E+00 0.  1.
         -6    2    1    2    0  503 -0.81524314406E+02 -0.67723354516E+02  0.17253393586E+04  0.17369894355E+04  0.17059815393E+03 0.  0.
        -24    2    3    3    0    0  0.64185173385E+01 -0.79168062091E+02  0.10086669998E+04  0.10148355164E+04  0.78569901802E+02 0.  0.
          6    2    1    2  501    0  0.81524314406E+02  0.67723354516E+02  0.36682119875E+03  0.41887826642E+03  0.17224559106E+03 0.  0.
         24    2    5    5    0    0  0.12889798795E+01 -0.22883747290E+02  0.15869151005E+03  0.17807250834E+03  0.77469319775E+02 0.  0.
          5    1    5    5  501    0  0.80235334526E+02  0.90607101806E+02  0.20812968870E+03  0.24080575808E+03  0.47000000000E+01 0. -1.
        -11    1    6    6    0    0 -0.22085046102E+02  0.15706513507E+02  0.10243376335E+03  0.10595810352E+03  0.00000000000E+00 0.  1.
         12    1    6    6    0    0  0.23374025982E+02 -0.38590260797E+02  0.56257746702E+02  0.72114404823E+02  0.00000000000E+00 0. -1.
         -5    1    3    3    0  503 -0.87942831744E+02  0.11444707576E+02  0.71667235884E+03  0.72215391913E+03  0.47000000000E+01 0.  1.
         13    1    4    4    0    0 -0.10132323097E+02 -0.69743601283E+02  0.42085870922E+03  0.42671874463E+03  0.00000000000E+00 0. -1.
        -14    1    4    4    0    0  0.16550840436E+02 -0.94244608087E+01  0.58780829053E+03  0.58811677173E+03  0.00000000000E+00 0.  1.
</event>
<event>
12    1  0.1050869E+000  0.2100467E+03  0.7818608E-02  0.1141579E+00
         21   -1    0    0  503  502  0.00000000000E+00  0.00000000000E+00  0.26489976912E+03  0.26489976912E+03  0.00000000000E+00 0.  1.
         21   -1    0    0  501  503 -0.00000000000E+00 -0.00000000000E+00 -0.19403734460E+03  0.19403734460E+03  0.00000000000E+00 0.  1.
          6    2    1    2  501    0  0.12018775695E+03 -0.79214471509E+01 -0.51267475657E+02  0.21596526690E+03  0.17176960208E+03 0.  0.
         24    2    3    3    0    0  0.26155827220E+02 -0.75611666890E+01  0.40188710720E+02  0.84708047522E+02  0.69419178232E+02 0.  0.
         -6    2    1    2    0  502 -0.12018775695E+03  0.79214471509E+01  0.12212990018E+03  0.24297184682E+03  0.17208067754E+03 0.  0.
        -24    2    5    5    0    0 -0.76081742515E+02 -0.69258565329E+02  0.64176115858E+02  0.13675119933E+03  0.63222909265E+02 0.  0.
          5    1    3    3  501    0  0.94031929735E+02 -0.36028046184E+00 -0.91456186377E+02  0.13125721938E+03  0.47000000000E+01 0. -1.
        -13    1    4    4    0    0 -0.60212102309E+01  0.26149755578E+02  0.77619168687E+01  0.27934065993E+02  0.00000000000E+00 0.  1.
         14    1    4    4    0    0  0.32177037451E+02 -0.33710922267E+02  0.32426793851E+02  0.56773981529E+02  0.00000000000E+00 0. -1.
         -5    1    5    5    0  502 -0.44106014440E+02  0.77180012480E+02  0.57953784319E+02  0.10622064749E+03  0.47000000000E+01 0.  1.
         11    1    6    6    0    0 -0.23879821567E+02 -0.31719199595E+02 -0.75601501930E+01  0.40416696698E+02  0.00000000000E+00 0. -1.
        -12    1    6    6    0    0 -0.52201920948E+02 -0.37539365734E+02  0.71736266051E+02  0.96334502632E+02  0.00000000000E+00 0.  1.
</event>
<event>
12    1  0.1050869E+000  0.1743038E+03  0.7818608E-02  0.1173456E+00
         21   -1    0    0  503  502  0.00000000000E+00  0.00000000000E+00  0.18220263911E+03  0.18220263911E+03  0.00000000000E+00 0.  1.
         21   -1    0    0  501  503 -0.00000000000E+00 -0.00000000000E+00 -0.17226112373E+03  0.17226112373E+03  0.00000000000E+00 0.  1.
          6    2    1    2  501    0 -0.10650345096E+02  0.26835652727E+02  0.36933065471E+02  0.17817367649E+03  0.17189597308E+03 0.  0.
         24    2    3    3    0    0  0.51447796588E+02 -0.18223080337E+02  0.31419099015E+02  0.10110901240E+03  0.79100671136E+02 0.  0.
         -6    2    1    2    0  502  0.10650345096E+02 -0.26835652727E+02 -0.26991550094E+02  0.17629008634E+03  0.17180241168E+03 0.  0.
        -24    2    5    5    0    0 -0.36162722495E+02 -0.48943547536E+02 -0.57322406085E+02  0.11610476309E+03  0.80568259439E+02 0.  0.
          5    1    3    3  501    0 -0.62098141684E+02  0.45058733064E+02  0.55139664562E+01  0.77064664095E+02  0.47000000000E+01 0. -1.
        -13    1    4    4    0    0  0.25896984848E+02 -0.20514829832E+02 -0.23466652564E+02  0.40524015717E+02  0.00000000000E+00 0.  1.
         14    1    4    4    0    0  0.25550811740E+02  0.22917494945E+01  0.54885751579E+02  0.60584996680E+02  0.00000000000E+00 0. -1.
         -5    1    5    5    0  502  0.46813067591E+02  0.22107894809E+02  0.30330855991E+02  0.60185323255E+02  0.47000000000E+01 0.  1.
         11    1    6    6    0    0 -0.41041935319E+02  0.91976444527E+01 -0.30101120237E+02  0.51721509624E+02  0.00000000000E+00 0. -1.
        -12    1    6    6    0    0  0.48792128241E+01 -0.58141191988E+02 -0.27221285848E+02  0.64383253465E+02  0.00000000000E+00 0.  1.
</event>
<event>
12    1  0.1050869E+000  0.2256892E+03  0.7818608E-02  0.1129761E+00
         21   -1    0    0  503  502  0.00000000000E+00  0.00000000000E+00  0.40553337625E+03  0.40553337625E+03  0.00000000000E+00 0. -1.
         21   -1    0    0  501  503 -0.00000000000E+00 -0.00000000000E+00 -0.12550741844E+03  0.12550741844E+03  0.00000000000E+00 0. -1.
          6    2    1    2  501    0 -0.12471787790E+03 -0.75335909938E+02  0.13434848475E+03  0.26265017844E+03  0.17235298804E+03 0.  0.
         24    2    3    3    0    0 -0.13066242731E+03 -0.75472679192E+02  0.16089201151E+03  0.23504573700E+03  0.81187830985E+02 0.  0.
         -6    2    1    2    0  502  0.12471787790E+03  0.75335909938E+02  0.14567747306E+03  0.26839061625E+03  0.17199287293E+03 0.  0.
        -24    2    5    5    0    0  0.75512051901E+02 -0.50795014946E+01  0.19165947504E+02  0.11054541421E+03  0.78262914214E+02 0.  0.
          5    1    3    3  501    0  0.59445494124E+01  0.13676925411E+00 -0.26543526768E+02  0.27604441433E+02  0.47000000000E+01 0. -1.
        -13    1    4    4    0    0  0.11361851396E+02 -0.32033233336E+01  0.84413639816E+01  0.14512393786E+02  0.00000000000E+00 0.  1.
         14    1    4    4    0    0 -0.14202427870E+03 -0.72269355858E+02  0.15245064753E+03  0.22053334322E+03  0.00000000000E+00 0. -1.
         -5    1    5    5    0  502  0.49205825995E+02  0.80415411432E+02  0.12651152556E+03  0.15784520204E+03  0.47000000000E+01 0.  1.
         11    1    6    6    0    0  0.33345537456E+02  0.16006997903E+02 -0.26035052409E+02  0.45232430888E+02  0.00000000000E+00 0. -1.
        -12    1    6    6    0    0  0.42166514445E+02 -0.21086499398E+02  0.45200999913E+02  0.65312983322E+02  0.00000000000E+00 0.  1.
</event>
<event>
12    1  0.1050869E+000  0.1748671E+03  0.7818608E-02  0.1173206E+00
         21   -1    0    0  501  502  0.00000000000E+00  0.00000000000E+00  0.42481750426E+03  0.42481750426E+03  0.00000000000E+00 0.  1.
         21   -1    0    0  502  503 -0.00000000000E+00 -0.00000000000E+00 -0.80777545785E+02  0.80777545785E+02  0.00000000000E+00 0.  1.
         -6    2    1    2    0  503  0.25840066604E+02  0.46021855256E+01  0.86592633913E+02  0.19513275051E+03  0.17288613860E+03 0.  0.
        -24    2    3    3    0    0  0.24856691591E+02  0.54785813380E+02  0.10429088787E+03  0.14170352888E+03  0.74725901410E+02 0.  0.
          6    2    1    2  501    0 -0.25840066604E+02 -0.46021855256E+01  0.25744732456E+03  0.31046229953E+03  0.17151916905E+03 0.  0.
         24    2    5    5    0    0 -0.24853861239E+02  0.83714031915E+01  0.27527232173E+03  0.28789889710E+03  0.80144426075E+02 0.  0.
          5    1    5    5  501    0 -0.98620536506E+00 -0.12973588717E+02 -0.17824997168E+02  0.22563402431E+02  0.47000000000E+01 0. -1.
        -11    1    6    6    0    0  0.61973585548E+01 -0.20740137912E+02  0.20203557875E+03  0.20319186906E+03  0.00000000000E+00 0.  1.
         12    1    6    6    0    0 -0.31051219794E+02  0.29111541103E+02  0.73236742984E+02  0.84707028038E+02  0.00000000000E+00 0. -1.
         -5    1    3    3    0  503  0.98337501316E+00 -0.50183627854E+02 -0.17698253953E+02  0.53429221630E+02  0.47000000000E+01 0.  1.
         13    1    4    4    0    0  0.32522180977E+02 -0.73129554077E+01  0.34585624518E+02  0.48034747794E+02  0.00000000000E+00 0. -1.
        -14    1    4    4    0    0 -0.76654893860E+01  0.62098768788E+02  0.69705263347E+02  0.93668781089E+02  0.00000000000E+00 0.  1.
</event>
<event>
12    1  0.1050869E+000  0.2333397E+03  0.7818608E-02  0.1124410E+00
         21   -1    0    0  503  502  0.00000000000E+00  0.00000000000E+00  0.16120343305E+04  0.16120343305E+04  0.00000000000E+00 0.  1.
         21   -1    0    0  501  503 -0.00000000000E+00 -0.00000000000E+00 -0.35316465677E+02  0.35316465677E+02  0.00000000000E+00 0.  1.
          6    2    1    2  501    0 -0.12412477145E+03 -0.95501527358E+02  0.61083314630E+03  0.65368047625E+03  0.17220200868E+03 0.  0.
         24    2    3    3    0    0 -0.29125112673E+02 -0.46174074427E+02  0.45021385045E+03  0.46060333887E+03  0.80514640293E+02 0.  0.
         -6    2    1    2    0  502  0.12412477145E+03  0.95501527358E+02  0.96588471848E+03  0.99367031989E+03  0.17297373968E+03 0.  0.
        -24    2    5    5    0    0  0.74907645458E+02  0.13348435022E+03  0.69878211947E+03  0.71938778541E+03  0.76112470715E+02 0.  0.
          5    1    3    3  501    0 -0.94999658773E+02 -0.49327452931E+02  0.16061929586E+03  0.19307713739E+03  0.47000000000E+01 0. -1.
        -11    1    4    4    0    0 -0.33911213798E+01 -0.19830315963E+02  0.18529938146E+02  0.27351412086E+02  0.00000000000E+00 0.  1.
         12    1    4    4    0    0 -0.25733991293E+02 -0.26343758464E+02  0.43168391230E+03  0.43325192678E+03  0.00000000000E+00 0. -1.
         -5    1    5    5    0  502  0.49217125988E+02 -0.37982822866E+02  0.26710259901E+03  0.27428253448E+03  0.47000000000E+01 0.  1.
         11    1    6    6    0    0  0.74089706234E+02  0.54910914880E+02  0.39216198354E+03  0.40285917450E+03  0.00000000000E+00 0. -1.
        -12    1    6    6    0    0  0.81793922431E+00  0.78573435344E+02  0.30662013593E+03  0.31652861091E+03  0.00000000000E+00 0.  1.
</event>
<event>
12    1  0.1050869E+000  0.2915549E+03  0.7818608E-02  0.1090048E+00
         21   -1    0    0  503  502  0.00000000000E+00  0.00000000000E+00  0.41058900973E+02  0.41058900973E+02  0.00000000000E+00 0. -1.
         21   -1    0    0  501  503 -0.00000000000E+00 -0.00000000000E+00 -0.21297388995E+04  0.21297388995E+04  0.00000000000E+00 0. -1.
          6    2    1    2  501    0 -0.13675823293E+03  0.18570237800E+03 -0.83176034567E+03  0.88137934080E+03  0.17837063182E+03 0.  0.
         24    2    3    3    0    0 -0.15391670972E+03  0.10956276492E+03 -0.49922789577E+03  0.53977785626E+03  0.80232719048E+02 0.  0.
         -6    2    1    2    0  502  0.13675823293E+03 -0.18570237800E+03 -0.12569196529E+04  0.12894184597E+04  0.17194406921E+03 0.  0.
        -24    2    5    5    0    0  0.12885628041E+03 -0.17243963183E+03 -0.12509043203E+04  0.12721959304E+04  0.85915650911E+02 0.  0.
          5    1    3    3  501    0  0.17158476784E+02  0.76139613079E+02 -0.33253244990E+03  0.34160148454E+03  0.47000000000E+01 0. -1.
        -11    1    4    4    0    0 -0.11440577667E+03  0.47924515024E+02 -0.38133095026E+03  0.40099717518E+03  0.00000000000E+00 0.  1.
         12    1    4    4    0    0 -0.39510933049E+02  0.61638249894E+02 -0.11789694551E+03  0.13878068108E+03  0.00000000000E+00 0. -1.
         -5    1    5    5    0  502  0.79019525222E+01 -0.13262746168E+02 -0.60153325437E+01  0.17222529291E+02  0.47000000000E+01 0.  1.
         13    1    6    6    0    0  0.45374284085E+02 -0.11886707906E+03 -0.56446646473E+03  0.57862820355E+03  0.00000000000E+00 0. -1.
        -14    1    6    6    0    0  0.83481996327E+02 -0.53572552769E+02 -0.68643785559E+03  0.69356772684E+03  0.00000000000E+00 0.  1.
</event>
<event>
12    1  0.1050869E+000  0.1996804E+03  0.7818608E-02  0.1150355E+00
         21   -1    0    0  503  502  0.00000000000E+00  0.00000000000E+00  0.10231591653E+03  0.10231591653E+03  0.00000000000E+00 0.  1.
         21   -1    0    0  501  503 -0.00000000000E+00 -0.00000000000E+00 -0.40583346076E+03  0.40583346076E+03  0.00000000000E+00 0.  1.
          6    2    1    2  501    0  0.66560984175E+02 -0.72925068513E+02 -0.96931330911E+02  0.22196382542E+03  0.17356216941E+03 0.  0.
         24    2    3    3    0    0  0.13053496531E+02 -0.10926152221E+02 -0.11193143430E+03  0.13857311876E+03  0.79900492392E+02 0.  0.
         -6    2    1    2    0  502 -0.66560984175E+02  0.72925068513E+02 -0.20658621331E+03  0.28618555187E+03  0.17168539931E+03 0.  0.
        -24    2    5    5    0    0 -0.78007284709E+02  0.94558517842E+02 -0.21487172594E+03  0.25992220012E+03  0.79769930063E+02 0.  0.
          5    1    3    3  501    0  0.53507487645E+02 -0.61998916291E+02  0.15000103390E+02  0.83390706659E+02  0.47000000000E+01 0. -1.
        -11    1    4    4    0    0 -0.24623029372E+02 -0.88127404684E+01 -0.70155153762E+01  0.27077212302E+02  0.00000000000E+00 0.  1.
         12    1    4    4    0    0  0.37676525903E+02 -0.21134117530E+01 -0.10491591893E+03  0.11149590646E+03  0.00000000000E+00 0. -1.
         -5    1    5    5    0  502  0.11446300534E+02 -0.21633449329E+02  0.82855126278E+01  0.26263351753E+02  0.47000000000E+01 0.  1.
         11    1    6    6    0    0 -0.62001050311E+02  0.14352095577E+02 -0.10784713565E+03  0.12522426903E+03  0.00000000000E+00 0. -1.
        -12    1    6    6    0    0 -0.16006234399E+02  0.80206422265E+02 -0.10702459029E+03  0.13469793109E+03  0.00000000000E+00 0.  1.
</event>
<event>
12    1  0.1050869E+000  0.2116770E+03  0.7818608E-02  0.1140432E+00
         21   -1    0    0  501  502  0.00000000000E+00  0.00000000000E+00  0.11570992183E+04  0.11570992183E+04  0.00000000000E+00 0. -1.
         21   -1    0    0  502  503 -0.00000000000E+00 -0.00000000000E+00 -0.73730503346E+02  0.73730503346E+02  0.00000000000E+00 0. -1.
         -6    2    1    2    0  503 -0.97757177681E+02 -0.73951482475E+02  0.96615130798E+03  0.98886473484E+03  0.17140544435E+03 0.  0.
        -24    2    3    3    0    0 -0.36392841327E+02 -0.43323782304E+02  0.83670816412E+03  0.84229988474E+03  0.78658470027E+02 0.  0.
          6    2    1    2  501    0  0.97757177681E+02  0.73951482475E+02  0.11721740700E+03  0.24196498683E+03  0.17257417767E+03 0.  0.
         24    2    5    5    0    0  0.84111234108E+01  0.55480878308E+02  0.11499561073E+03  0.15058168961E+03  0.79385010572E+02 0.  0.
          5    1    5    5  501    0  0.89346054270E+02  0.18470604166E+02  0.22217962663E+01  0.91383297219E+02  0.47000000000E+01 0. -1.
        -11    1    6    6    0    0  0.39361737846E+02  0.74280950816E+01  0.47009011485E+02  0.61760587462E+02  0.00000000000E+00 0.  1.
         12    1    6    6    0    0 -0.30950614436E+02  0.48052783227E+02  0.67986599247E+02  0.88821102149E+02  0.00000000000E+00 0. -1.
         -5    1    3    3    0  503 -0.61364336355E+02 -0.30627700171E+02  0.12944314386E+03  0.14656485010E+03  0.47000000000E+01 0.  1.
         11    1    4    4    0    0  0.12591676894E+02 -0.10153060827E+02  0.36688543744E+02  0.40095937615E+02  0.00000000000E+00 0. -1.
        -12    1    4    4    0    0 -0.48984518221E+02 -0.33170721477E+02  0.80001962038E+03  0.80220394713E+03  0.00000000000E+00 0.  1.
</event>
<event>
12    1  0.1050869E+000  0.1745311E+03  0.7818608E-02  0.1173335E+00
         21   -1    0    0  501  502  0.00000000000E+00  0.00000000000E+00  0.20961792597E+03  0.20961792597E+03  0.00000000000E+00 0. -1.
         21   -1    0    0  502  503 -0.00000000000E+00 -0.00000000000E+00 -0.17963798658E+03  0.17963798658E+03  0.00000000000E+00 0. -1.
         -6    2    1    2    0  503 -0.93845837089E+01  0.25281914145E+02  0.10058032167E+03  0.20098607845E+03  0.17190624489E+03 0.  0.
        -24    2    3    3    0    0 -0.56010169781E+02 -0.25196094335E+02  0.76628012678E+02  0.12806298388E+03  0.82196674044E+02 0.  0.
          6    2    1    2  501    0  0.93845837089E+01 -0.25281914145E+02 -0.70600382277E+02  0.18826983410E+03  0.17243512073E+03 0.  0.
         24    2    5    5    0    0 -0.16154469329E+02 -0.79018942479E+02 -0.35046444686E+02  0.11879981234E+03  0.79876041327E+02 0.  0.
          5    1    5    5  501    0  0.25539053038E+02  0.53737028334E+02 -0.35553937591E+02  0.69470021754E+02  0.47000000000E+01 0. -1.
        -13    1    6    6    0    0 -0.18512255545E+01 -0.89454970838E+02 -0.43140891068E+02  0.99331542451E+02  0.00000000000E+00 0.  1.
         14    1    6    6    0    0 -0.14303243775E+02  0.10436028359E+02  0.80944463824E+01  0.19468269893E+02  0.00000000000E+00 0. -1.
         -5    1    3    3    0  503  0.46625586073E+02  0.50478008480E+02  0.23952308991E+02  0.72923094577E+02  0.47000000000E+01 0.  1.
         13    1    4    4    0    0 -0.48068455053E+02 -0.12496645598E+01  0.73917668956E+00  0.48090377570E+02  0.00000000000E+00 0. -1.
        -14    1    4    4    0    0 -0.79417147288E+01 -0.23946429775E+02  0.75888835989E+02  0.79972606307E+02  0.00000000000E+00 0.  1.
</event>
<event>
12    1  0.1050869E+000  0.2527871E+03  0.7818608E-02  0.1111855E+00
         21   -1    0    0  501  502  0.00000000000E+00  0.00000000000E+00  0.22770405878E+03  0.22770405878E+03  0.00000000000E+00 0. -1.
         21   -1    0    0  502  503 -0.00000000000E+00 -0.00000000000E+00 -0.27872850026E+03  0.27872850026E+03  0.00000000000E+00 0. -1.
         -6    2    1    2    0  503  0.13732178890E+03 -0.12419441749E+03 -0.32374193260E+02  0.25295844444E+03  0.16928779985E+03 0.  0.
        -24    2    3    3    0    0  0.71816065542E+02 -0.14489477410E+03 -0.77711465341E+01  0.17983591395E+03  0.78284879740E+02 0.  0.
          6    2    1    2  501    0 -0.13732178890E+03  0.12419441749E+03 -0.18650248220E+02  0.25347411460E+03  0.17210394525E+03 0.  0.
         24    2    5    5    0    0 -0.69215114101E+02  0.32605422468E+02  0.44985002232E+02  0.12271250608E+03  0.84739973617E+02 0.  0.
          5    1    5    5  501    0 -0.68106674797E+02  0.91588995024E+02 -0.63635250452E+02  0.13076160852E+03  0.47000000000E+01 0. -1.
        -11    1    6    6    0    0 -0.29748458801E+02  0.56590074209E+02  0.98577781290E+01  0.64688353586E+02  0.00000000000E+00 0.  1.
         12    1    6    6    0    0 -0.39466655300E+02 -0.23984651740E+02  0.35127224103E+02  0.58024152496E+02  0.00000000000E+00 0. -1.
         -5    1    3    3    0  503  0.65505723356E+02  0.20700356611E+02 -0.24603046726E+02  0.73122530484E+02  0.47000000000E+01 0.  1.
         11    1    4    4    0    0 -0.15884576730E+01 -0.74370362606E+02 -0.20727619179E+02  0.77221164383E+02  0.00000000000E+00 0. -1.
        -12    1    4    4    0    0  0.73404523215E+02 -0.70524411497E+02  0.12956472645E+02  0.10261474957E+03  0.00000000000E+00 0.  1.
</event>
<event>
12    1  0.1050869E+000  0.2384345E+03  0.7818608E-02  0.1120866E+00
         21   -1    0    0  501  502  0.00000000000E+00  0.00000000000E+00  0.82762744508E+02  0.82762744508E+02  0.00000000000E+00 0. -1.
         21   -1    0    0  502  503 -0.00000000000E+00 -0.00000000000E+00 -0.77059728865E+03  0.77059728865E+03  0.00000000000E+00 0. -1.
         -6    2    1    2    0  503  0.42416168554E+02 -0.15940722897E+03 -0.20284669828E+03  0.31293034880E+03  0.17195587862E+03 0.  0.
        -24    2    3    3    0    0  0.91247418075E+02 -0.81509725599E+02 -0.13116980365E+03  0.19625910476E+03  0.79637881302E+02 0.  0.
          6    2    1    2  501    0 -0.42416168554E+02  0.15940722897E+03 -0.48498784586E+03  0.54042968436E+03  0.17216630653E+03 0.  0.
         24    2    5    5    0    0 -0.61099343680E+02  0.17467238990E+03 -0.47002865093E+03  0.51165550003E+03  0.81368571459E+02 0.  0.
          5    1    5    5  501    0  0.18683175126E+02 -0.15265160932E+02 -0.14959194929E+02  0.28774184332E+02  0.47000000000E+01 0. -1.
        -13    1    6    6    0    0 -0.29101721630E+02  0.16599760027E+03 -0.37912166071E+03  0.41489197042E+03  0.00000000000E+00 0.  1.
         14    1    6    6    0    0 -0.31997622049E+02  0.86747896351E+01 -0.90906990216E+02  0.96763529608E+02  0.00000000000E+00 0. -1.
         -5    1    3    3    0  503 -0.48831249521E+02 -0.77897503373E+02 -0.71676894628E+02  0.11667124404E+03  0.47000000000E+01 0.  1.
         11    1    4    4    0    0 -0.13702349709E+01 -0.16365023526E+02  0.67981544226E+01  0.17773757127E+02  0.00000000000E+00 0. -1.
        -12    1    4    4    0    0  0.92617653046E+02 -0.65144702074E+02 -0.13796795808E+03  0.17848534763E+03  0.00000000000E+00 0.  1.
</event>
<event>
12    1  0.1050869E+000  0.2118786E+03  0.7818608E-02  0.1140186E+00
         21   -1    0    0  501  502  0.00000000000E+00  0.00000000000E+00  0.34612953628E+03  0.34612953628E+03  0.00000000000E+00 0.  1.
         21   -1    0    0  502  503 -0.00000000000E+00 -0.00000000000E+00 -0.31795499393E+03  0.31795499393E+03  0.00000000000E+00 0.  1.
         -6    2    1    2    0  503 -0.20065432844E+02 -0.12194741466E+03  0.26979986539E+03  0.34305174728E+03  0.17210095993E+03 0.  0.
        -24    2    3    3    0    0 -0.27659507510E+02 -0.10993030540E+03  0.28710442049E+03  0.32016903520E+03  0.85026715986E+02 0.  0.
          6    2    1    2  501    0  0.20065432844E+02  0.12194741466E+03 -0.24162532304E+03  0.32103278294E+03  0.17148019550E+03 0.  0.
         24    2    5    5    0    0 -0.46826543755E+02  0.47418270334E+02 -0.16242911607E+03  0.19327027245E+03  0.80801998145E+02 0.  0.
          5    1    5    5  501    0  0.66891976599E+02  0.74529144324E+02 -0.79196206971E+02  0.12776251049E+03  0.47000000000E+01 0. -1.
        -11    1    6    6    0    0 -0.51507128217E+02  0.98578099296E+01 -0.42473346152E+02  0.67484411587E+02  0.00000000000E+00 0.  1.
         12    1    6    6    0    0  0.46805844624E+01  0.37560460404E+02 -0.11995576992E+03  0.12578586086E+03  0.00000000000E+00 0. -1.
         -5    1    3    3    0  503  0.75940746663E+01 -0.12017109256E+02 -0.17304555103E+02  0.22882712082E+02  0.47000000000E+01 0.  1.
         11    1    4    4    0    0 -0.36663628383E+02 -0.13799158671E+02  0.12993256542E+03  0.13570965324E+03  0.00000000000E+00 0. -1.
        -12    1    4    4    0    0  0.90041208722E+01 -0.96131146731E+02  0.15717185507E+03  0.18445938195E+03  0.00000000000E+00 0.  1.
</event>
<event>
12    1  0.1050869E+000  0.2575307E+03  0.7818608E-02  0.1109719E+00
         21   -1    0    0  501  502  0.00000000000E+00  0.00000000000E+00  0.34536908430E+03  0.34536908430E+03  0.00000000000E+00 0.  1.
         21   -1    0    0  502  503 -0.00000000000E+00 -0.00000000000E+00 -0.18765037601E+03  0.18765037601E+03  0.00000000000E+00 0. -1.
         -6    2    1    2    0  503 -0.14558594876E+03  0.10853627365E+03  0.60234235837E+02  0.25765559273E+03  0.17257708459E+03 0.  0.
        -24    2    3    3    0    0 -0.15890747376E+03  0.68551089884E+02  0.91135242057E+01  0.19123500024E+03  0.80851294671E+02 0.  0.
          6    2    1    2  501    0  0.14558594876E+03 -0.10853627365E+03  0.97484472452E+02  0.27536386758E+03  0.18261064050E+03 0.  0.
         24    2    5    5    0    0  0.29808224208E+02 -0.33142735182E+02  0.10297223406E+03  0.13701332485E+03  0.78628233319E+02 0.  0.
          5    1    5    5  501    0  0.11577772455E+03 -0.75393538471E+02 -0.54877616060E+01  0.13835054273E+03  0.47000000000E+01 0. -1.
        -13    1    6    6    0    0 -0.63213550877E+01 -0.44786573560E+02  0.81995921793E+02  0.93643621737E+02  0.00000000000E+00 0.  1.
         14    1    6    6    0    0  0.36129579296E+02  0.11643838377E+02  0.20976312266E+02  0.43369703117E+02  0.00000000000E+00 0. -1.
         -5    1    3    3    0  503  0.13321525006E+02  0.39985183769E+02  0.51120711631E+02  0.66420592494E+02  0.47000000000E+01 0.  1.
         11    1    4    4    0    0 -0.14314560562E+03  0.63925960778E+02  0.34949129495E+02  0.16061953344E+03  0.00000000000E+00 0. -1.
        -12    1    4    4    0    0 -0.15761868146E+02  0.46251291062E+01 -0.25835605290E+02  0.30615466800E+02  0.00000000000E+00 0.  1.
</event>
<event>
12    1  0.1050869E+000  0.1762097E+03  0.7818608E-02  0.1171715E+00
         21   -1    0    0  503  502  0.00000000000E+00  0.00000000000E+00  0.21653621752E+03  0.21653621752E+03  0.00000000000E+00 0.  1.
         21   -1    0    0  501  503 -0.00000000000E+00 -0.00000000000E+00 -0.56985456155E+03  0.56985456155E+03  0.00000000000E+00 0.  1.
          6    2    1    2  501    0 -0.36060531602E+02 -0.90573661582E+01  0.16383410699E+03  0.24004243515E+03  0.17145366208E+03 0.  0.
         24    2    3    3    0    0 -0.87398129780E+02 -0.19745251690E+02  0.11897689255E+03  0.17087568323E+03  0.83753746823E+02 0.  0.
         -6    2    1    2    0  502  0.36060531602E+02  0.90573661582E+01 -0.51715245102E+03  0.54634834392E+03  0.17224243813E+03 0.  0.
        -24    2    5    5    0    0 -0.15389914902E+02  0.61370472850E+02 -0.33357150686E+03  0.34859126406E+03  0.79010978816E+02 0.  0.
          5    1    3    3  501    0  0.51337598177E+02  0.10687885532E+02  0.44857214441E+02  0.69166751920E+02  0.47000000000E+01 0. -1.
        -11    1    4    4    0    0  0.14747434092E+02 -0.10001701577E+02  0.30804339601E+02  0.35586910304E+02  0.00000000000E+00 0.  1.
         12    1    4    4    0    0 -0.10214556387E+03 -0.97435501127E+01  0.88172552946E+02  0.13528877293E+03  0.00000000000E+00 0. -1.
         -5    1    5    5    0  502  0.51450446505E+02 -0.52313106692E+02 -0.18358094416E+03  0.19775707986E+03  0.47000000000E+01 0.  1.
         13    1    6    6    0    0 -0.99865219586E+01 -0.48998898862E+01 -0.31711626438E+01  0.11567014059E+02  0.00000000000E+00 0. -1.
        -14    1    6    6    0    0 -0.54033929439E+01  0.66270362736E+02 -0.33040034421E+03  0.33702425000E+03  0.00000000000E+00 0.  1.
</event>
<event>
12    1  0.1050869E+000  0.1886099E+03  0.7818608E-02  0.1160225E+00
         21   -1    0    0  501  502  0.00000000000E+00  0.00000000000E+00  0.20667281257E+02  0.20667281257E+02  0.00000000000E+00 0.  1.
         21   -1    0    0  502  503 -0.00000000000E+00 -0.00000000000E+00 -0.22096566425E+04  0.22096566425E+04  0.00000000000E+00 0.  1.
         -6    2    1    2    0  503 -0.45690359870E+02 -0.62457553209E+02 -0.16244630414E+04  0.16351233896E+04  0.16958706102E+03 0.  0.
        -24    2    3    3    0    0 -0.11315873339E+02  0.30515543926E+02 -0.62581858490E+03  0.63156051529E+03  0.78489081112E+02 0.  0.
          6    2    1    2  501    0  0.45690359870E+02  0.62457553209E+02 -0.56452631985E+03  0.59520053420E+03  0.17200335804E+03 0.  0.
         24    2    5    5    0    0  0.58262814045E+02  0.20205929342E+02 -0.16513370395E+03  0.19335501917E+03  0.79461866169E+02 0.  0.
          5    1    5    5  501    0 -0.12572454175E+02  0.42251623868E+02 -0.39939261589E+03  0.40184551503E+03  0.47000000000E+01 0. -1.
        -13    1    6    6    0    0 -0.15448287762E+02 -0.11692530213E+02 -0.43203856658E+02  0.47349108626E+02  0.00000000000E+00 0.  1.
         14    1    6    6    0    0  0.73711101808E+02  0.31898459555E+02 -0.12192984729E+03  0.14600591054E+03  0.00000000000E+00 0. -1.
         -5    1    3    3    0  503 -0.34374486531E+02 -0.92973097135E+02 -0.99864445653E+03  0.10035628743E+04  0.47000000000E+01 0.  1.
         13    1    4    4    0    0  0.18102764666E+02 -0.15856889730E+02 -0.31578968258E+03  0.31670534360E+03  0.00000000000E+00 0. -1.
        -14    1    4    4    0    0 -0.29418638005E+02  0.46372433655E+02 -0.31002890232E+03  0.31485517169E+03  0.00000000000E+00 0.  1.
</event>
<event>
12    1  0.1050869E+000  0.2328457E+03  0.7818608E-02  0.1124816E+00
         21   -1    0    0  501  502  0.00000000000E+00  0.00000000000E+00  0.29922651546E+03  0.29922651546E+03  0.00000000000E+00 0. -1.
         21   -1    0    0  502  503 -0.00000000000E+00 -0.00000000000E+00 -0.31650444543E+03  0.31650444543E+03  0.00000000000E+00 0. -1.
         -6    2    1    2    0  503  0.15638828633E+03 -0.11716056500E+01 -0.21047226898E+03  0.31317326461E+03  0.17123156512E+03 0.  0.
        -24    2    3    3    0    0  0.14802295838E+02 -0.26819919316E+02 -0.57702481929E+02  0.10325631309E+03  0.79961701697E+02 0.  0.
          6    2    1    2  501    0 -0.15638828633E+03  0.11716056500E+01  0.19319433901E+03  0.30255769628E+03  0.17250634246E+03 0.  0.
         24    2    5    5    0    0 -0.39945247362E+02  0.19092019250E+02  0.15611581406E+03  0.17895741488E+03  0.75455158576E+02 0.  0.
          5    1    5    5  501    0 -0.11644303897E+03 -0.17920413600E+02  0.37078524953E+02  0.12360028140E+03  0.47000000000E+01 0. -1.
        -13    1    6    6    0    0  0.17730383445E+02 -0.38697434844E+01  0.72974013202E+02  0.75196728749E+02  0.00000000000E+00 0.  1.
         14    1    6    6    0    0 -0.57675630807E+02  0.22961762735E+02  0.83141800859E+02  0.10376068613E+03  0.00000000000E+00 0. -1.
         -5    1    3    3    0  503  0.14158599049E+03  0.25648313666E+02 -0.15276978705E+03  0.20991695152E+03  0.47000000000E+01 0.  1.
         13    1    4    4    0    0 -0.18733116129E+02 -0.10573285260E+02  0.11696825934E+02  0.24485500567E+02  0.00000000000E+00 0. -1.
        -14    1    4    4    0    0  0.33535411967E+02 -0.16246634056E+02 -0.69399307863E+02  0.78770812525E+02  0.00000000000E+00 0.  1.
</event>
<event>
12    1  0.1050869E+000  0.2093995E+03  0.7818608E-02  0.1142081E+00
         21   -1    0    0  501  502  0.00000000000E+00  0.00000000000E+00  0.23458498323E+03  0.23458498323E+03  0.00000000000E+00 0. -1.
         21   -1    0    0  502  503 -0.00000000000E+00 -0.00000000000E+00 -0.18836436126E+03  0.18836436126E+03  0.00000000000E+00 0. -1.
         -6    2    1    2    0  503 -0.81211526105E+02 -0.88401463016E+02  0.35241805678E+01  0.20942913956E+03  0.17157509729E+03 0.  0.
        -24    2    3    3    0    0 -0.41134906605E+02 -0.65889375021E+02 -0.62346555731E+02  0.12896813386E+03  0.81927994353E+02 0.  0.
          6    2    1    2  501    0  0.81211526105E+02  0.88401463016E+02  0.42696441402E+02  0.21352020493E+03  0.17134106680E+03 0.  0.
         24    2    5    5    0    0  0.65843875732E+02  0.30730778898E+02 -0.36688357775E+02  0.11409129151E+03  0.79943670538E+02 0.  0.
          5    1    5    5  501    0  0.15367650373E+02  0.57670684118E+02  0.79384799177E+02  0.99428913425E+02  0.47000000000E+01 0. -1.
        -13    1    6    6    0    0  0.62101621747E+02  0.24040864180E+02  0.95038601011E+01  0.67267361558E+02  0.00000000000E+00 0.  1.
         14    1    6    6    0    0  0.37422539851E+01  0.66899147178E+01 -0.46192217876E+02  0.46823929952E+02  0.00000000000E+00 0. -1.
         -5    1    3    3    0  503 -0.40076619500E+02 -0.22512087996E+02  0.65870736299E+02  0.80461005692E+02  0.47000000000E+01 0.  1.
         11    1    4    4    0    0  0.11692787289E+00 -0.70774349903E+02 -0.45521648677E+02  0.84150120467E+02  0.00000000000E+00 0. -1.
        -12    1    4    4    0    0 -0.41251834478E+02  0.48849748827E+01 -0.16824907054E+02  0.44818013396E+02  0.00000000000E+00 0.  1.
</event>
<event>
12    1  0.1050869E+000  0.2983853E+03  0.7818608E-02  0.1086206E+00
         21   -1    0    0  501  502  0.00000000000E+00  0.00000000000E+00  0.89449496289E+02  0.89449496289E+02  0.00000000000E+00 0. -1.
         21   -1    0    0  502  503 -0.00000000000E+00 -0.00000000000E+00 -0.11335128936E+04  0.11335128936E+04  0.00000000000E+00 0. -1.
         -6    2    1    2    0  503  0.84993933739E+02  0.22874705650E+03 -0.30446669602E+03  0.42544305444E+03  0.16956603127E+03 0.  0.
        -24    2    3    3    0    0 -0.11367741722E+02  0.10817220042E+03 -0.19494965695E+03  0.23612865916E+03  0.76947543396E+02 0.  0.
          6    2    1    2  501    0 -0.84993933739E+02 -0.22874705650E+03 -0.73959670126E+03  0.79751933542E+03  0.17171087683E+03 0.  0.
         24    2    5    5    0    0  0.38206260180E+01 -0.15427086164E+03 -0.53931769687E+03  0.56607063867E+03  0.75883422947E+02 0.  0.
          5    1    5    5  501    0 -0.88814559757E+02 -0.74476194853E+02 -0.20027900440E+03  0.23144869675E+03  0.47000000000E+01 0. -1.
        -13    1    6    6    0    0  0.11878154010E+01 -0.15325365640E+02 -0.18248950369E+03  0.18313573298E+03  0.00000000000E+00 0.  1.
         14    1    6    6    0    0  0.26328106170E+01 -0.13894549600E+03 -0.35682819318E+03  0.38293490569E+03  0.00000000000E+00 0. -1.
         -5    1    3    3    0  503  0.96361675461E+02  0.12057485607E+03 -0.10951703907E+03  0.18931439528E+03  0.47000000000E+01 0.  1.
         13    1    4    4    0    0  0.27964470434E+02  0.72925518275E+02 -0.13717683229E+03  0.15785317906E+03  0.00000000000E+00 0. -1.
        -14    1    4    4    0    0 -0.39332212156E+02  0.35246682149E+02 -0.57772824669E+02  0.78275480106E+02  0.00000000000E+00 0.  1.
</event>
<event>
12    1  0.1050869E+000  0.1746579E+03  0.7818608E-02  0.1173578E+00
         21   -1    0    0  501  502  0.00000000000E+00  0.00000000000E+00  0.69912350700E+03  0.69912350700E+03  0.00000000000E+00 0. -1.
         21   -1    0    0  502  503 -0.00000000000E+00 -0.00000000000E+00 -0.51108855360E+02  0.51108855360E+02  0.00000000000E+00 0. -1.
         -6    2    1    2    0  503 -0.88335458438E+01  0.14842446962E+02  0.47056607743E+03  0.50124769440E+03  0.17180945305E+03 0.  0.
        -24    2    3    3    0    0 -0.35301398255E+02 -0.23801225336E+02  0.42947494921E+03  0.43876208456E+03  0.79061670851E+02 0.  0.
          6    2    1    2  501    0  0.88335458438E+01 -0.14842446962E+02  0.17744857421E+03  0.24898466795E+03  0.17380172215E+03 0.  0.
         24    2    5    5    0    0 -0.22740444369E+02  0.50209771477E+02  0.13759867004E+03  0.16628755286E+03  0.75365823013E+02 0.  0.
          5    1    5    5  501    0  0.31573990212E+02 -0.65052218439E+02  0.39849904171E+02  0.82697115090E+02  0.47000000000E+01 0. -1.
        -13    1    6    6    0    0  0.14881589796E+02  0.53197486169E+02  0.89103927196E+02  0.10483770358E+03  0.00000000000E+00 0.  1.
         14    1    6    6    0    0 -0.37622034165E+02 -0.29877146917E+01  0.48494742845E+02  0.61449849287E+02  0.00000000000E+00 0. -1.
         -5    1    3    3    0  503  0.26467852412E+02  0.38643672298E+02  0.41091128213E+02  0.62485609846E+02  0.47000000000E+01 0.  1.
         11    1    4    4    0    0 -0.69520121803E+01  0.22876794864E+02  0.25054676531E+03  0.25168504093E+03  0.00000000000E+00 0. -1.
        -12    1    4    4    0    0 -0.28349386075E+02 -0.46678020201E+02  0.17892818390E+03  0.18707704363E+03  0.00000000000E+00 0.  1.
</event>
<event>
12    1  0.1050869E+000  0.1783483E+03  0.7818608E-02  0.1169983E+00
         21   -1    0    0  503  502  0.00000000000E+00  0.00000000000E+00  0.30524912863E+03  0.30524912863E+03  0.00000000000E+00 0. -1.
         21   -1    0    0  501  503 -0.00000000000E+00 -0.00000000000E+00 -0.11129141346E+03  0.11129141346E+03  0.00000000000E+00 0. -1.
          6    2    1    2  501    0 -0.43571659651E+02  0.50204993216E+01  0.15374056142E+03  0.23371404350E+03  0.17047697488E+03 0.  0.
         24    2    3    3    0    0 -0.49172845343E+02  0.60189837495E+02  0.81340993583E+02  0.14239692255E+03  0.87291128166E+02 0.  0.
         -6    2    1    2    0  502  0.43571659651E+02 -0.50204993216E+01  0.40217153748E+02  0.18282649859E+03  0.17287109126E+03 0.  0.
        -24    2    5    5    0    0  0.95717009060E+01 -0.63365360627E+01  0.91070912385E+02  0.12145937453E+03  0.79540552122E+02 0.  0.
          5    1    3    3  501    0  0.56011856923E+01 -0.55169338174E+02  0.72399567839E+02  0.91317120952E+02  0.47000000000E+01 0. -1.
        -11    1    4    4    0    0  0.22007335673E+02  0.42847831306E+01  0.32691413097E+02  0.39641022694E+02  0.00000000000E+00 0.  1.
         12    1    4    4    0    0 -0.71180181016E+02  0.55905054365E+02  0.48649580486E+02  0.10275589985E+03  0.00000000000E+00 0. -1.
         -5    1    5    5    0  502  0.33999958745E+02  0.13160367411E+01 -0.50853758637E+02  0.61367124056E+02  0.47000000000E+01 0.  1.
         13    1    6    6    0    0 -0.23828416450E+02 -0.51345473114E+01  0.83776938667E+02  0.87250973972E+02  0.00000000000E+00 0. -1.
        -14    1    6    6    0    0  0.33400117356E+02 -0.12019887513E+01  0.72939737181E+01  0.34208400562E+02  0.00000000000E+00 0.  1.
</event>
<event>
12    1  0.1050869E+000  0.2187500E+03  0.7818608E-02  0.1135940E+00
         21   -1    0    0  503  502  0.00000000000E+00  0.00000000000E+00  0.11708189829E+04  0.11708189829E+04  0.00000000000E+00 0.  1.
         21   -1    0    0  501  503 -0.00000000000E+00 -0.00000000000E+00 -0.43349364716E+02  0.43349364716E+02  0.00000000000E+00 0.  1.
          6    2    1    2  501    0  0.86467724509E+02 -0.91490354749E+02  0.73091591028E+03  0.76128158778E+03  0.17165207717E+03 0.  0.
         24    2    3    3    0    0  0.94019384572E+02 -0.65809393599E+02  0.71637090214E+03  0.73045649091E+03  0.84905210191E+02 0.  0.
         -6    2    1    2    0  502 -0.86467724509E+02  0.91490354749E+02  0.39655370788E+03  0.45288675982E+03  0.17889779649E+03 0.  0.
        -24    2    5    5    0    0 -0.97193674467E+02  0.54343407141E+02  0.38986698663E+03  0.41336785346E+03  0.80479182068E+02 0.  0.
          5    1    3    3  501    0 -0.75516600627E+01 -0.25680961149E+02  0.14545008143E+02  0.30825096872E+02  0.47000000000E+01 0. -1.
        -13    1    4    4    0    0 -0.30989125545E+01 -0.39851181290E+02  0.15006364130E+03  0.15529589933E+03  0.00000000000E+00 0.  1.
         14    1    4    4    0    0  0.97118297127E+02 -0.25958212309E+02  0.56630726084E+03  0.57516059158E+03  0.00000000000E+00 0. -1.
         -5    1    5    5    0  502  0.10725949958E+02  0.37146947608E+02  0.66867212490E+01  0.39518906364E+02  0.47000000000E+01 0.  1.
         13    1    6    6    0    0 -0.79201202385E+02  0.74333815051E+02  0.33667241495E+03  0.35376074049E+03  0.00000000000E+00 0. -1.
        -14    1    6    6    0    0 -0.17992472083E+02 -0.19990407910E+02  0.53194571681E+02  0.59607112968E+02  0.00000000000E+00 0.  1.
</event>
<event>
12    1  0.1050869E+000  0.2588891E+03  0.7818608E-02  0.1107975E+00
         21   -1    0    0  503  502  0.00000000000E+00  0.00000000000E+00  0.95662006757E+02  0.95662006757E+02  0.00000000000E+00 0. -1.
         21   -1    0    0  501  503 -0.00000000000E+00 -0.00000000000E+00 -0.70467517785E+03  0.70467517785E+03  0.00000000000E+00 0. -1.
          6    2    1    2  501    0 -0.76390351542E+02  0.17646754458E+03 -0.34360884301E+03  0.42957709110E+03  0.17173572751E+03 0.  0.
         24    2    3    3    0    0 -0.95526168223E+02  0.64447653612E+02 -0.22400476974E+03  0.26452600872E+03  0.80728703382E+02 0.  0.
         -6    2    1    2    0  502  0.76390351542E+02 -0.17646754458E+03 -0.26540432808E+03  0.37076009351E+03  0.17334159766E+03 0.  0.
        -24    2    5    5    0    0  0.49278489690E+01 -0.48943078827E+02 -0.45681436565E+02  0.10681006473E+03  0.83077599988E+02 0.  0.
          5    1    3    3  501    0  0.19135816681E+02  0.11201989096E+03 -0.11960407327E+03  0.16505108238E+03  0.47000000000E+01 0. -1.
        -11    1    4    4    0    0 -0.72637472746E+02  0.75738478067E+02 -0.21150408512E+03  0.23610696205E+03  0.00000000000E+00 0.  1.
         12    1    4    4    0    0 -0.22888695477E+02 -0.11290824455E+02 -0.12500684626E+02  0.28419046670E+02  0.00000000000E+00 0. -1.
         -5    1    5    5    0  502  0.71462502573E+02 -0.12752446575E+03 -0.21972289152E+03  0.26395002879E+03  0.47000000000E+01 0.  1.
         13    1    6    6    0    0 -0.37737640737E+02 -0.11093557292E+02 -0.21861277707E+02  0.45001244480E+02  0.00000000000E+00 0. -1.
        -14    1    6    6    0    0  0.42665489706E+02 -0.37849521535E+02 -0.23820158858E+02  0.61808820247E+02  0.00000000000E+00 0.  1.
</event>
<event>
12    1  0.1050869E+000  0.3685950E+03  0.7818608E-02  0.1055250E+00
         21   -1    0    0  503  502  0.00000000000E+00  0.00000000000E+00  0.69459569148E+03  0.69459569148E+03  0.00000000000E+00 0. -1.
         21   -1    0    0  501  503 -0.00000000000E+00 -0.00000000000E+00 -0.19984288155E+03  0.19984288155E+03  0.00000000000E+00 0.  1.
          6    2    1    2  501    0 -0.10925766891E+03 -0.30597077161E+03  0.18138386577E+03  0.41063868273E+03  0.17369130576E+03 0.  0.
         24    2    3    3    0    0 -0.78414986338E+01 -0.12171501860E+03  0.25643802522E+02  0.14888979656E+03  0.81452636905E+02 0.  0.
         -6    2    1    2    0  502  0.10925766891E+03  0.30597077161E+03  0.31336894416E+03  0.48379989030E+03  0.17408873425E+03 0.  0.
        -24    2    5    5    0    0  0.84307552586E+02  0.16468089125E+03  0.96686707688E+02  0.22387947902E+03  0.80908233922E+02 0.  0.
          5    1    3    3  501    0 -0.10141617028E+03 -0.18425575301E+03  0.15574006324E+03  0.26174888617E+03  0.47000000000E+01 0. -1.
        -13    1    4    4    0    0 -0.19108151102E+02 -0.12416585644E+03  0.38717113845E+02  0.13145834416E+03  0.00000000000E+00 0.  1.
         14    1    4    4    0    0  0.11266652468E+02  0.24508378409E+01 -0.13073311323E+02  0.17431452404E+02  0.00000000000E+00 0. -1.
         -5    1    5    5    0  502  0.24950116324E+02  0.14128988036E+03  0.21668223647E+03  0.25992041128E+03  0.47000000000E+01 0.  1.
         11    1    6    6    0    0 -0.78570807557E+01  0.60914929993E+01  0.25068815513E+02  0.26968231610E+02  0.00000000000E+00 0. -1.
        -12    1    6    6    0    0  0.92164633342E+02  0.15858939825E+03  0.71617892175E+02  0.19691124741E+03  0.00000000000E+00 0.  1.
</event>
<event>
12    1  0.1050869E+000  0.2850050E+03  0.7818608E-02  0.1093071E+00
         21   -1    0    0  503  502  0.00000000000E+00  0.00000000000E+00  0.15395013092E+03  0.15395013092E+03  0.00000000000E+00 0.  1.
         21   -1    0    0  501  503 -0.00000000000E+00 -0.00000000000E+00 -0.13391199475E+04  0.13391199475E+04  0.00000000000E+00 0.  1.
          6    2    1    2  501    0 -0.44093475916E+02 -0.22318544691E+03 -0.11281474680E+02  0.28522819249E+03  0.17167373645E+03 0.  0.
         24    2    3    3    0    0 -0.75725309245E+02 -0.22207334155E+03 -0.27499037509E+02  0.24935467855E+03  0.79816459243E+02 0.  0.
         -6    2    1    2    0  502  0.44093475916E+02  0.22318544691E+03 -0.11738883419E+04  0.12078418859E+04  0.17062298746E+03 0.  0.
        -24    2    5    5    0    0 -0.16168121946E+02  0.10488413543E+03 -0.48487177487E+03  0.50613498123E+03  0.99044894503E+02 0.  0.
          5    1    3    3  501    0  0.31631833329E+02 -0.11121053687E+01  0.16217562829E+02  0.35873513937E+02  0.47000000000E+01 0. -1.
        -11    1    4    4    0    0 -0.49589211272E+02 -0.97168319658E+02  0.24076670005E+02  0.11171597137E+03  0.00000000000E+00 0.  1.
         12    1    4    4    0    0 -0.26136097973E+02 -0.12490502189E+03 -0.51575707515E+02  0.13763870719E+03  0.00000000000E+00 0. -1.
         -5    1    5    5    0  502  0.60261597862E+02  0.11830131149E+03 -0.68901656702E+03  0.70170690470E+03  0.47000000000E+01 0.  1.
         11    1    6    6    0    0  0.14477667492E+02  0.78802350774E+02 -0.16163806879E+03  0.18040587193E+03  0.00000000000E+00 0. -1.
        -12    1    6    6    0    0 -0.30645789438E+02  0.26081784652E+02 -0.32323370608E+03  0.32572910930E+03  0.00000000000E+00 0.  1.
</event>
<event>
12    1  0.1050869E+000  0.2550984E+03  0.7818608E-02  0.1110254E+00
         21   -1    0    0  501  502  0.00000000000E+00  0.00000000000E+00  0.45248138009E+03  0.45248138009E+03  0.00000000000E+00 0.  1.
         21   -1    0    0  502  503 -0.00000000000E+00 -0.00000000000E+00 -0.14553825938E+03  0.14553825938E+03  0.00000000000E+00 0.  1.
         -6    2    1    2    0  503  0.17549283328E+03  0.66480934385E+02  0.19043543816E+03  0.31834076666E+03  0.17279391900E+03 0.  0.
        -24    2    3    3    0    0  0.12185149168E+03  0.30152167649E+02  0.20059016029E+03  0.25259594784E+03  0.88381905494E+02 0.  0.
          6    2    1    2  501    0 -0.17549283328E+03 -0.66480934385E+02  0.11650768255E+03  0.27967887281E+03  0.17154819333E+03 0.  0.
         24    2    5    5    0    0 -0.19446799564E+03 -0.85217707210E+02  0.99262224693E+02  0.24757561349E+03  0.79754850589E+02 0.  0.
          5    1    5    5  501    0  0.18975162361E+02  0.18736772825E+02  0.17245457856E+02  0.32103259323E+02  0.47000000000E+01 0. -1.
        -13    1    6    6    0    0 -0.66237747760E+02 -0.42228261753E+02  0.77943749301E+02  0.11066116471E+03  0.00000000000E+00 0.  1.
         14    1    6    6    0    0 -0.12823024788E+03 -0.42989445457E+02  0.21318475391E+02  0.13691444878E+03  0.00000000000E+00 0. -1.
         -5    1    3    3    0  503  0.53641341595E+02  0.36328766737E+02 -0.10154722133E+02  0.65744818825E+02  0.47000000000E+01 0.  1.
         11    1    4    4    0    0  0.97737680524E+02  0.50315840543E+02  0.10518271389E+03  0.15214381783E+03  0.00000000000E+00 0. -1.
        -12    1    4    4    0    0  0.24113811159E+02 -0.20163672895E+02  0.95407446405E+02  0.10045213001E+03  0.00000000000E+00 0.  1.
</event>
<event>
12    1  0.1050869E+000  0.1771240E+03  0.7818608E-02  0.1170991E+00
         21   -1    0    0  503  502  0.00000000000E+00  0.00000000000E+00  0.43911529847E+03  0.43911529847E+03  0.00000000000E+00 0. -1.
         21   -1    0    0  501  503 -0.00000000000E+00 -0.00000000000E+00 -0.13136647828E+03  0.13136647828E+03  0.00000000000E+00 0. -1.
          6    2    1    2  501    0  0.21232955232E+02 -0.15802108265E+02 -0.40100935053E+02  0.18013272927E+03  0.17360636552E+03 0.  0.
         24    2    3    3    0    0 -0.38717754535E+02 -0.53169650040E+02 -0.37430141216E+02  0.10928328383E+03  0.78839992718E+02 0.  0.
         -6    2    1    2    0  502 -0.21232955232E+02  0.15802108265E+02  0.34784975524E+03  0.39034904747E+03  0.17513532377E+03 0.  0.
        -24    2    5    5    0    0  0.18749757158E+02  0.33041782059E+01  0.60739927592E+02  0.10016124849E+03  0.77333472112E+02 0.  0.
          5    1    3    3  501    0  0.59950709766E+02  0.37367541775E+02 -0.26707938371E+01  0.70849445443E+02  0.47000000000E+01 0. -1.
        -11    1    4    4    0    0 -0.12737122230E+02  0.17001043545E+02  0.68705866712E+01  0.22326547551E+02  0.00000000000E+00 0.  1.
         12    1    4    4    0    0 -0.25980632305E+02 -0.70170693585E+02 -0.44300727888E+02  0.86956736280E+02  0.00000000000E+00 0. -1.
         -5    1    5    5    0  502 -0.39982712389E+02  0.12497930059E+02  0.28710982764E+03  0.29018779898E+03  0.47000000000E+01 0.  1.
         13    1    6    6    0    0 -0.11919622910E+02 -0.13980383385E+02 -0.10165784400E+02  0.20996945072E+02  0.00000000000E+00 0. -1.
        -14    1    6    6    0    0  0.30669380067E+02  0.17284561591E+02  0.70905711992E+02  0.79164303422E+02  0.00000000000E+00 0.  1.
</event>
<event>
12    1  0.1050869E+000  0.2421171E+03  0.7818608E-02  0.1119400E+00
         21   -1    0    0  503  502  0.00000000000E+00  0.00000000000E+00  0.26779503206E+03  0.26779503206E+03  0.00000000000E+00 0. -1.
         21   -1    0    0  501  503 -0.00000000000E+00 -0.00000000000E+00 -0.48098761054E+03  0.48098761054E+03  0.00000000000E+00 0. -1.
          6    2    1    2  501    0 -0.12521509663E+03  0.10181483099E+03  0.17320518824E+03  0.29279588167E+03  0.17229135457E+03 0.  0.
         24    2    3    3    0    0 -0.11448232864E+03  0.28077372022E+02  0.16473199067E+03  0.21765408079E+03  0.79637476993E+02 0.  0.
         -6    2    1    2    0  502  0.12521509663E+03 -0.10181483099E+03 -0.38639776672E+03  0.45598676093E+03  0.18048715130E+03 0.  0.
        -24    2    5    5    0    0  0.13848395750E+03 -0.13271366121E+03 -0.33796162957E+03  0.39683483991E+03  0.80430745052E+02 0.  0.
          5    1    3    3  501    0 -0.10732767987E+02  0.73737458965E+02  0.84731975700E+01  0.75141800886E+02  0.47000000000E+01 0. -1.
        -11    1    4    4    0    0 -0.54486820182E+02  0.75534685236E+00  0.19008016363E+02  0.57712120117E+02  0.00000000000E+00 0.  1.
         12    1    4    4    0    0 -0.59995508462E+02  0.27322025169E+02  0.14572397431E+03  0.15994196067E+03  0.00000000000E+00 0. -1.
         -5    1    5    5    0  502 -0.13268860870E+02  0.30898830227E+02 -0.48436137152E+02  0.59151921020E+02  0.47000000000E+01 0.  1.
         13    1    6    6    0    0  0.69186923451E+02 -0.15516515928E+02 -0.13403358845E+03  0.15163309492E+03  0.00000000000E+00 0. -1.
        -14    1    6    6    0    0  0.69297034049E+02 -0.11719714529E+03 -0.20392804112E+03  0.24520174499E+03  0.00000000000E+00 0.  1.
</event>
<event>
12    1  0.1050869E+000  0.2108868E+03  0.7818608E-02  0.1141031E+00
         21   -1    0    0  501  502  0.00000000000E+00  0.00000000000E+00  0.49458865305E+03  0.49458865305E+03  0.00000000000E+00 0.  1.
         21   -1    0    0  502  503 -0.00000000000E+00 -0.00000000000E+00 -0.91139275024E+02  0.91139275024E+02  0.00000000000E+00 0.  1.
         -6    2    1    2    0  503 -0.85642157918E+02 -0.83758771448E+02  0.16280775015E+03  0.26575663489E+03  0.17254018220E+03 0.  0.
        -24    2    3    3    0    0 -0.11846420465E+03 -0.86976627669E+02  0.16103585413E+03  0.23239691418E+03  0.80480294880E+02 0.  0.
          6    2    1    2  501    0  0.85642157918E+02  0.83758771448E+02  0.24064162787E+03  0.31997129318E+03  0.17356014631E+03 0.  0.
         24    2    5    5    0    0  0.34984731682E+02  0.75114086752E+02  0.24242506302E+03  0.26833626585E+03  0.79802148544E+02 0.  0.
          5    1    5    5  501    0  0.50657426237E+02  0.86446846956E+01 -0.17834351447E+01  0.51635027329E+02  0.47000000000E+01 0. -1.
        -11    1    6    6    0    0  0.40549240331E+02  0.33742163677E+02  0.20690845017E+03  0.21352723773E+03  0.00000000000E+00 0.  1.
         12    1    6    6    0    0 -0.55645086486E+01  0.41371923075E+02  0.35516612850E+02  0.54809028123E+02  0.00000000000E+00 0. -1.
         -5    1    3    3    0  503  0.32822046732E+02  0.32178562206E+01  0.17718960265E+01  0.33359720710E+02  0.47000000000E+01 0.  1.
         11    1    4    4    0    0 -0.65748980201E+02 -0.13242928058E+02  0.10871842451E+03  0.12774192487E+03  0.00000000000E+00 0. -1.
        -12    1    4    4    0    0 -0.52715224450E+02 -0.73733699610E+02  0.52317429615E+02  0.10465498932E+03  0.00000000000E+00 0.  1.
</event>
<event>
12    1  0.1050869E+000  0.1911989E+03  0.7818608E-02  0.1157453E+00
         21   -1    0    0  501  502  0.00000000000E+00  0.00000000000E+00  0.13182361763E+04  0.13182361763E+04  0.00000000000E+00 0. -1.
         21   -1    0    0  502  503 -0.00000000000E+00 -0.00000000000E+00 -0.30752651942E+02  0.30752651942E+02  0.00000000000E+00 0. -1.
         -6    2    1    2    0  503 -0.84159623296E+02  0.66171834858E+01  0.85622335382E+03  0.87724486716E+03  0.17121184549E+03 0.  0.
        -24    2    3    3    0    0 -0.73692148895E+02  0.30173935943E+02  0.30920413009E+03  0.32959843950E+03  0.81773700157E+02 0.  0.
          6    2    1    2  501    0  0.84159623296E+02 -0.66171834858E+01  0.43126017056E+03  0.47174396110E+03  0.17155290965E+03 0.  0.
         24    2    5    5    0    0 -0.15498210462E+01 -0.53322733616E+02  0.20504844761E+03  0.22532693477E+03  0.76691888757E+02 0.  0.
          5    1    5    5  501    0  0.85709444342E+02  0.46705550130E+02  0.22621172296E+03  0.24641702633E+03  0.47000000000E+01 0. -1.
        -13    1    6    6    0    0  0.25717441422E+02 -0.40722049069E+02  0.17963857048E+03  0.18598303170E+03  0.00000000000E+00 0.  1.
         14    1    6    6    0    0 -0.27267262468E+02 -0.12600684547E+02  0.25409877122E+02  0.39343903072E+02  0.00000000000E+00 0. -1.
         -5    1    3    3    0  503 -0.10467474401E+02 -0.23556752458E+02  0.54701922373E+03  0.54764642766E+03  0.47000000000E+01 0.  1.
         13    1    4    4    0    0  0.17383697467E+02 -0.21337648466E+00  0.35183250393E+02  0.39244102428E+02  0.00000000000E+00 0. -1.
        -14    1    4    4    0    0 -0.91075846362E+02  0.30387312428E+02  0.27402087970E+03  0.29035433707E+03  0.00000000000E+00 0.  1.
</event>
<event>
12    1  0.1050869E+000  0.2328094E+03  0.7818608E-02  0.1125281E+00
         21   -1    0    0  501  502  0.00000000000E+00  0.00000000000E+00  0.11906245127E+04  0.11906245127E+04  0.00000000000E+00 0.  1.
         21   -1    0    0  502  503 -0.00000000000E+00 -0.00000000000E+00 -0.49503623237E+02  0.49503623237E+02  0.00000000000E+00 0.  1.
         -6    2    1    2    0  503  0.62202520373E+02 -0.13854409152E+03  0.38430051080E+03  0.44931848947E+03  0.17645567018E+03 0.  0.
        -24    2    3    3    0    0  0.28268902671E+02 -0.30812734169E+02  0.95318296342E+02  0.13901163160E+03  0.92141742203E+02 0.  0.
          6    2    1    2  501    0 -0.62202520373E+02  0.13854409152E+03  0.75682037868E+03  0.79080964649E+03  0.17186969646E+03 0.  0.
         24    2    5    5    0    0 -0.15091512910E+02  0.14514183406E+03  0.44323121440E+03  0.47359799604E+03  0.80915058378E+02 0.  0.
          5    1    5    5  501    0 -0.47111007462E+02 -0.65977425427E+01  0.31358916428E+03  0.31721165046E+03  0.47000000000E+01 0. -1.
        -11    1    6    6    0    0  0.80789352842E+00  0.51375691055E+02  0.28005349045E+03  0.28472806647E+03  0.00000000000E+00 0.  1.
         12    1    6    6    0    0 -0.15899406439E+02  0.93766143008E+02  0.16317772395E+03  0.18886992956E+03  0.00000000000E+00 0. -1.
         -5    1    3    3    0  503  0.33933617702E+02 -0.10773135735E+03  0.28898221446E+03  0.31030685787E+03  0.47000000000E+01 0.  1.
         13    1    4    4    0    0 -0.17756307075E+02 -0.40470204982E+02  0.16390429868E+02  0.47135656604E+02  0.00000000000E+00 0. -1.
        -14    1    4    4    0    0  0.46025209746E+02  0.96574708127E+01  0.78927866474E+02  0.91875974992E+02  0.00000000000E+00 0.  1.
</event>
<event>
12    1  0.1050869E+000  0.2797617E+03  0.7818608E-02  0.1095902E+00
         21   -1    0    0  503  502  0.00000000000E+00  0.00000000000E+00  0.11003384237E+03  0.11003384237E+03  0.00000000000E+00 0.  1.
         21   -1    0    0  501  503 -0.00000000000E+00 -0.00000000000E+00 -0.87064277659E+03  0.87064277659E+03  0.00000000000E+00 0.  1.
          6    2    1    2  501    0  0.21079317389E+03  0.63063469671E+02 -0.16985454387E+03  0.32728759900E+03  0.17278843427E+03 0.  0.
         24    2    3    3    0    0  0.13932807429E+03 -0.15917443518E+02 -0.14618668748E+03  0.21807449294E+03  0.80748124312E+02 0.  0.
         -6    2    1    2    0  502 -0.21079317389E+03 -0.63063469671E+02 -0.59075439035E+03  0.65338901996E+03  0.17180133389E+03 0.  0.
        -24    2    5    5    0    0 -0.21451583191E+03 -0.13291850792E+02 -0.46803036517E+03  0.52082074101E+03  0.77511973977E+02 0.  0.
          5    1    3    3  501    0  0.71465099600E+02  0.78980913189E+02 -0.23667856395E+02  0.10921310606E+03  0.47000000000E+01 0. -1.
        -13    1    4    4    0    0  0.12170512626E+03 -0.55244497896E+01 -0.15383335947E+03  0.19623292228E+03  0.00000000000E+00 0.  1.
         14    1    4    4    0    0  0.17622948038E+02 -0.10392993729E+02  0.76466719899E+01  0.21841570656E+02  0.00000000000E+00 0. -1.
         -5    1    5    5    0  502  0.37226580161E+01 -0.49771618879E+02 -0.12272402518E+03  0.13256827896E+03  0.47000000000E+01 0.  1.
         13    1    6    6    0    0 -0.16660738180E+03 -0.25820567677E+02 -0.28427807116E+03  0.33051284866E+03  0.00000000000E+00 0. -1.
        -14    1    6    6    0    0 -0.47908450111E+02  0.12528716885E+02 -0.18375229400E+03  0.19030789235E+03  0.00000000000E+00 0.  1.
</event>
<event>
12    1  0.1050869E+000  0.2000643E+03  0.7818608E-02  0.1150228E+00
         21   -1    0    0  503  502  0.00000000000E+00  0.00000000000E+00  0.16136848542E+03  0.16136848542E+03  0.00000000000E+00 0.  1.
         21   -1    0    0  501  503 -0.00000000000E+00 -0.00000000000E+00 -0.25310025493E+03  0.25310025493E+03  0.00000000000E+00 0.  1.
          6    2    1    2  501    0 -0.38274817507E+02  0.90439669409E+02 -0.87951209270E+01  0.20025753657E+03  0.17430270033E+03 0.  0.
         24    2    3    3    0    0  0.35018923144E+02  0.78448065766E+02  0.15371017121E+02  0.12201520017E+03  0.85270258033E+02 0.  0.
         -6    2    1    2    0  502  0.38274817507E+02 -0.90439669409E+02 -0.82936648580E+02  0.21421120378E+03  0.17135826998E+03 0.  0.
        -24    2    5    5    0    0  0.14962018919E+02 -0.11621072855E+03 -0.20801847201E+02  0.14286376087E+03  0.79047719024E+02 0.  0.
          5    1    3    3  501    0 -0.73293740651E+02  0.11991603643E+02 -0.24166138048E+02  0.78242336396E+02  0.47000000000E+01 0. -1.
        -11    1    4    4    0    0  0.55559436794E+02  0.22200447879E+02 -0.13422864936E+01  0.59845740333E+02  0.00000000000E+00 0.  1.
         12    1    4    4    0    0 -0.20540513650E+02  0.56247617887E+02  0.16713303615E+02  0.62169459839E+02  0.00000000000E+00 0. -1.
         -5    1    5    5    0  502  0.23312798588E+02  0.25771059143E+02 -0.62134801379E+02  0.71347442910E+02  0.47000000000E+01 0.  1.
         11    1    6    6    0    0  0.46170763081E+02 -0.83240316680E+02 -0.71447131932E+01  0.95455416877E+02  0.00000000000E+00 0. -1.
        -12    1    6    6    0    0 -0.31208744161E+02 -0.32970411872E+02 -0.13657134008E+02  0.47408343996E+02  0.00000000000E+00 0.  1.
</event>
<event>
12    1  0.1050869E+000  0.3105350E+03  0.7818608E-02  0.1080408E+00
         21   -1    0    0  503  502  0.00000000000E+00  0.00000000000E+00  0.34703090919E+03  0.34703090919E+03  0.00000000000E+00 0. -1.
         21   -1    0    0  501  503 -0.00000000000E+00 -0.00000000000E+00 -0.27747219376E+03  0.27747219376E+03  0.00000000000E+00 0. -1.
          6    2    1    2  501    0 -0.33270183197E+02 -0.25558693694E+03  0.60904575066E+02  0.31384757693E+03  0.16840233626E+03 0.  0.
         24    2    3    3    0    0 -0.74645762239E+02 -0.13529607955E+03  0.65769462361E+02  0.18646003421E+03  0.81022856129E+02 0.  0.
         -6    2    1    2    0  502  0.33270183197E+02  0.25558693694E+03  0.86541403699E+01  0.31065552602E+03  0.17320616120E+03 0.  0.
        -24    2    5    5    0    0 -0.15118886540E+02  0.61793727880E+02  0.35781843921E+02  0.10902390090E+03  0.80986573442E+02 0.  0.
          5    1    3    3  501    0  0.41375579042E+02 -0.12029085739E+03 -0.48648872953E+01  0.12738754272E+03  0.47000000000E+01 0. -1.
        -11    1    4    4    0    0 -0.70507553772E+02 -0.12671351306E+03  0.28231464349E+02  0.14773166590E+03  0.00000000000E+00 0.  1.
         12    1    4    4    0    0 -0.41382084673E+01 -0.85825664906E+01  0.37537998012E+02  0.38728368306E+02  0.00000000000E+00 0. -1.
         -5    1    5    5    0  502  0.48389069737E+02  0.19379320906E+03 -0.27127703551E+02  0.20163162512E+03  0.47000000000E+01 0.  1.
         11    1    6    6    0    0 -0.46524201585E+02  0.43932505297E+02  0.10299753248E+02  0.64812431460E+02  0.00000000000E+00 0. -1.
        -12    1    6    6    0    0  0.31405315044E+02  0.17861222583E+02  0.25482090673E+02  0.44211469442E+02  0.00000000000E+00 0.  1.
</event>
<event>
12    1  0.1274529E+000  0.2401872E+03  0.7818608E-02  0.1119991E+00
         21   -1    0    0  503  502  0.00000000000E+00  0.00000000000E+00  0.81036423327E+03  0.81036423327E+03  0.00000000000E+00 0. -1.
         21   -1    0    0  501  503 -0.00000000000E+00 -0.00000000000E+00 -0.27759007035E+03  0.27759007035E+03  0.00000000000E+00 0. -1.
          6    2    1    2  501    0  0.67410576210E+02  0.15197462187E+03  0.73582722016E+03  0.77343808241E+03  0.17065842470E+03 0.  0.
         24    2    3    3    0    0  0.30985012117E+02  0.25144832703E+02  0.46123641669E+03  0.46875001818E+03  0.73452119569E+02 0.  0.
         -6    2    1    2    0  502 -0.67410576210E+02 -0.15197462187E+03 -0.20305305724E+03  0.31451622121E+03  0.17334773685E+03 0.  0.
        -24    2    5    5    0    0 -0.21464151139E+02 -0.17982361895E+01 -0.76664616476E+02  0.11287260303E+03  0.79992610025E+02 0.  0.
          5    1    3    3  501    0  0.36425564093E+02  0.12682978916E+03  0.27459080346E+03  0.30468806423E+03  0.47000000000E+01 0. -1.
        -11    1    4    4    0    0  0.80834530755E+01  0.41121004426E+02  0.13583787840E+03  0.14215557825E+03  0.00000000000E+00 0.  1.
         12    1    4    4    0    0  0.22901559042E+02 -0.15976171723E+02  0.32539853829E+03  0.32659443993E+03  0.00000000000E+00 0. -1.
         -5    1    5    5    0  502 -0.45946425071E+02 -0.15017638568E+03 -0.12638844077E+03  0.20164361818E+03  0.47000000000E+01 0.  1.
         13    1    6    6    0    0  0.14972041316E+02 -0.21451671853E+02 -0.47736287272E+00  0.26164176306E+02  0.00000000000E+00 0. -1.
        -14    1    6    6    0    0 -0.36436192454E+02  0.19653435664E+02 -0.76187253604E+02  0.86708426728E+02  0.00000000000E+00 0.  1.
</event>
<event>
12    1  0.1050869E+000  0.2219325E+03  0.7818608E-02  0.1132492E+00
         21   -1    0    0  501  502  0.00000000000E+00  0.00000000000E+00  0.45100791867E+03  0.45100791867E+03  0.00000000000E+00 0.  1.
         21   -1    0    0  502  503 -0.00000000000E+00 -0.00000000000E+00 -0.11045200978E+03  0.11045200978E+03  0.00000000000E+00 0.  1.
         -6    2    1    2    0  503  0.36461080209E+02  0.13538337282E+03  0.13909584714E+03  0.26172639442E+03  0.17174103423E+03 0.  0.
        -24    2    3    3    0    0  0.60194482561E+02  0.13686092125E+03  0.15697864970E+03  0.23160427358E+03  0.81510463009E+02 0.  0.
          6    2    1    2  501    0 -0.36461080209E+02 -0.13538337282E+03  0.20146006175E+03  0.29973353403E+03  0.17203478408E+03 0.  0.
         24    2    5    5    0    0  0.19351722992E+01 -0.91984076522E+01  0.11967891514E+03  0.14446871644E+03  0.80372953807E+02 0.  0.
          5    1    5    5  501    0 -0.38396252508E+02 -0.12618496517E+03  0.81781146605E+02  0.15526481759E+03  0.47000000000E+01 0. -1.
        -11    1    6    6    0    0 -0.35131727477E+02  0.12566508499E+02  0.46740911289E+02  0.59806924344E+02  0.00000000000E+00 0.  1.
         12    1    6    6    0    0  0.37066899776E+02 -0.21764916151E+02  0.72938003855E+02  0.84661792093E+02  0.00000000000E+00 0. -1.
         -5    1    3    3    0  503 -0.23733402352E+02 -0.14775484335E+01 -0.17882802561E+02  0.30122120842E+02  0.47000000000E+01 0.  1.
         13    1    4    4    0    0  0.52827002705E+02  0.30500636063E+02  0.38101289604E+02  0.71921410474E+02  0.00000000000E+00 0. -1.
        -14    1    4    4    0    0  0.73674798567E+01  0.10636028519E+03  0.11887736010E+03  0.15968286310E+03  0.00000000000E+00 0.  1.
</event>
<event>
12    1  0.1050869E+000  0.3721919E+03  0.7818608E-02  0.1054011E+00
         21   -1    0    0  501  502  0.00000000000E+00  0.00000000000E+00  0.10110391012E+03  0.10110391012E+03  0.00000000000E+00 0. -1.
         21   -1    0    0  502  503 -0.00000000000E+00 -0.00000000000E+00 -0.21485810799E+04  0.21485810799E+04  0.00000000000E+00 0. -1.
         -6    2    1    2    0  503 -0.30425554115E+03 -0.12818698052E+03 -0.34551806467E+03  0.50784794375E+03  0.17182393506E+03 0.  0.
        -24    2    3    3    0    0 -0.79591291412E+02 -0.34247008244E+02 -0.65776500404E+02  0.13693531754E+03  0.83169116516E+02 0.  0.
          6    2    1    2  501    0  0.30425554115E+03  0.12818698052E+03 -0.17019591051E+04  0.17418370463E+04  0.16830972637E+03 0.  0.
         24    2    5    5    0    0  0.31428001474E+03  0.10822183323E+03 -0.16507598231E+04  0.16857785620E+04  0.79733768151E+02 0.  0.
          5    1    5    5  501    0 -0.10024473590E+02  0.19965147297E+02 -0.51199282069E+02  0.56058484298E+02  0.47000000000E+01 0. -1.
        -13    1    6    6    0    0  0.92228015584E+02  0.65110673717E+02 -0.65422264823E+03  0.66389206965E+03  0.00000000000E+00 0.  1.
         14    1    6    6    0    0  0.22205199915E+03  0.43111159510E+02 -0.99653717484E+03  0.10218864923E+04  0.00000000000E+00 0. -1.
         -5    1    3    3    0  503 -0.22466424974E+03 -0.93939972280E+02 -0.27974156427E+03  0.37091262621E+03  0.47000000000E+01 0.  1.
         11    1    4    4    0    0 -0.41948680893E+02  0.23398042965E+02 -0.42858356114E+02  0.64373899463E+02  0.00000000000E+00 0. -1.
        -12    1    4    4    0    0 -0.37642610519E+02 -0.57645051209E+02 -0.22918144290E+02  0.72561418077E+02  0.00000000000E+00 0.  1.
</event>
<event>
12    1  0.1050869E+000  0.1805852E+03  0.7818608E-02  0.1167542E+00
         21   -1    0    0  503  502  0.00000000000E+00  0.00000000000E+00  0.13968262622E+03  0.13968262622E+03  0.00000000000E+00 0.  1.
         21   -1    0    0  501  503 -0.00000000000E+00 -0.00000000000E+00 -0.23930383763E+03  0.23930383763E+03  0.00000000000E+00 0.  1.
          6    2    1    2  501    0 -0.41569387730E+02 -0.34573132510E+02 -0.16187295192E+02  0.18005879463E+03  0.17098486924E+03 0.  0.
         24    2    3    3    0    0 -0.13543494699E+02  0.38364666166E+02  0.24965507508E+02  0.91622284489E+02  0.78205451161E+02 0.  0.
         -6    2    1    2    0  502  0.41569387730E+02  0.34573132510E+02 -0.83433916211E+02  0.19892766922E+03  0.17230114253E+03 0.  0.
        -24    2    5    5    0    0  0.74170939941E+02 -0.24207878729E+02 -0.40683663900E+02  0.11912953289E+03  0.80307754134E+02 0.  0.
          5    1    3    3  501    0 -0.28025893031E+02 -0.72937798676E+02 -0.41152802700E+02  0.88436510141E+02  0.47000000000E+01 0. -1.
        -11    1    4    4    0    0 -0.25884875440E+02  0.40759967683E+02  0.46276263577E+02  0.66879700304E+02  0.00000000000E+00 0.  1.
         12    1    4    4    0    0  0.12341380741E+02 -0.23953015174E+01 -0.21310756069E+02  0.24742584186E+02  0.00000000000E+00 0. -1.
         -5    1    5    5    0  502 -0.32601552211E+02  0.58781011239E+02 -0.42750252311E+02  0.79798136328E+02  0.47000000000E+01 0.  1.
         11    1    6    6    0    0  0.13116910553E+02  0.26074663980E+02  0.19932643301E+01  0.29256017275E+02  0.00000000000E+00 0. -1.
        -12    1    6    6    0    0  0.61054029388E+02 -0.50282542709E+02 -0.42676928230E+02  0.89873515615E+02  0.00000000000E+00 0.  1.
</event>
<event>
12    1  0.1050869E+000  0.2276612E+03  0.7818608E-02  0.1133502E+00
         21   -1    0    0  503  502  0.00000000000E+00  0.00000000000E+00  0.62124013972E+03  0.62124013972E+03  0.00000000000E+00 0.  1.
         21   -1    0    0  501  503 -0.00000000000E+00 -0.00000000000E+00 -0.73797795108E+02  0.73797795108E+02  0.00000000000E+00 0.  1.
          6    2    1    2  501    0 -0.54154113925E+02  0.11987743001E+03  0.30149509036E+03  0.37779478772E+03  0.18581266327E+03 0.  0.
         24    2    3    3    0    0  0.33676116225E+01  0.46753755845E+02  0.40435646712E+02  0.10061263867E+03  0.79313347181E+02 0.  0.
         -6    2    1    2    0  502  0.54154113925E+02 -0.11987743001E+03  0.24594725426E+03  0.31724314712E+03  0.15116182135E+03 0.  0.
        -24    2    5    5    0    0  0.41714557017E+02 -0.24590859613E+02  0.65560423877E+02  0.11280300514E+03  0.77984191649E+02 0.  0.
          5    1    3    3  501    0 -0.57521725548E+02  0.73123674169E+02  0.26105944365E+03  0.27718214905E+03  0.47000000000E+01 0. -1.
        -11    1    4    4    0    0  0.27173835415E+02 -0.11257952672E+02  0.12235606575E+02  0.31857007044E+02  0.00000000000E+00 0.  1.
         12    1    4    4    0    0 -0.23806223792E+02  0.58011708517E+02  0.28200040137E+02  0.68755631624E+02  0.00000000000E+00 0. -1.
         -5    1    5    5    0  502  0.12439556908E+02 -0.95286570401E+02  0.18038683038E+03  0.20444014197E+03  0.47000000000E+01 0.  1.
         11    1    6    6    0    0  0.32583504589E+02 -0.44604936452E+02  0.14356675511E+02  0.57073630154E+02  0.00000000000E+00 0. -1.
        -12    1    6    6    0    0  0.91310524281E+01  0.20014076839E+02  0.51203748366E+02  0.55729374991E+02  0.00000000000E+00 0.  1.
</event>
<event>
12    1  0.1050869E+000  0.1767497E+03  0.7818608E-02  0.1171555E+00
         21   -1    0    0  503  502  0.00000000000E+00  0.00000000000E+00  0.44373969306E+03  0.44373969306E+03  0.00000000000E+00 0. -1.
         21   -1    0    0  501  503 -0.00000000000E+00 -0.00000000000E+00 -0.83061246254E+02  0.83061246254E+02  0.00000000000E+00 0. -1.
          6    2    1    2  501    0 -0.20693866680E+02  0.18973264507E+02  0.74880954853E+02  0.19195729557E+03  0.17450565905E+03 0.  0.
         24    2    3    3    0    0 -0.36726024495E+02  0.53546093430E+02  0.10223417828E+03  0.14481284293E+03  0.79391103226E+02 0.  0.
         -6    2    1    2    0  502  0.20693866680E+02 -0.18973264507E+02  0.28579749195E+03  0.33484364374E+03  0.17219709191E+03 0.  0.
        -24    2    5    5    0    0 -0.37550353865E+01  0.40477314225E+02  0.24011568877E+03  0.25584340788E+03  0.78407857412E+02 0.  0.
          5    1    3    3  501    0  0.16032157815E+02 -0.34572828923E+02 -0.27353223424E+02  0.47144452649E+02  0.47000000000E+01 0. -1.
        -13    1    4    4    0    0 -0.23830619838E+02  0.49827515254E+02  0.15948168272E+02  0.57489336311E+02  0.00000000000E+00 0.  1.
         14    1    4    4    0    0 -0.12895404657E+02  0.37185781760E+01  0.86286010005E+02  0.87323506615E+02  0.00000000000E+00 0. -1.
         -5    1    5    5    0  502  0.24448902067E+02 -0.59450578732E+02  0.45681803181E+02  0.79000235859E+02  0.47000000000E+01 0.  1.
         11    1    6    6    0    0  0.28734968238E+02  0.13054465040E+02  0.38449086084E+02  0.49743840601E+02  0.00000000000E+00 0. -1.
        -12    1    6    6    0    0 -0.32490003624E+02  0.27422849185E+02  0.20166660269E+03  0.20609956728E+03  0.00000000000E+00 0.  1.
</event>
<event>
12    1  0.1050869E+000  0.2856734E+03  0.7818608E-02  0.1092823E+00
         21   -1    0    0  501  502  0.00000000000E+00  0.00000000000E+00  0.78822363973E+02  0.78822363973E+02  0.00000000000E+00 0. -1.
         21   -1    0    0  502  503 -0.00000000000E+00 -0.00000000000E+00 -0.10602625775E+04  0.10602625775E+04  0.00000000000E+00 0. -1.
         -6    2    1    2    0  503  0.95097596945E+02 -0.20530336174E+03 -0.39591241959E+03  0.48821708730E+03  0.17440257183E+03 0.  0.
        -24    2    3    3    0    0  0.11435278890E+03 -0.92279102075E+02 -0.27452852333E+03  0.32118000770E+03  0.78731786556E+02 0.  0.
          6    2    1    2  501    0 -0.95097596945E+02  0.20530336174E+03 -0.58552779391E+03  0.65086785414E+03  0.17202657595E+03 0.  0.
         24    2    5    5    0    0 -0.10999348186E+03  0.17529928124E+03 -0.36150196098E+03  0.42430264045E+03  0.80750596598E+02 0.  0.
          5    1    5    5  501    0  0.14895884913E+02  0.30004080500E+02 -0.22402583293E+03  0.22656521369E+03  0.47000000000E+01 0. -1.
        -11    1    6    6    0    0  0.45679213594E+01  0.54755765188E+02 -0.10704663096E+03  0.12032473115E+03  0.00000000000E+00 0.  1.
         12    1    6    6    0    0 -0.11456140322E+03  0.12054351605E+03 -0.25445533002E+03  0.30397790930E+03  0.00000000000E+00 0. -1.
         -5    1    3    3    0  503 -0.19255191960E+02 -0.11302425966E+03 -0.12138389626E+03  0.16703707960E+03  0.47000000000E+01 0.  1.
         13    1    4    4    0    0  0.40293545765E+02 -0.17803002964E+02 -0.25478684366E+02  0.50888899593E+02  0.00000000000E+00 0. -1.
        -14    1    4    4    0    0  0.74059243140E+02 -0.74476099112E+02 -0.24904983897E+03  0.27029110811E+03  0.00000000000E+00 0.  1.
</event>
<event>
12    1  0.1050869E+000  0.1781864E+03  0.7818608E-02  0.1169591E+00
         21   -1    0    0  503  502  0.00000000000E+00  0.00000000000E+00  0.10103444258E+03  0.10103444258E+03  0.00000000000E+00 0.  1.
         21   -1    0    0  501  503 -0.00000000000E+00 -0.00000000000E+00 -0.48358800576E+03  0.48358800576E+03  0.00000000000E+00 0.  1.
          6    2    1    2  501    0 -0.72941639548E+00 -0.48180884945E+02 -0.18193150428E+02  0.17902548770E+03  0.17145613084E+03 0.  0.
         24    2    3    3    0    0  0.14290251702E+00 -0.76725337948E+02  0.32589183569E+02  0.12057480606E+03  0.87117340796E+02 0.  0.
         -6    2    1    2    0  502  0.72941639548E+00  0.48180884945E+02 -0.36436041275E+03  0.40559696063E+03  0.17154723656E+03 0.  0.
        -24    2    5    5    0    0 -0.38483308414E+02  0.50480783580E+02 -0.34878766289E+03  0.36308192966E+03  0.78398847693E+02 0.  0.
          5    1    3    3  501    0 -0.87231891250E+00  0.28544453003E+02 -0.50782333997E+02  0.58450681636E+02  0.47000000000E+01 0. -1.
        -13    1    4    4    0    0  0.52964150426E+01  0.84858141677E-01  0.42613979450E+02  0.42941942874E+02  0.00000000000E+00 0.  1.
         14    1    4    4    0    0 -0.51535125256E+01 -0.76810196090E+02 -0.10024795881E+02  0.77632863191E+02  0.00000000000E+00 0. -1.
         -5    1    5    5    0  502  0.39212724810E+02 -0.22998986352E+01 -0.15572749861E+02  0.42515030977E+02  0.47000000000E+01 0.  1.
         13    1    6    6    0    0 -0.33968269567E+02  0.27993010953E+02 -0.65792141362E+02  0.79158435208E+02  0.00000000000E+00 0. -1.
        -14    1    6    6    0    0 -0.45150388475E+01  0.22487772628E+02 -0.28299552153E+03  0.28392349445E+03  0.00000000000E+00 0.  1.
</event>
<event>
12    1  0.1050869E+000  0.2053937E+03  0.7818608E-02  0.1145775E+00
         21   -1    0    0  503  502  0.00000000000E+00  0.00000000000E+00  0.33878956207E+02  0.33878956207E+02  0.00000000000E+00 0. -1.
         21   -1    0    0  501  503 -0.00000000000E+00 -0.00000000000E+00 -0.13899075338E+04  0.13899075338E+04  0.00000000000E+00 0. -1.
          6    2    1    2  501    0  0.98825877680E+02 -0.51634901064E+02 -0.43307136022E+03  0.47825141298E+03  0.16953139493E+03 0.  0.
         24    2    3    3    0    0  0.92495335070E+02  0.31885051047E+02 -0.30094928564E+03  0.32174585154E+03  0.58119505894E+02 0.  0.
         -6    2    1    2    0  502 -0.98825877680E+02  0.51634901064E+02 -0.92295721742E+03  0.94553507707E+03  0.17249301344E+03 0.  0.
        -24    2    5    5    0    0 -0.55419017432E+02  0.98416406279E+02 -0.56963568705E+03  0.58646564288E+03  0.81854002993E+02 0.  0.
          5    1    3    3  501    0  0.63305426100E+01 -0.83519952111E+02 -0.13212207458E+03  0.15650556144E+03  0.47000000000E+01 0. -1.
        -11    1    4    4    0    0  0.84506643427E+02  0.30383263820E+02 -0.30047030652E+03  0.31360312595E+03  0.00000000000E+00 0.  1.
         12    1    4    4    0    0  0.79886916430E+01  0.15017872268E+01 -0.47897911832E+00  0.81427255902E+01  0.00000000000E+00 0. -1.
         -5    1    5    5    0  502 -0.43406860247E+02 -0.46781505215E+02 -0.35332153037E+03  0.35906943419E+03  0.47000000000E+01 0.  1.
         13    1    6    6    0    0 -0.40789422310E+02  0.34639423014E+01 -0.12367489229E+03  0.13027376886E+03  0.00000000000E+00 0. -1.
        -14    1    6    6    0    0 -0.14629595123E+02  0.94952463977E+02 -0.44596079476E+03  0.45619187403E+03  0.00000000000E+00 0.  1.
</event>
<event>
12    1  0.1050869E+000  0.2430800E+03  0.7818608E-02  0.1117842E+00
         21   -1    0    0  503  502  0.00000000000E+00  0.00000000000E+00  0.87606245223E+02  0.87606245223E+02  0.00000000000E+00 0.  1.
         21   -1    0    0  501  503 -0.00000000000E+00 -0.00000000000E+00 -0.67333018116E+03  0.67333018116E+03  0.00000000000E+00 0.  1.
          6    2    1    2  501    0  0.11121871145E+03  0.12954641164E+03 -0.28541868763E+03  0.37490227528E+03  0.17302027111E+03 0.  0.
         24    2    3    3    0    0  0.11144462668E+03  0.26969409718E+02 -0.14411389779E+03  0.20022764635E+03  0.78581428784E+02 0.  0.
         -6    2    1    2    0  502 -0.11121871145E+03 -0.12954641164E+03 -0.30030524831E+03  0.38603415110E+03  0.17229988134E+03 0.  0.
        -24    2    5    5    0    0 -0.96627485845E+02 -0.11756816881E+03 -0.31669345182E+03  0.36059706439E+03  0.81094729095E+02 0.  0.
          5    1    3    3  501    0 -0.22591522602E+00  0.10257700192E+03 -0.14130478983E+03  0.17467462893E+03  0.47000000000E+01 0. -1.
        -13    1    4    4    0    0  0.36195067024E+02 -0.27719349502E+02 -0.54593468655E+02  0.71125888630E+02  0.00000000000E+00 0.  1.
         14    1    4    4    0    0  0.75249559654E+02  0.54688759220E+02 -0.89520429137E+02  0.12910175772E+03  0.00000000000E+00 0. -1.
         -5    1    5    5    0  502 -0.14591225606E+02 -0.11978242834E+02  0.16388203510E+02  0.25437086711E+02  0.47000000000E+01 0.  1.
         13    1    6    6    0    0 -0.31208031257E+02 -0.28454566273E+02 -0.26003756201E+02  0.49596359678E+02  0.00000000000E+00 0. -1.
        -14    1    6    6    0    0 -0.65419454588E+02 -0.89113602532E+02 -0.29068969562E+03  0.31100070472E+03  0.00000000000E+00 0.  1.
</event>
<event>
12    1  0.1050869E+000  0.2300752E+03  0.7818608E-02  0.1129012E+00
         21   -1    0    0  503  502  0.00000000000E+00  0.00000000000E+00  0.30765912742E+03  0.30765912742E+03  0.00000000000E+00 0.  1.
         21   -1    0    0  501  503 -0.00000000000E+00 -0.00000000000E+00 -0.17030042245E+03  0.17030042245E+03  0.00000000000E+00 0.  1.
          6    2    1    2  501    0  0.94718598695E+02 -0.95871653848E+02  0.12269372616E+03  0.26074571697E+03  0.18647142281E+03 0.  0.
         24    2    3    3    0    0  0.49567719691E+01 -0.58121919084E+02  0.13179358453E+03  0.16283184954E+03  0.75775558299E+02 0.  0.
         -6    2    1    2    0  502 -0.94718598695E+02  0.95871653848E+02  0.14664978809E+02  0.21721383290E+03  0.16971682489E+03 0.  0.
        -24    2    5    5    0    0 -0.44696051180E+02  0.51948233570E+02 -0.54972750246E+02  0.12076164051E+03  0.82855383578E+02 0.  0.
          5    1    3    3  501    0  0.89761826726E+02 -0.37749734764E+02 -0.90998583660E+01  0.97913867425E+02  0.47000000000E+01 0. -1.
        -13    1    4    4    0    0 -0.15180543423E+02 -0.51497008998E+02  0.35809389372E+02  0.64534511709E+02  0.00000000000E+00 0.  1.
         14    1    4    4    0    0  0.20137315392E+02 -0.66249100864E+01  0.95984195159E+02  0.98297337833E+02  0.00000000000E+00 0. -1.
         -5    1    5    5    0  502 -0.50022547515E+02  0.43923420278E+02  0.69637729055E+02  0.96452192389E+02  0.47000000000E+01 0.  1.
         13    1    6    6    0    0 -0.62734286842E+02  0.60515928319E+02 -0.48607885502E+02  0.99802278827E+02  0.00000000000E+00 0. -1.
        -14    1    6    6    0    0  0.18038235662E+02 -0.85676947491E+01 -0.63648647438E+01  0.20959361687E+02  0.00000000000E+00 0.  1.
</event>
<event>
12    1  0.1050869E+000  0.4664326E+03  0.7818608E-02  0.1023174E+00
         21   -1    0    0  501  502  0.00000000000E+00  0.00000000000E+00  0.57151604397E+03  0.57151604397E+03  0.00000000000E+00 0.  1.
         21   -1    0    0  502  503 -0.00000000000E+00 -0.00000000000E+00 -0.61538395749E+03  0.61538395749E+03  0.00000000000E+00 0. -1.
         -6    2    1    2    0  503  0.95574733662E+02  0.41933503269E+03 -0.39063306685E+03  0.60840244153E+03  0.18050744745E+03 0.  0.
        -24    2    3    3    0    0  0.11970096149E+03  0.41298207999E+03 -0.34810028677E+03  0.55886899567E+03  0.79235257969E+02 0.  0.
          6    2    1    2  501    0 -0.95574733662E+02 -0.41933503269E+03  0.34676515332E+03  0.57849755993E+03  0.17157201381E+03 0.  0.
         24    2    5    5    0    0  0.13913669060E+02 -0.14637630520E+03  0.12933263513E+03  0.21272007673E+03  0.83086025443E+02 0.  0.
          5    1    5    5  501    0 -0.10948840272E+03 -0.27295872750E+03  0.21743251819E+03  0.36577748320E+03  0.47000000000E+01 0. -1.
        -11    1    6    6    0    0  0.16863177751E+02 -0.13679601327E+03  0.14110955461E+03  0.19725471455E+03  0.00000000000E+00 0.  1.
         12    1    6    6    0    0 -0.29495086912E+01 -0.95802919300E+01 -0.11776919478E+02  0.15465362181E+02  0.00000000000E+00 0. -1.
         -5    1    3    3    0  503 -0.24126227823E+02  0.63529527070E+01 -0.42532780081E+02  0.49533445857E+02  0.47000000000E+01 0.  1.
         11    1    4    4    0    0  0.46687128057E+02  0.28917814238E+03 -0.22000063511E+03  0.36633859393E+03  0.00000000000E+00 0. -1.
        -12    1    4    4    0    0  0.73013833429E+02  0.12380393761E+03 -0.12809965166E+03  0.19253040174E+03  0.00000000000E+00 0.  1.
</event>
<event>
12    1  0.1050869E+000  0.1865127E+03  0.7818608E-02  0.1161712E+00
         21   -1    0    0  503  502  0.00000000000E+00  0.00000000000E+00  0.27057068156E+03  0.27057068156E+03  0.00000000000E+00 0. -1.
         21   -1    0    0  501  503 -0.00000000000E+00 -0.00000000000E+00 -0.13024695669E+03  0.13024695669E+03  0.00000000000E+00 0. -1.
          6    2    1    2  501    0  0.43843439698E+02 -0.59084010117E+02  0.94169610838E+02  0.20867919727E+03  0.17107286258E+03 0.  0.
         24    2    3    3    0    0 -0.84397674798E+01 -0.23416170165E+02  0.11445886106E+03  0.14204983262E+03  0.80360297236E+02 0.  0.
         -6    2    1    2    0  502 -0.43843439698E+02  0.59084010117E+02  0.46154114034E+02  0.19213844098E+03  0.17138789573E+03 0.  0.
        -24    2    5    5    0    0 -0.21337208117E+02  0.71107557432E+02 -0.29035132730E+02  0.11259845746E+03  0.79522402595E+02 0.  0.
          5    1    3    3  501    0  0.52283207178E+02 -0.35667839952E+02 -0.20289250220E+02  0.66629364654E+02  0.47000000000E+01 0. -1.
        -13    1    4    4    0    0  0.31244403059E+02 -0.26691496539E+02  0.38619263301E+02  0.56392341749E+02  0.00000000000E+00 0.  1.
         14    1    4    4    0    0 -0.39684170538E+02  0.32753263737E+01  0.75839597757E+02  0.85657490870E+02  0.00000000000E+00 0. -1.
         -5    1    5    5    0  502 -0.22506231581E+02 -0.12023547314E+02  0.75189246764E+02  0.79539983524E+02  0.47000000000E+01 0.  1.
         11    1    6    6    0    0  0.14913327975E+02  0.28253687338E+02 -0.44124173228E+02  0.54475874133E+02  0.00000000000E+00 0. -1.
        -12    1    6    6    0    0 -0.36250536092E+02  0.42853870093E+02  0.15089040497E+02  0.58122583322E+02  0.00000000000E+00 0.  1.
</event>
<event>
12    1  0.1050869E+000  0.2691247E+03  0.7818608E-02  0.1102288E+00
         21   -1    0    0  501  502  0.00000000000E+00  0.00000000000E+00  0.12962088217E+03  0.12962088217E+03  0.00000000000E+00 0.  1.
         21   -1    0    0  502  503 -0.00000000000E+00 -0.00000000000E+00 -0.61211571584E+03  0.61211571584E+03  0.00000000000E+00 0.  1.
         -6    2    1    2    0  503 -0.16893314510E+03  0.11340767600E+03 -0.12598894893E+03  0.29715539016E+03  0.17614880687E+03 0.  0.
        -24    2    3    3    0    0 -0.16338765968E+03  0.50690326922E+02 -0.13679073515E+03  0.23310082851E+03  0.79744933679E+02 0.  0.
          6    2    1    2  501    0  0.16893314510E+03 -0.11340767600E+03 -0.35650588474E+03  0.44458120784E+03  0.17075214794E+03 0.  0.
         24    2    5    5    0    0  0.16229502062E+03 -0.11993131718E+03 -0.36892256623E+03  0.42836743067E+03  0.81679870395E+02 0.  0.
          5    1    5    5  501    0  0.66381244799E+01  0.65236411844E+01  0.12416681492E+02  0.16213777172E+02  0.47000000000E+01 0. -1.
        -11    1    6    6    0    0  0.21635477823E+02 -0.25189505125E+01 -0.72924470528E+01  0.22969954209E+02  0.00000000000E+00 0.  1.
         12    1    6    6    0    0  0.14065954280E+03 -0.11741236667E+03 -0.36163011918E+03  0.40539747646E+03  0.00000000000E+00 0. -1.
         -5    1    3    3    0  503 -0.55454854145E+01  0.62717349074E+02  0.10801786214E+02  0.64054561655E+02  0.47000000000E+01 0.  1.
         11    1    4    4    0    0 -0.15783798557E+02 -0.73783318702E+01  0.72226704693E+01  0.18860939711E+02  0.00000000000E+00 0. -1.
        -12    1    4    4    0    0 -0.14760386113E+03  0.58068658792E+02 -0.14401340562E+03  0.21423988880E+03  0.00000000000E+00 0.  1.
</event>
<event>
12    1  0.1050869E+000  0.2589475E+03  0.7818608E-02  0.1108153E+00
         21   -1    0    0  501  502  0.00000000000E+00  0.00000000000E+00  0.27996166616E+03  0.27996166616E+03  0.00000000000E+00 0. -1.
         21   -1    0    0  502  503 -0.00000000000E+00 -0.00000000000E+00 -0.37312270292E+03  0.37312270292E+03  0.00000000000E+00 0. -1.
         -6    2    1    2    0  503 -0.16363256331E+03  0.10397034048E+03 -0.24378988758E+03  0.35565056647E+03  0.17166353331E+03 0.  0.
        -24    2    3    3    0    0 -0.26443610793E+02  0.83540455960E+02 -0.10120955324E+03  0.15667963739E+03  0.81405545106E+02 0.  0.
          6    2    1    2  501    0  0.16363256331E+03 -0.10397034048E+03  0.15062885082E+03  0.29743380261E+03  0.16790583302E+03 0.  0.
         24    2    5    5    0    0  0.11812259717E+03 -0.60377132917E+01  0.11982008445E+03  0.18503617554E+03  0.76760221979E+02 0.  0.
          5    1    5    5  501    0  0.45509966142E+02 -0.97932627185E+02  0.30808766373E+02  0.11239762707E+03  0.47000000000E+01 0. -1.
        -11    1    6    6    0    0  0.90604059881E+02 -0.20233386891E+02  0.43198228793E+02  0.10239420190E+03  0.00000000000E+00 0.  1.
         12    1    6    6    0    0  0.27518537289E+02  0.14195673599E+02  0.76621855653E+02  0.82641973640E+02  0.00000000000E+00 0. -1.
         -5    1    3    3    0  503 -0.13718895252E+03  0.20429884517E+02 -0.14258033435E+03  0.19897092907E+03  0.47000000000E+01 0.  1.
         13    1    4    4    0    0  0.15557977580E+02  0.92918705496E+01 -0.58573893387E+02  0.61313053351E+02  0.00000000000E+00 0. -1.
        -14    1    4    4    0    0 -0.42001588374E+02  0.74248585410E+02 -0.42635659849E+02  0.95366584043E+02  0.00000000000E+00 0.  1.
</event>
<event>
12    1  0.1050869E+000  0.1835802E+03  0.7818608E-02  0.1164669E+00
         21   -1    0    0  503  502  0.00000000000E+00  0.00000000000E+00  0.60173546770E+02  0.60173546770E+02  0.00000000000E+00 0. -1.
         21   -1    0    0  501  503 -0.00000000000E+00 -0.00000000000E+00 -0.56249241570E+03  0.56249241570E+03  0.00000000000E+00 0. -1.
          6    2    1    2  501    0  0.51259295072E+02  0.37380899318E+02 -0.21790362447E+03  0.28414903025E+03  0.17097904805E+03 0.  0.
         24    2    3    3    0    0  0.68368712437E+02  0.58375328742E+02 -0.78042061836E+02  0.14161185990E+03  0.76690257556E+02 0.  0.
         -6    2    1    2    0  502 -0.51259295072E+02 -0.37380899318E+02 -0.28441524446E+03  0.33851693221E+03  0.17226965824E+03 0.  0.
        -24    2    5    5    0    0 -0.23162179481E+02 -0.79606930193E+02 -0.25493970298E+03  0.27966641706E+03  0.79657408845E+02 0.  0.
          5    1    3    3  501    0 -0.17109417365E+02 -0.20994429424E+02 -0.13986156263E+03  0.14253717035E+03  0.47000000000E+01 0. -1.
        -13    1    4    4    0    0  0.35976595758E+02  0.24916589409E+02 -0.83947125290E+02  0.94669275452E+02  0.00000000000E+00 0.  1.
         14    1    4    4    0    0  0.32392116679E+02  0.33458739333E+02  0.59050634542E+01  0.46942584452E+02  0.00000000000E+00 0. -1.
         -5    1    5    5    0  502 -0.28097115591E+02  0.42226030875E+02 -0.29475541478E+02  0.58850515150E+02  0.47000000000E+01 0.  1.
         11    1    6    6    0    0 -0.28770518222E+02 -0.44295252072E+02 -0.23021386331E+03  0.23619533216E+03  0.00000000000E+00 0. -1.
        -12    1    6    6    0    0  0.56083387415E+01 -0.35311678120E+02 -0.24725839672E+02  0.43471084902E+02  0.00000000000E+00 0.  1.
</event>
<event>
12    1  0.1050869E+000  0.2269796E+03  0.7818608E-02  0.1128886E+00
         21   -1    0    0  503  502  0.00000000000E+00  0.00000000000E+00  0.14223086345E+04  0.14223086345E+04  0.00000000000E+00 0.  1.
         21   -1    0    0  501  503 -0.00000000000E+00 -0.00000000000E+00 -0.36700466584E+02  0.36700466584E+02  0.00000000000E+00 0.  1.
          6    2    1    2  501    0 -0.14404595765E+03 -0.33345546992E+02  0.60116995244E+03  0.64239228001E+03  0.17146826612E+03 0.  0.
         24    2    3    3    0    0 -0.15593977679E+03 -0.31335700361E+01  0.38419632339E+03  0.42295237437E+03  0.83395820232E+02 0.  0.
         -6    2    1    2    0  502  0.14404595765E+03  0.33345546992E+02  0.78443821544E+03  0.81661682104E+03  0.17221659366E+03 0.  0.
        -24    2    5    5    0    0  0.14707925616E+03 -0.23726978460E+02  0.53475285640E+03  0.56043067274E+03  0.76984702466E+02 0.  0.
          5    1    3    3  501    0  0.11893819144E+02 -0.30211976956E+02  0.21697362905E+03  0.21943990564E+03  0.47000000000E+01 0. -1.
        -11    1    4    4    0    0 -0.43543651332E+02  0.32612373682E+02  0.16918681643E+03  0.17771830334E+03  0.00000000000E+00 0.  1.
         12    1    4    4    0    0 -0.11239612546E+03 -0.35745943718E+02  0.21500950696E+03  0.24523407103E+03  0.00000000000E+00 0. -1.
         -5    1    5    5    0  502 -0.30332985119E+01  0.57072525452E+02  0.24968535904E+03  0.25618614830E+03  0.47000000000E+01 0.  1.
         11    1    6    6    0    0  0.58880341819E+02 -0.42329862018E+02  0.17232153436E+03  0.18695834583E+03  0.00000000000E+00 0. -1.
        -12    1    6    6    0    0  0.88198914343E+02  0.18602883558E+02  0.36243132205E+03  0.37347232691E+03  0.00000000000E+00 0.  1.
</event>
<event>
12    1  0.1050869E+000  0.1738733E+03  0.7818608E-02  0.1174594E+00
         21   -1    0    0  501  502  0.00000000000E+00  0.00000000000E+00  0.12588234372E+03  0.12588234372E+03  0.00000000000E+00 0.  1.
         21   -1    0    0  502  503 -0.00000000000E+00 -0.00000000000E+00 -0.38207959193E+03  0.38207959193E+03  0.00000000000E+00 0.  1.
         -6    2    1    2    0  503  0.72015405933E+01  0.27685329671E+02  0.28155020114E+02  0.17613808023E+03  0.17150387309E+03 0.  0.
        -24    2    3    3    0    0  0.45577852015E+02  0.58352752831E+02  0.53505726709E+02  0.12065853043E+03  0.78824068770E+02 0.  0.
          6    2    1    2  501    0 -0.72015405933E+01 -0.27685329671E+02 -0.28435226833E+03  0.33182385542E+03  0.16861944981E+03 0.  0.
         24    2    5    5    0    0  0.35248207341E+02 -0.21138967300E+02 -0.71256221277E+02  0.11439144930E+03  0.79490015372E+02 0.  0.
          5    1    5    5  501    0 -0.42449747934E+02 -0.65463623710E+01 -0.21309604705E+03  0.21743240611E+03  0.47000000000E+01 0. -1.
        -11    1    6    6    0    0 -0.92817529390E+01  0.23412523513E+02 -0.29641259326E+02  0.38896033851E+02  0.00000000000E+00 0.  1.
         12    1    6    6    0    0  0.44529960280E+02 -0.44551490814E+02 -0.41614961951E+02  0.75495415453E+02  0.00000000000E+00 0. -1.
         -5    1    3    3    0  503 -0.38376311421E+02 -0.30667423160E+02 -0.25350706596E+02  0.55479549804E+02  0.47000000000E+01 0.  1.
         13    1    4    4    0    0  0.60363362614E+02  0.17268105127E+02  0.20929616334E+02  0.66181355688E+02  0.00000000000E+00 0. -1.
        -14    1    4    4    0    0 -0.14785510600E+02  0.41084647703E+02  0.32576110376E+02  0.54477174742E+02  0.00000000000E+00 0.  1.
</event>
<event>
12    1  0.1050869E+000  0.2512176E+03  0.7818608E-02  0.1112648E+00
         21   -1    0    0  501  502  0.00000000000E+00  0.00000000000E+00  0.25879517176E+03  0.25879517176E+03  0.00000000000E+00 0. -1.
         21   -1    0    0  502  503 -0.00000000000E+00 -0.00000000000E+00 -0.24679895365E+03  0.24679895365E+03  0.00000000000E+00 0. -1.
         -6    2    1    2    0  503  0.68510854259E+02 -0.16918558293E+03 -0.24625780482E+02  0.25172125460E+03  0.17157990073E+03 0.  0.
        -24    2    3    3    0    0 -0.12649091345E+02 -0.74656217202E+02 -0.54676569096E+02  0.12347197526E+03  0.80760455600E+02 0.  0.
          6    2    1    2  501    0 -0.68510854259E+02  0.16918558293E+03  0.36621998589E+02  0.25387287081E+03  0.17260580852E+03 0.  0.
         24    2    5    5    0    0 -0.10046602674E+03  0.17129447131E+03  0.47661338554E+02  0.21967436960E+03  0.80932113761E+02 0.  0.
          5    1    5    5  501    0  0.31955172478E+02 -0.21088883817E+01 -0.11039339965E+02  0.34198501213E+02  0.47000000000E+01 0. -1.
        -13    1    6    6    0    0 -0.69452207517E+02  0.41311487318E+02  0.17945188810E+02  0.82778487029E+02  0.00000000000E+00 0.  1.
         14    1    6    6    0    0 -0.31013819220E+02  0.12998298399E+03  0.29716149745E+02  0.13689588257E+03  0.00000000000E+00 0. -1.
         -5    1    3    3    0  503  0.81159945604E+02 -0.94529365725E+02  0.30050788614E+02  0.12824927934E+03  0.47000000000E+01 0.  1.
         13    1    4    4    0    0 -0.22852864318E+02 -0.88860965940E+02 -0.52855116483E+02  0.10588761974E+03  0.00000000000E+00 0. -1.
        -14    1    4    4    0    0  0.10203772974E+02  0.14204748739E+02 -0.18214526130E+01  0.17584355526E+02  0.00000000000E+00 0.  1.
</event>
<event>
12    1  0.1050869E+000  0.3865209E+03  0.7818608E-02  0.1048574E+00
         21   -1    0    0  501  502  0.00000000000E+00  0.00000000000E+00  0.10617523391E+04  0.10617523391E+04  0.00000000000E+00 0.  1.
         21   -1    0    0  502  503 -0.00000000000E+00 -0.00000000000E+00 -0.20978388993E+03  0.20978388993E+03  0.00000000000E+00 0.  1.
         -6    2    1    2    0  503  0.16862762717E+03  0.30301994585E+03  0.79095589759E+03  0.88022953409E+03  0.17010713250E+03 0.  0.
        -24    2    3    3    0    0  0.53451578754E+02  0.13913956569E+03  0.49587744130E+03  0.52355645338E+03  0.77459880488E+02 0.  0.
          6    2    1    2  501    0 -0.16862762717E+03 -0.30301994585E+03  0.61012551625E+02  0.39130669498E+03  0.17071038004E+03 0.  0.
         24    2    5    5    0    0 -0.11137945945E+03 -0.29559818515E+03  0.65762744629E+02  0.33319396339E+03  0.83125252516E+02 0.  0.
          5    1    5    5  501    0 -0.57248167722E+02 -0.74217606975E+01 -0.47501930036E+01  0.58112731591E+02  0.47000000000E+01 0. -1.
        -11    1    6    6    0    0 -0.60778997698E+01 -0.92157127700E+00 -0.95268363443E+01  0.11338023195E+02  0.00000000000E+00 0.  1.
         12    1    6    6    0    0 -0.10530155968E+03 -0.29467661387E+03  0.75289580973E+02  0.32185594019E+03  0.00000000000E+00 0. -1.
         -5    1    3    3    0  503  0.11517604842E+03  0.16388038016E+03  0.29507845629E+03  0.35667308071E+03  0.47000000000E+01 0.  1.
         11    1    4    4    0    0  0.57275736451E+01  0.88053929289E+02  0.18570390517E+03  0.20560213997E+03  0.00000000000E+00 0. -1.
        -12    1    4    4    0    0  0.47724005109E+02  0.51085636397E+02  0.31017353612E+03  0.31795431342E+03  0.00000000000E+00 0.  1.
</event>
<event>
12    1  0.1050869E+000  0.1858273E+03  0.7818608E-02  0.1162377E+00
         21   -1    0    0  501  502  0.00000000000E+00  0.00000000000E+00  0.41781695895E+02  0.41781695895E+02  0.00000000000E+00 0.  1.
         21   -1    0    0  502  503 -0.00000000000E+00 -0.00000000000E+00 -0.87281698508E+03  0.87281698508E+03  0.00000000000E+00 0.  1.
         -6    2    1    2    0  503  0.67073670041E+02  0.65328060364E+01 -0.52252924968E+03  0.55444906684E+03  0.17272925689E+03 0.  0.
        -24    2    3    3    0    0  0.90044057539E+02 -0.29734839130E+02 -0.47188328263E+03  0.48789018489E+03  0.79817962494E+02 0.  0.
          6    2    1    2  501    0 -0.67073670041E+02 -0.65328060364E+01 -0.30850603950E+03  0.36014961413E+03  0.17317682691E+03 0.  0.
         24    2    5    5    0    0 -0.24040233925E+02 -0.53516886224E+02 -0.26632458709E+03  0.28359410915E+03  0.77812872318E+02 0.  0.
          5    1    5    5  501    0 -0.43033436116E+02  0.46984080187E+02 -0.42181452418E+02  0.76555504982E+02  0.47000000000E+01 0. -1.
        -11    1    6    6    0    0 -0.33682596999E+02 -0.31507656486E+01 -0.18028542792E+03  0.18343194974E+03  0.00000000000E+00 0.  1.
         12    1    6    6    0    0  0.96423630734E+01 -0.50366120575E+02 -0.86039159168E+02  0.10016215941E+03  0.00000000000E+00 0. -1.
         -5    1    3    3    0  503 -0.22970387498E+02  0.36267645166E+02 -0.50645967053E+02  0.66558881950E+02  0.47000000000E+01 0.  1.
         11    1    4    4    0    0  0.68389946198E+02  0.54796225412E-01 -0.41163311415E+03  0.41727569832E+03  0.00000000000E+00 0. -1.
        -12    1    4    4    0    0  0.21654111340E+02 -0.29789635355E+02 -0.60250168477E+02  0.70614486573E+02  0.00000000000E+00 0.  1.
</event>
<event>
12    1  0.1050869E+000  0.1908436E+03  0.7818608E-02  0.1158186E+00
         21   -1    0    0  503  502  0.00000000000E+00  0.00000000000E+00  0.10851359233E+03  0.10851359233E+03  0.00000000000E+00 0.  1.
         21   -1    0    0  501  503 -0.00000000000E+00 -0.00000000000E+00 -0.33901990946E+03  0.33901990946E+03  0.00000000000E+00 0.  1.
          6    2    1    2  501    0  0.46214458062E+02  0.66991487124E+02 -0.14708703423E+03  0.23925474219E+03  0.17024864329E+03 0.  0.
         24    2    3    3    0    0 -0.32762504447E+02  0.11725097961E+02 -0.42000738038E+02  0.96576944247E+02  0.79700593125E+02 0.  0.
         -6    2    1    2    0  502 -0.46214458062E+02 -0.66991487124E+02 -0.83419282894E+02  0.20827875960E+03  0.17261989880E+03 0.  0.
        -24    2    5    5    0    0 -0.74463130421E+02 -0.88484828726E+02 -0.31638227478E+02  0.14532386366E+03  0.82120187559E+02 0.  0.
          5    1    3    3  501    0  0.78976962509E+02  0.55266389163E+02 -0.10508629619E+03  0.14267779794E+03  0.47000000000E+01 0. -1.
        -13    1    4    4    0    0 -0.30957316830E+01  0.24536875709E+02 -0.56108044742E+02  0.61316837076E+02  0.00000000000E+00 0.  1.
         14    1    4    4    0    0 -0.29666772764E+02 -0.12811777748E+02  0.14107306703E+02  0.35260107171E+02  0.00000000000E+00 0. -1.
         -5    1    5    5    0  502  0.28248672358E+02  0.21493341601E+02 -0.51781055416E+02  0.62954895943E+02  0.47000000000E+01 0.  1.
         13    1    6    6    0    0 -0.56246819798E+02 -0.75314004377E+02 -0.58175587069E+02  0.11054547898E+03  0.00000000000E+00 0. -1.
        -14    1    6    6    0    0 -0.18216310623E+02 -0.13170824349E+02  0.26537359592E+02  0.34778384678E+02  0.00000000000E+00 0.  1.
</event>
<event>
12    1  0.1050869E+000  0.2184299E+03  0.7818608E-02  0.1135971E+00
         21   -1    0    0  501  502  0.00000000000E+00  0.00000000000E+00  0.89456711575E+02  0.89456711575E+02  0.00000000000E+00 0.  1.
         21   -1    0    0  502  503 -0.00000000000E+00 -0.00000000000E+00 -0.59630495621E+03  0.59630495621E+03  0.00000000000E+00 0.  1.
         -6    2    1    2    0  503 -0.11957363246E+03  0.37432159525E+02 -0.37222836062E+03  0.42917999324E+03  0.17303899560E+03 0.  0.
        -24    2    3    3    0    0  0.30622449839E+01  0.35726658144E+02 -0.13281868955E+03  0.16014180306E+03  0.81968416766E+02 0.  0.
          6    2    1    2  501    0  0.11957363246E+03 -0.37432159525E+02 -0.13461988401E+03  0.25658167454E+03  0.17892071538E+03 0.  0.
         24    2    5    5    0    0  0.83316757342E+02  0.91680383768E+01 -0.15378528956E+03  0.19432782159E+03  0.84188193814E+02 0.  0.
          5    1    5    5  501    0  0.36256875122E+02 -0.46600197901E+02  0.19165405545E+02  0.62253852955E+02  0.47000000000E+01 0. -1.
        -13    1    6    6    0    0 -0.93565391548E+01 -0.56885455062E+00 -0.64821446646E+02  0.65495712575E+02  0.00000000000E+00 0.  1.
         14    1    6    6    0    0  0.92673296497E+02  0.97368929274E+01 -0.88963842912E+02  0.12883210901E+03  0.00000000000E+00 0. -1.
         -5    1    3    3    0  503 -0.12263587745E+03  0.17055013805E+01 -0.23940967107E+03  0.26903819018E+03  0.47000000000E+01 0.  1.
         11    1    4    4    0    0 -0.36156156152E+02  0.14939109528E+01 -0.67780997968E+02  0.76835949159E+02  0.00000000000E+00 0. -1.
        -12    1    4    4    0    0  0.39218401136E+02  0.34232747191E+02 -0.65037691581E+02  0.83305853901E+02  0.00000000000E+00 0.  1.
</event>
<event>
12    1  0.1050869E+000  0.1797353E+03  0.7818608E-02  0.1168814E+00
         21   -1    0    0  503  502  0.00000000000E+00  0.00000000000E+00  0.12617412254E+03  0.12617412254E+03  0.00000000000E+00 0.  1.
         21   -1    0    0  501  503 -0.00000000000E+00 -0.00000000000E+00 -0.28028129600E+03  0.28028129600E+03  0.00000000000E+00 0.  1.
          6    2    1    2  501    0  0.52979274752E+02  0.12591304805E+02 -0.14139347349E+03  0.22627101006E+03  0.16805091829E+03 0.  0.
         24    2    3    3    0    0 -0.31167300044E+01 -0.31704940665E+02 -0.24220972015E+02  0.88937823196E+02  0.79425207844E+02 0.  0.
         -6    2    1    2    0  502 -0.52979274752E+02 -0.12591304805E+02 -0.12713699971E+02  0.18018440848E+03  0.17128758969E+03 0.  0.
        -24    2    5    5    0    0 -0.85739366652E+02  0.31873884772E+02 -0.25751546182E+02  0.12324187483E+03  0.78474416568E+02 0.  0.
          5    1    3    3  501    0  0.56096004757E+02  0.44296245470E+02 -0.11717250147E+03  0.13733318686E+03  0.47000000000E+01 0. -1.
        -13    1    4    4    0    0 -0.25300199017E+01  0.56233232953E+00  0.27690952598E+02  0.27811977171E+02  0.00000000000E+00 0.  1.
         14    1    4    4    0    0 -0.58671010274E+00 -0.32267272994E+02 -0.51911924613E+02  0.61125846025E+02  0.00000000000E+00 0. -1.
         -5    1    5    5    0  502  0.32760091900E+02 -0.44465189577E+02  0.13037846211E+02  0.56942533656E+02  0.47000000000E+01 0.  1.
         13    1    6    6    0    0 -0.53173956448E+02  0.21115868474E+00  0.21812475223E+02  0.57474327379E+02  0.00000000000E+00 0. -1.
        -14    1    6    6    0    0 -0.32565410204E+02  0.31662726087E+02 -0.47564021405E+02  0.65767547447E+02  0.00000000000E+00 0.  1.
</event>
<event>
12    1  0.1050869E+000  0.2295418E+03  0.7818608E-02  0.1127130E+00
         21   -1    0    0  501  502  0.00000000000E+00  0.00000000000E+00  0.32342325686E+02  0.32342325686E+02  0.00000000000E+00 0.  1.
         21   -1    0    0  502  503 -0.00000000000E+00 -0.00000000000E+00 -0.16377514949E+04  0.16377514949E+04  0.00000000000E+00 0.  1.
         -6    2    1    2    0  503 -0.14149222460E+03 -0.50740700103E+02 -0.72024111800E+03  0.75564758351E+03  0.17222466178E+03 0.  0.
        -24    2    3    3    0    0 -0.19639511010E+02  0.18097977154E+02 -0.16730054711E+03  0.18525104404E+03  0.74934832251E+02 0.  0.
          6    2    1    2  501    0  0.14149222460E+03  0.50740700103E+02 -0.88516805124E+03  0.91444623710E+03  0.17347845214E+03 0.  0.
         24    2    5    5    0    0  0.85157519063E+01 -0.11049232706E+02 -0.22028118074E+03  0.23356638086E+03  0.76386203622E+02 0.  0.
          5    1    5    5  501    0  0.13297647270E+03  0.61789932810E+02 -0.66488687049E+03  0.68087985625E+03  0.47000000000E+01 0. -1.
        -13    1    6    6    0    0  0.11394318793E+02  0.31909901699E+02 -0.81593589375E+02  0.88349228374E+02  0.00000000000E+00 0.  1.
         14    1    6    6    0    0 -0.28785668868E+01 -0.42959134406E+02 -0.13868759137E+03  0.14521715249E+03  0.00000000000E+00 0. -1.
         -5    1    3    3    0  503 -0.12185271359E+03 -0.68838677258E+02 -0.55294057090E+03  0.57039653947E+03  0.47000000000E+01 0.  1.
         13    1    4    4    0    0 -0.36448808145E+02 -0.84794609505E+01 -0.13532111003E+03  0.14040021258E+03  0.00000000000E+00 0. -1.
        -14    1    4    4    0    0  0.16809297134E+02  0.26577438105E+02 -0.31979437074E+02  0.44850831452E+02  0.00000000000E+00 0.  1.
</event>
<event>
12    1  0.1050869E+000  0.1758032E+03  0.7818608E-02  0.1172217E+00
         21   -1    0    0  503  502  0.00000000000E+00  0.00000000000E+00  0.68718252592E+03  0.68718252592E+03  0.00000000000E+00 0. -1.
         21   -1    0    0  501  503 -0.00000000000E+00 -0.00000000000E+00 -0.59280057976E+02  0.59280057976E+02  0.00000000000E+00 0. -1.
          6    2    1    2  501    0 -0.30231073100E+02 -0.87474677019E+01  0.49838993880E+03  0.52810447909E+03  0.17178874750E+03 0.  0.
         24    2    3    3    0    0 -0.70625604768E+02  0.36438002488E+02  0.34333574233E+03  0.36155917370E+03  0.80807796978E+02 0.  0.
         -6    2    1    2    0  502  0.30231073100E+02  0.87474677019E+01  0.12951252914E+03  0.21835810480E+03  0.17296337981E+03 0.  0.
        -24    2    5    5    0    0  0.15954595543E+02 -0.38669061159E+02  0.12996425406E+02  0.91668573068E+02  0.80525615832E+02 0.  0.
          5    1    3    3  501    0  0.40394531668E+02 -0.45185470190E+02  0.15505419647E+03  0.16654530539E+03  0.47000000000E+01 0. -1.
        -13    1    4    4    0    0  0.17019034634E+02 -0.21510498313E+01  0.64248361213E+02  0.66499071225E+02  0.00000000000E+00 0.  1.
         14    1    4    4    0    0 -0.87644639402E+02  0.38589052319E+02  0.27908738112E+03  0.29506010248E+03  0.00000000000E+00 0. -1.
         -5    1    5    5    0  502  0.14276477557E+02  0.47416528861E+02  0.11651610374E+03  0.12668953173E+03  0.47000000000E+01 0.  1.
         13    1    6    6    0    0  0.13596580766E+02  0.23201119262E+02 -0.46436513074E+01  0.27289603167E+02  0.00000000000E+00 0. -1.
        -14    1    6    6    0    0  0.23580147769E+01 -0.61870180422E+02  0.17640076713E+02  0.64378969901E+02  0.00000000000E+00 0.  1.
</event>
<event>
12    1  0.1050869E+000  0.3108208E+03  0.7818608E-02  0.1080105E+00
         21   -1    0    0  501  502  0.00000000000E+00  0.00000000000E+00  0.33366961330E+03  0.33366961330E+03  0.00000000000E+00 0. -1.
         21   -1    0    0  502  503 -0.00000000000E+00 -0.00000000000E+00 -0.77026942417E+03  0.77026942417E+03  0.00000000000E+00 0. -1.
         -6    2    1    2    0  503 -0.19415592516E+02 -0.25614333991E+03 -0.65506202886E+03  0.72506265608E+03  0.17499490785E+03 0.  0.
        -24    2    3    3    0    0 -0.32614650412E+02 -0.86080979909E+02 -0.33863636825E+03  0.36555923452E+03  0.10239781990E+03 0.  0.
          6    2    1    2  501    0  0.19415592516E+02  0.25614333991E+03  0.21846221799E+03  0.37887638140E+03  0.17272867706E+03 0.  0.
         24    2    5    5    0    0  0.46822656665E+02  0.93160667405E+02  0.43467496006E+02  0.13812808665E+03  0.79490087326E+02 0.  0.
          5    1    5    5  501    0 -0.27407064148E+02  0.16298267251E+03  0.17499472199E+03  0.24074829475E+03  0.47000000000E+01 0. -1.
        -13    1    6    6    0    0  0.25223638214E+02  0.74082897967E+02  0.65339570096E+02  0.10194982647E+03  0.00000000000E+00 0.  1.
         14    1    6    6    0    0  0.21599018451E+02  0.19077769438E+02 -0.21872074090E+02  0.36178260182E+02  0.00000000000E+00 0. -1.
         -5    1    3    3    0  503  0.13199057896E+02 -0.17006236000E+03 -0.31642566061E+03  0.35950342156E+03  0.47000000000E+01 0.  1.
         13    1    4    4    0    0  0.12111004518E+02 -0.74933319403E+02 -0.28452918317E+03  0.29448010945E+03  0.00000000000E+00 0. -1.
        -14    1    4    4    0    0 -0.44725654930E+02 -0.11147660506E+02 -0.54107185080E+02  0.71079125072E+02  0.00000000000E+00 0.  1.
</event>
<event>
12    1  0.1050869E+000  0.2130423E+03  0.7818608E-02  0.1139536E+00
         21   -1    0    0  503  502  0.00000000000E+00  0.00000000000E+00  0.10435025113E+03  0.10435025113E+03  0.00000000000E+00 0.  1.
         21   -1    0    0  501  503 -0.00000000000E+00 -0.00000000000E+00 -0.56220714512E+03  0.56220714512E+03  0.00000000000E+00 0.  1.
          6    2    1    2  501    0 -0.12300238692E+03  0.67721911926E+01 -0.67304875538E+02  0.22167773258E+03  0.17156812376E+03 0.  0.
         24    2    3    3    0    0 -0.59472962889E+02  0.28861175318E+02 -0.10219587019E+03  0.14576078819E+03  0.80201064427E+02 0.  0.
         -6    2    1    2    0  502  0.12300238692E+03 -0.67721911926E+01 -0.39055201845E+03  0.44487966367E+03  0.17381480452E+03 0.  0.
        -24    2    5    5    0    0  0.15642928488E+03 -0.13650250978E+02 -0.34883777270E+03  0.39077944637E+03  0.79776773065E+02 0.  0.
          5    1    3    3  501    0 -0.63529424028E+02 -0.22088984125E+02  0.34890994654E+02  0.75916944387E+02  0.47000000000E+01 0. -1.
        -11    1    4    4    0    0 -0.63607981269E+02 -0.59273892336E+01 -0.43107019571E+02  0.77067012143E+02  0.00000000000E+00 0.  1.
         12    1    4    4    0    0  0.41350183806E+01  0.34788564552E+02 -0.59088850621E+02  0.68693776052E+02  0.00000000000E+00 0. -1.
         -5    1    5    5    0  502 -0.33426897963E+02  0.68780597853E+01 -0.41714245747E+02  0.54100217302E+02  0.47000000000E+01 0.  1.
         13    1    6    6    0    0  0.69833483016E+02 -0.42016868733E+02 -0.12635291473E+03  0.15035688101E+03  0.00000000000E+00 0. -1.
        -14    1    6    6    0    0  0.86595801864E+02  0.28366617755E+02 -0.22248485798E+03  0.24042256536E+03  0.00000000000E+00 0.  1.
</event>
<event>
12    1  0.1050869E+000  0.1812606E+03  0.7818608E-02  0.1166856E+00
         21   -1    0    0  503  502  0.00000000000E+00  0.00000000000E+00  0.10963998356E+03  0.10963998356E+03  0.00000000000E+00 0. -1.
         21   -1    0    0  501  503 -0.00000000000E+00 -0.00000000000E+00 -0.37960241818E+03  0.37960241818E+03  0.00000000000E+00 0. -1.
          6    2    1    2  501    0  0.24851878373E+02  0.50855048419E+02 -0.21119137317E+02  0.18138142363E+03  0.17102441659E+03 0.  0.
         24    2    3    3    0    0 -0.34565591648E+02  0.67766253673E+02 -0.39020669104E+02  0.11689127363E+03  0.79711429365E+02 0.  0.
         -6    2    1    2    0  502 -0.24851878373E+02 -0.50855048419E+02 -0.24884329730E+03  0.30786097810E+03  0.17219623519E+03 0.  0.
        -24    2    5    5    0    0 -0.48289597240E+02  0.27636892691E+02 -0.11979594656E+03  0.15493740170E+03  0.80986706278E+02 0.  0.
          5    1    3    3  501    0  0.59417470021E+02 -0.16911205254E+02  0.17901531788E+02  0.64490150001E+02  0.47000000000E+01 0. -1.
        -11    1    4    4    0    0 -0.25242302112E+02  0.84665103560E+02 -0.21735450330E+02  0.90982324535E+02  0.00000000000E+00 0.  1.
         12    1    4    4    0    0 -0.93232895361E+01 -0.16898849888E+02 -0.17285218774E+02  0.25908949098E+02  0.00000000000E+00 0. -1.
         -5    1    5    5    0  502  0.23437718867E+02 -0.78491941110E+02 -0.12904735074E+03  0.15292357640E+03  0.47000000000E+01 0.  1.
         11    1    6    6    0    0 -0.56602141626E+02 -0.82407743402E+01 -0.93779757683E+02  0.10984696514E+03  0.00000000000E+00 0. -1.
        -12    1    6    6    0    0  0.83125443861E+01  0.35877667031E+02 -0.26016188878E+02  0.45090436564E+02  0.00000000000E+00 0.  1.
</event>
<event>
12    1  0.1344452E+000  0.3190971E+03  0.7818608E-02  0.1076379E+00
         21   -1    0    0  501  502  0.00000000000E+00  0.00000000000E+00  0.43662408152E+03  0.43662408152E+03  0.00000000000E+00 0.  1.
         21   -1    0    0  502  503 -0.00000000000E+00 -0.00000000000E+00 -0.30203413563E+03  0.30203413563E+03  0.00000000000E+00 0.  1.
         -6    2    1    2    0  503 -0.26798386895E+03 -0.21581673251E+02  0.24588691542E+03  0.40070858211E+03  0.16681088082E+03 0.  0.
        -24    2    3    3    0    0 -0.18321806988E+03  0.46100591832E+02  0.18292253566E+03  0.27519869079E+03  0.81114361636E+02 0.  0.
          6    2    1    2  501    0  0.26798386895E+03  0.21581673251E+02 -0.11129696953E+03  0.33794963505E+03  0.17187733348E+03 0.  0.
         24    2    5    5    0    0  0.14429239433E+03  0.28392132201E+02  0.65461212703E+01  0.16690856602E+03  0.78671528988E+02 0.  0.
          5    1    5    5  501    0  0.12369147462E+03 -0.68104589498E+01 -0.11784309080E+03  0.17104106903E+03  0.47000000000E+01 0. -1.
        -13    1    6    6    0    0  0.91903117416E+00 -0.13579268047E+02  0.10926844887E+02  0.17453855682E+02  0.00000000000E+00 0.  1.
         14    1    6    6    0    0  0.14337336316E+03  0.41971400249E+02 -0.43807236164E+01  0.14945471033E+03  0.00000000000E+00 0. -1.
         -5    1    3    3    0  503 -0.84765799070E+02 -0.67682265083E+02  0.62964379765E+02  0.12550989132E+03  0.47000000000E+01 0.  1.
         13    1    4    4    0    0 -0.11665035367E+03 -0.11970863510E+02  0.10338801844E+03  0.15633198310E+03  0.00000000000E+00 0. -1.
        -14    1    4    4    0    0 -0.66567716208E+02  0.58071455342E+02  0.79534517220E+02  0.11886670769E+03  0.00000000000E+00 0.  1.
</event>
<event>
12    1  0.1050869E+000  0.1864459E+03  0.7818608E-02  0.1161809E+00
         21   -1    0    0  503  502  0.00000000000E+00  0.00000000000E+00  0.18437627761E+04  0.18437627761E+04  0.00000000000E+00 0.  1.
         21   -1    0    0  501  503 -0.00000000000E+00 -0.00000000000E+00 -0.33938906941E+02  0.33938906941E+02  0.00000000000E+00 0.  1.
          6    2    1    2  501    0 -0.21087702824E+02  0.68851393139E+02  0.15311649990E+04  0.15424214644E+04  0.17150077044E+03 0.  0.
         24    2    3    3    0    0  0.53200646974E+02  0.25235517648E+02  0.76044482658E+03  0.76688759820E+03  0.79831784488E+02 0.  0.
         -6    2    1    2    0  502  0.21087702824E+02 -0.68851393139E+02  0.27865887024E+03  0.33528021868E+03  0.17197922411E+03 0.  0.
        -24    2    5    5    0    0  0.74108090291E+02 -0.30910986730E+02  0.13238461378E+03  0.17506510070E+03  0.81698258066E+02 0.  0.
          5    1    3    3  501    0 -0.74288349798E+02  0.43615875492E+02  0.77072017237E+03  0.77553386619E+03  0.47000000000E+01 0. -1.
        -11    1    4    4    0    0 -0.73692204053E+01 -0.15158773220E+02  0.50914396264E+02  0.53631796183E+02  0.00000000000E+00 0.  1.
         12    1    4    4    0    0  0.60569867379E+02  0.40394290868E+02  0.70953043032E+03  0.71325580202E+03  0.00000000000E+00 0. -1.
         -5    1    5    5    0  502 -0.53020387466E+02 -0.37940406409E+02  0.14627425646E+03  0.16021511798E+03  0.47000000000E+01 0.  1.
         13    1    6    6    0    0 -0.14428988697E+02  0.94315109234E+01  0.18809790385E+02  0.25513865396E+02  0.00000000000E+00 0. -1.
        -14    1    6    6    0    0  0.88537078987E+02 -0.40342497653E+02  0.11357482339E+03  0.14955123530E+03  0.00000000000E+00 0.  1.
</event>
<event>
12    1  0.1050869E+000  0.3465332E+03  0.7818608E-02  0.1064167E+00
         21   -1    0    0  503  502  0.00000000000E+00  0.00000000000E+00  0.25620033995E+03  0.25620033995E+03  0.00000000000E+00 0.  1.
         21   -1    0    0  501  503 -0.00000000000E+00 -0.00000000000E+00 -0.93727323186E+03  0.93727323186E+03  0.00000000000E+00 0.  1.
          6    2    1    2  501    0 -0.29464157915E+03 -0.59668797966E+02  0.81800630586E+02  0.35605700729E+03  0.17236943946E+03 0.  0.
         24    2    3    3    0    0 -0.19771155263E+03  0.28339150268E+02  0.41035454097E+02  0.21885380540E+03  0.79499145680E+02 0.  0.
         -6    2    1    2    0  502  0.29464157915E+03  0.59668797966E+02 -0.76287352250E+03  0.83741656452E+03  0.17004842131E+03 0.  0.
        -24    2    5    5    0    0  0.20704818915E+03  0.10629397870E+03 -0.50917829919E+03  0.56496498024E+03  0.75865182967E+02 0.  0.
          5    1    3    3  501    0 -0.96930026516E+02 -0.88007948234E+02  0.40765176489E+02  0.13720320188E+03  0.47000000000E+01 0. -1.
        -11    1    4    4    0    0 -0.11629001168E+03  0.43668147630E+02 -0.45252469790E+01  0.12430105307E+03  0.00000000000E+00 0.  1.
         12    1    4    4    0    0 -0.81421540951E+02 -0.15328997362E+02  0.45560701076E+02  0.94552752331E+02  0.00000000000E+00 0. -1.
         -5    1    5    5    0  502  0.87593390001E+02 -0.46625180735E+02 -0.25369522331E+03  0.27245158429E+03  0.47000000000E+01 0.  1.
         11    1    6    6    0    0  0.97495098326E+02  0.91464129933E+02 -0.29754810482E+03  0.32619910476E+03  0.00000000000E+00 0. -1.
        -12    1    6    6    0    0  0.10955309082E+03  0.14829848768E+02 -0.21163019437E+03  0.23876587548E+03  0.00000000000E+00 0.  1.
</event>
<event>
12    1  0.1050869E+000  0.1768979E+03  0.7818608E-02  0.1170862E+00
         21   -1    0    0  501  502  0.00000000000E+00  0.00000000000E+00  0.23760792973E+03  0.23760792973E+03  0.00000000000E+00 0. -1.
         21   -1    0    0  502  503 -0.00000000000E+00 -0.00000000000E+00 -0.13212016291E+03  0.13212016291E+03  0.00000000000E+00 0. -1.
         -6    2    1    2    0  503 -0.15374445558E+02 -0.36588633275E+02  0.63963221640E+02  0.18802182460E+03  0.17229570842E+03 0.  0.
        -24    2    3    3    0    0  0.97877506055E+01  0.44617973335E+02  0.87283882792E+01  0.86529825458E+02  0.72970283851E+02 0.  0.
          6    2    1    2  501    0  0.15374445558E+02  0.36588633275E+02  0.41524545184E+02  0.18170626804E+03  0.17238845185E+03 0.  0.
         24    2    5    5    0    0  0.18012565633E+02  0.33484054711E+02 -0.46769334339E+02  0.93193572646E+02  0.71077682203E+02 0.  0.
          5    1    5    5  501    0 -0.26381200745E+01  0.31045785637E+01  0.88293879523E+02  0.88512695399E+02  0.47000000000E+01 0. -1.
        -13    1    6    6    0    0  0.32761534565E+02  0.11021777984E+02  0.49417535843E+01  0.34917311831E+02  0.00000000000E+00 0.  1.
         14    1    6    6    0    0 -0.14748968932E+02  0.22462276727E+02 -0.51711087924E+02  0.58276260815E+02  0.00000000000E+00 0. -1.
         -5    1    3    3    0  503 -0.25162196164E+02 -0.81206606610E+02  0.55234833361E+02  0.10149199914E+03  0.47000000000E+01 0.  1.
         13    1    4    4    0    0  0.21796411113E+02  0.11202244436E+01  0.29628919650E+02  0.36799610322E+02  0.00000000000E+00 0. -1.
        -14    1    4    4    0    0 -0.12008660508E+02  0.43497748892E+02 -0.20900531371E+02  0.49730215136E+02  0.00000000000E+00 0.  1.
</event>
<event>
12    1  0.1050869E+000  0.2177314E+03  0.7818608E-02  0.1135805E+00
         21   -1    0    0  501  502  0.00000000000E+00  0.00000000000E+00  0.39375155840E+03  0.39375155840E+03  0.00000000000E+00 0. -1.
         21   -1    0    0  502  503 -0.00000000000E+00 -0.00000000000E+00 -0.20912425179E+03  0.20912425179E+03  0.00000000000E+00 0. -1.
         -6    2    1    2    0  503 -0.12243121341E+03 -0.54212286279E+02  0.28950561065E+03  0.36224363889E+03  0.17169327687E+03 0.  0.
        -24    2    3    3    0    0 -0.27967587435E+01 -0.14318897015E+02  0.16866923539E+03  0.18752270472E+03  0.80638707514E+02 0.  0.
          6    2    1    2  501    0  0.12243121341E+03  0.54212286279E+02 -0.10487830403E+03  0.24063217130E+03  0.17022340969E+03 0.  0.
         24    2    5    5    0    0  0.11172122337E+03  0.98152908164E+02 -0.92035469649E+02  0.19338272121E+03  0.82527111041E+02 0.  0.
          5    1    5    5  501    0  0.10709990040E+02 -0.43940621885E+02 -0.12842834384E+02  0.47249450085E+02  0.47000000000E+01 0. -1.
        -13    1    6    6    0    0  0.31030993924E+02  0.10472446670E+02 -0.62588748481E+02  0.70639550958E+02  0.00000000000E+00 0.  1.
         14    1    6    6    0    0  0.80690229450E+02  0.87680461494E+02 -0.29446721168E+02  0.12274317025E+03  0.00000000000E+00 0. -1.
         -5    1    3    3    0  503 -0.11963445467E+03 -0.39893389264E+02  0.12083637526E+03  0.17472093417E+03  0.47000000000E+01 0.  1.
         11    1    4    4    0    0  0.52832612499E+01  0.32029857854E+02  0.47435837389E+02  0.57480286294E+02  0.00000000000E+00 0. -1.
        -12    1    4    4    0    0 -0.80800199934E+01 -0.46348754869E+02  0.12123339800E+03  0.13004241843E+03  0.00000000000E+00 0.  1.
</event>
<event>
12    1  0.1050869E+000  0.2035165E+03  0.7818608E-02  0.1146891E+00
         21   -1    0    0  503  502  0.00000000000E+00  0.00000000000E+00  0.30916130308E+03  0.30916130308E+03  0.00000000000E+00 0. -1.
         21   -1    0    0  501  503 -0.00000000000E+00 -0.00000000000E+00 -0.15457230375E+03  0.15457230375E+03  0.00000000000E+00 0.  1.
          6    2    1    2  501    0 -0.97615012951E+02  0.48107217664E+02  0.16242997929E+03  0.26006614071E+03  0.17148732964E+03 0.  0.
         24    2    3    3    0    0 -0.73845414351E+02  0.97191463149E+02  0.96833050104E+02  0.17463017585E+03  0.78865283847E+02 0.  0.
         -6    2    1    2    0  502  0.97615012951E+02 -0.48107217664E+02 -0.78409799709E+01  0.20366746612E+03  0.17197662819E+03 0.  0.
        -24    2    5    5    0    0  0.75763051333E+02 -0.40917159898E+02  0.59907888512E+02  0.13196527412E+03  0.80072620448E+02 0.  0.
          5    1    3    3  501    0 -0.23769598600E+02 -0.49084245485E+02  0.65596929190E+02  0.85435964860E+02  0.47000000000E+01 0. -1.
        -11    1    4    4    0    0 -0.45651725883E+02  0.55196449030E+01  0.14464282732E+02  0.48205414954E+02  0.00000000000E+00 0.  1.
         12    1    4    4    0    0 -0.28193688468E+02  0.91671818246E+02  0.82368767372E+02  0.12642476090E+03  0.00000000000E+00 0. -1.
         -5    1    5    5    0  502  0.21851961618E+02 -0.71900577659E+01 -0.67748868482E+02  0.71702192002E+02  0.47000000000E+01 0.  1.
         13    1    6    6    0    0  0.70869735135E+02 -0.63056070417E+02  0.49844895351E+02  0.10715923183E+03  0.00000000000E+00 0. -1.
        -14    1    6    6    0    0  0.48933161976E+01  0.22138910519E+02  0.10062993160E+02  0.24806042283E+02  0.00000000000E+00 0.  1.
</event>
<event>
12    1  0.1050869E+000  0.2600919E+03  0.7818608E-02  0.1107292E+00
         21   -1    0    0  501  502  0.00000000000E+00  0.00000000000E+00  0.25871539514E+03  0.25871539514E+03  0.00000000000E+00 0.  1.
         21   -1    0    0  502  503 -0.00000000000E+00 -0.00000000000E+00 -0.14552337410E+04  0.14552337410E+04  0.00000000000E+00 0.  1.
         -6    2    1    2    0  503  0.71747469826E+02 -0.18124861870E+03 -0.13751563638E+04  0.13995366420E+04  0.17218892593E+03 0.  0.
        -24    2    3    3    0    0  0.70662747248E+02 -0.33543593854E+02 -0.50196314059E+03  0.51392586630E+03  0.77681432818E+02 0.  0.
          6    2    1    2  501    0 -0.71747469826E+02  0.18124861870E+03  0.17863801789E+03  0.31441249419E+03  0.17013204830E+03 0.  0.
         24    2    5    5    0    0 -0.20028242079E+02  0.69787944509E+02  0.14176485644E+02  0.10906389789E+03  0.80140335657E+02 0.  0.
          5    1    5    5  501    0 -0.51719227747E+02  0.11146067419E+03  0.16446153225E+03  0.20534859629E+03  0.47000000000E+01 0. -1.
        -11    1    6    6    0    0  0.59749295279E+01  0.16688608771E+02 -0.30282393440E+02  0.35088927000E+02  0.00000000000E+00 0.  1.
         12    1    6    6    0    0 -0.26003171607E+02  0.53099335738E+02  0.44458879084E+02  0.73974970894E+02  0.00000000000E+00 0. -1.
         -5    1    3    3    0  503  0.10847225781E+01 -0.14770502484E+03 -0.87319322318E+03  0.88561077568E+03  0.47000000000E+01 0.  1.
         13    1    4    4    0    0  0.63424085378E+02 -0.33750385519E+02 -0.21144465392E+03  0.22331713952E+03  0.00000000000E+00 0. -1.
        -14    1    4    4    0    0  0.72386618702E+01  0.20679166529E+00 -0.29051848667E+03  0.29060872678E+03  0.00000000000E+00 0.  1.
</event>
<event>
12    1  0.1050869E+000  0.2214918E+03  0.7818608E-02  0.1132806E+00
         21   -1    0    0  501  502  0.00000000000E+00  0.00000000000E+00  0.78622738974E+03  0.78622738974E+03  0.00000000000E+00 0. -1.
         21   -1    0    0  502  503 -0.00000000000E+00 -0.00000000000E+00 -0.64953051921E+02  0.64953051921E+02  0.00000000000E+00 0. -1.
         -6    2    1    2    0  503  0.11762392644E+03  0.74101017324E+02  0.44593964484E+03  0.49791644445E+03  0.17243047866E+03 0.  0.
        -24    2    3    3    0    0  0.85832850573E+02  0.49329418431E+00  0.12835422405E+03  0.17033231951E+03  0.71908070914E+02 0.  0.
          6    2    1    2  501    0 -0.11762392644E+03 -0.74101017324E+02  0.27533469298E+03  0.35326399722E+03  0.17222052645E+03 0.  0.
         24    2    5    5    0    0 -0.11624157519E+02 -0.76693156374E+02  0.10464121895E+03  0.15226394182E+03  0.78851518695E+02 0.  0.
          5    1    5    5  501    0 -0.10599976892E+03  0.25921390505E+01  0.17069347403E+03  0.20100005540E+03  0.47000000000E+01 0. -1.
        -13    1    6    6    0    0 -0.34359224830E+02 -0.53986241880E+01  0.43054468693E+02  0.55347888383E+02  0.00000000000E+00 0.  1.
         14    1    6    6    0    0  0.22735067311E+02 -0.71294532186E+02  0.61586750262E+02  0.96916053433E+02  0.00000000000E+00 0. -1.
         -5    1    3    3    0  503  0.31791075866E+02  0.73607723139E+02  0.31758542079E+03  0.32758412493E+03  0.47000000000E+01 0.  1.
         11    1    4    4    0    0 -0.12200706629E+02 -0.46748748552E+01  0.93734612368E+01  0.16080219921E+02  0.00000000000E+00 0. -1.
        -12    1    4    4    0    0  0.98033557202E+02  0.51681690395E+01  0.11898076281E+03  0.15425209959E+03  0.00000000000E+00 0.  1.
</event>
<event>
12    1  0.1050869E+000  0.1833048E+03  0.7818608E-02  0.1164734E+00
         21   -1    0    0  501  502  0.00000000000E+00  0.00000000000E+00  0.54369160694E+02  0.54369160694E+02  0.00000000000E+00 0.  1.
         21   -1    0    0  502  503 -0.00000000000E+00 -0.00000000000E+00 -0.96430256075E+03  0.96430256075E+03  0.00000000000E+00 0.  1.
         -6    2    1    2    0  503 -0.23393530067E+02 -0.55892009097E+02 -0.14886395540E+03  0.23583881355E+03  0.17259285857E+03 0.  0.
        -24    2    3    3    0    0 -0.79512564836E+02 -0.26142036081E+02 -0.11644881474E+03  0.16437386899E+03  0.80329249546E+02 0.  0.
          6    2    1    2  501    0  0.23393530067E+02  0.55892009097E+02 -0.76106944466E+03  0.78283290790E+03  0.17300141087E+03 0.  0.
         24    2    5    5    0    0  0.56731379954E+02 -0.13675568580E+02 -0.53573488121E+03  0.54461280887E+03  0.78649717010E+02 0.  0.
          5    1    5    5  501    0 -0.33337849887E+02  0.69567577676E+02 -0.22533456345E+03  0.23822009903E+03  0.47000000000E+01 0. -1.
        -13    1    6    6    0    0  0.36288543513E+02 -0.26625124411E+02 -0.11981924148E+03  0.12799377434E+03  0.00000000000E+00 0.  1.
         14    1    6    6    0    0  0.20442836442E+02  0.12949555831E+02 -0.41591563973E+03  0.41661903453E+03  0.00000000000E+00 0. -1.
         -5    1    3    3    0  503  0.56119034769E+02 -0.29749973016E+02 -0.32415140653E+02  0.71464944563E+02  0.47000000000E+01 0.  1.
         13    1    4    4    0    0 -0.71795676522E+02 -0.45066032575E+02 -0.11632787123E+03  0.14393658355E+03  0.00000000000E+00 0. -1.
        -14    1    4    4    0    0 -0.77168883139E+01  0.18923996494E+02 -0.12094351242E+00  0.20437285433E+02  0.00000000000E+00 0.  1.
</event>
<event>
12    1  0.1050869E+000  0.2699060E+03  0.7818608E-02  0.1101426E+00
         21   -1    0    0  501  502  0.00000000000E+00  0.00000000000E+00  0.15675021641E+04  0.15675021641E+04  0.00000000000E+00 0. -1.
         21   -1    0    0  502  503 -0.00000000000E+00 -0.00000000000E+00 -0.46390007902E+02  0.46390007902E+02  0.00000000000E+00 0. -1.
         -6    2    1    2    0  503 -0.75686987880E+02 -0.19309803764E+03  0.78094697696E+03  0.82627321314E+03  0.17272483797E+03 0.  0.
        -24    2    3    3    0    0 -0.20312746610E+02 -0.46987024342E+02  0.45534362860E+03  0.46508854394E+03  0.79681525223E+02 0.  0.
          6    2    1    2  501    0  0.75686987880E+02  0.19309803764E+03  0.74016517928E+03  0.78761895891E+03  0.17170835604E+03 0.  0.
         24    2    5    5    0    0  0.11704287929E+03  0.13876918007E+03  0.59675723885E+03  0.62871690764E+03  0.78802454900E+02 0.  0.
          5    1    5    5  501    0 -0.41355891411E+02  0.54328857568E+02  0.14340794043E+03  0.15890205127E+03  0.47000000000E+01 0. -1.
        -11    1    6    6    0    0  0.73052241368E+02  0.97099370805E+02  0.26578875213E+03  0.29224746113E+03  0.00000000000E+00 0.  1.
         12    1    6    6    0    0  0.43990637922E+02  0.41669809267E+02  0.33096848672E+03  0.33646944650E+03  0.00000000000E+00 0. -1.
         -5    1    3    3    0  503 -0.55374241269E+02 -0.14611101330E+03  0.32560334836E+03  0.36118466920E+03  0.47000000000E+01 0.  1.
         13    1    4    4    0    0  0.13186160189E+02  0.16550490343E+02  0.14534574726E+03  0.14687811204E+03  0.00000000000E+00 0. -1.
        -14    1    4    4    0    0 -0.33498906799E+02 -0.63537514685E+02  0.30999788135E+03  0.31821043190E+03  0.00000000000E+00 0.  1.
</event>
<event>
12    1  0.1050869E+000  0.2142168E+03  0.7818608E-02  0.1138380E+00
         21   -1    0    0  501  502  0.00000000000E+00  0.00000000000E+00  0.20604439547E+02  0.20604439547E+02  0.00000000000E+00 0.  1.
         21   -1    0    0  502  503 -0.00000000000E+00 -0.00000000000E+00 -0.26237855713E+04  0.26237855713E+04  0.00000000000E+00 0. -1.
         -6    2    1    2    0  503  0.35584142462E+02  0.12131072596E+03 -0.78513531155E+03  0.81383430914E+03  0.17293438602E+03 0.  0.
        -24    2    3    3    0    0  0.67741275791E+02  0.12059607905E+03 -0.45422835405E+03  0.48133454002E+03  0.78912908116E+02 0.  0.
          6    2    1    2  501    0 -0.35584142462E+02 -0.12131072596E+03 -0.18180458202E+04  0.18305557017E+04  0.17222383475E+03 0.  0.
         24    2    5    5    0    0  0.35641570043E+02 -0.27337420156E+02 -0.66089349549E+03  0.66740150861E+03  0.81405806038E+02 0.  0.
          5    1    5    5  501    0 -0.71225712505E+02 -0.93973305806E+02 -0.11571523247E+04  0.11631541931E+04  0.47000000000E+01 0. -1.
        -11    1    6    6    0    0 -0.11724527235E+02  0.29792976574E+01 -0.15989167976E+02  0.20049794163E+02  0.00000000000E+00 0.  1.
         12    1    6    6    0    0  0.47366097277E+02 -0.30316717813E+02 -0.64490432751E+03  0.64735171445E+03  0.00000000000E+00 0. -1.
         -5    1    3    3    0  503 -0.32157133329E+02  0.71464691212E+00 -0.33090695750E+03  0.33249976912E+03  0.47000000000E+01 0.  1.
         13    1    4    4    0    0  0.17814685808E+02  0.90419973416E+02 -0.34958546106E+03  0.36152887742E+03  0.00000000000E+00 0. -1.
        -14    1    4    4    0    0  0.49926589983E+02  0.30176105634E+02 -0.10464289299E+03  0.11980566260E+03  0.00000000000E+00 0.  1.
</event>
<event>
12    1  0.1050869E+000  0.1721841E+03  0.7818608E-02  0.1175870E+00
         21   -1    0    0  501  502  0.00000000000E+00  0.00000000000E+00  0.82148618810E+02  0.82148618810E+02  0.00000000000E+00 0. -1.
         21   -1    0    0  502  503 -0.00000000000E+00 -0.00000000000E+00 -0.11358654626E+04  0.11358654626E+04  0.00000000000E+00 0. -1.
         -6    2    1    2    0  503  0.34199049997E+02 -0.15342605654E+01 -0.23610045648E+02  0.17379526229E+03  0.16874664430E+03 0.  0.
        -24    2    3    3    0    0  0.23335453328E+02 -0.50770241590E+02 -0.59683547620E+02  0.11162141646E+03  0.75993775691E+02 0.  0.
          6    2    1    2  501    0 -0.34199049997E+02  0.15342605654E+01 -0.10301067982E+04  0.10442188191E+04  0.16763352186E+03 0.  0.
         24    2    5    5    0    0 -0.13816294730E+02  0.62701426963E+02 -0.71828986010E+03  0.72577137949E+03  0.81739912045E+02 0.  0.
          5    1    5    5  501    0 -0.20382755266E+02 -0.61167166398E+02 -0.31181693807E+03  0.31844743966E+03  0.47000000000E+01 0. -1.
        -11    1    6    6    0    0 -0.46640221497E+02  0.43104308586E+02 -0.37253831121E+03  0.37791280079E+03  0.00000000000E+00 0.  1.
         12    1    6    6    0    0  0.32823926767E+02  0.19597118377E+02 -0.34575154888E+03  0.34785857869E+03  0.00000000000E+00 0. -1.
         -5    1    3    3    0  503  0.10863596669E+02  0.49235981025E+02  0.36073501973E+02  0.62173845825E+02  0.47000000000E+01 0.  1.
         11    1    4    4    0    0 -0.34288242485E+01 -0.44365213900E+02  0.15114084337E+01  0.44523178184E+02  0.00000000000E+00 0. -1.
        -12    1    4    4    0    0  0.26764277577E+02 -0.64050276903E+01 -0.61194956054E+02  0.67098238280E+02  0.00000000000E+00 0.  1.
</event>
<event>
12    1  0.1050869E+000  0.2189371E+03  0.7818608E-02  0.1134835E+00
         21   -1    0    0  501  502  0.00000000000E+00  0.00000000000E+00  0.44011511941E+03  0.44011511941E+03  0.00000000000E+00 0.  1.
         21   -1    0    0  502  503 -0.00000000000E+00 -0.00000000000E+00 -0.11744768755E+03  0.11744768755E+03  0.00000000000E+00 0.  1.
         -6    2    1    2    0  503 -0.37533080795E+02 -0.12965310891E+03  0.84081517087E+02  0.23374696315E+03  0.17131631698E+03 0.  0.
        -24    2    3    3    0    0 -0.25985329228E+02 -0.11257330566E+03  0.12589761804E+03  0.18688816948E+03  0.75690099641E+02 0.  0.
          6    2    1    2  501    0  0.37533080795E+02  0.12965310891E+03  0.23858591477E+03  0.32381584382E+03  0.17237981661E+03 0.  0.
         24    2    5    5    0    0  0.73434290670E+02  0.94812121144E+02  0.99670211012E+02  0.17609159378E+03  0.81805654287E+02 0.  0.
          5    1    5    5  501    0 -0.35901209875E+02  0.34840987766E+02  0.13891570376E+03  0.14772425004E+03  0.47000000000E+01 0. -1.
        -11    1    6    6    0    0  0.83179808793E+02  0.45327712639E+02  0.65790462219E+02  0.11533372032E+03  0.00000000000E+00 0.  1.
         12    1    6    6    0    0 -0.97455181229E+01  0.49484408506E+02  0.33879748793E+02  0.60757873456E+02  0.00000000000E+00 0. -1.
         -5    1    3    3    0  503 -0.11547751566E+02 -0.17079803252E+02 -0.41816100949E+02  0.46858793667E+02  0.47000000000E+01 0.  1.
         11    1    4    4    0    0 -0.17794668680E+02 -0.10541771015E+03  0.65196342720E+02  0.12522023379E+03  0.00000000000E+00 0. -1.
        -12    1    4    4    0    0 -0.81906605483E+01 -0.71555955065E+01  0.60701275316E+02  0.61667935690E+02  0.00000000000E+00 0.  1.
</event>
<event>
12    1  0.1050869E+000  0.2314854E+03  0.7818608E-02  0.1125777E+00
         21   -1    0    0  501  502  0.00000000000E+00  0.00000000000E+00  0.68066019811E+02  0.68066019811E+02  0.00000000000E+00 0.  1.
         21   -1    0    0  502  503 -0.00000000000E+00 -0.00000000000E+00 -0.11648079613E+04  0.11648079613E+04  0.00000000000E+00 0.  1.
         -6    2    1    2    0  503 -0.15501546771E+03  0.32872402625E+01 -0.90174115661E+03  0.93097936986E+03  0.17188621938E+03 0.  0.
        -24    2    3    3    0    0 -0.15393024592E+03 -0.21967814545E+02 -0.88088246414E+03  0.89787090340E+03  0.77724758423E+02 0.  0.
          6    2    1    2  501    0  0.15501546771E+03 -0.32872402625E+01 -0.19500078489E+03  0.30189461126E+03  0.17051231340E+03 0.  0.
         24    2    5    5    0    0  0.94660946173E+02  0.20984762675E+01 -0.30889137913E+02  0.12689062020E+03  0.78625646710E+02 0.  0.
          5    1    5    5  501    0  0.60354521538E+02 -0.53857165300E+01 -0.16411164698E+03  0.17500399106E+03  0.47000000000E+01 0. -1.
        -13    1    6    6    0    0  0.96680228106E+02 -0.20419685708E+02 -0.16743968719E+02  0.10022170703E+03  0.00000000000E+00 0.  1.
         14    1    6    6    0    0 -0.20192819324E+01  0.22518161975E+02 -0.14145169194E+02  0.26668913172E+02  0.00000000000E+00 0. -1.
         -5    1    3    3    0  503 -0.10852217940E+01  0.25255054807E+02 -0.20858692471E+02  0.33108466459E+02  0.47000000000E+01 0.  1.
         11    1    4    4    0    0 -0.18207336913E+02  0.20760372177E+02 -0.85114266545E+02  0.89481498311E+02  0.00000000000E+00 0. -1.
        -12    1    4    4    0    0 -0.13572290900E+03 -0.42728186722E+02 -0.79576819759E+03  0.80838940509E+03  0.00000000000E+00 0.  1.
</event>
<event>
12    1  0.1050869E+000  0.1789395E+03  0.7818608E-02  0.1169044E+00
         21   -1    0    0  503  502  0.00000000000E+00  0.00000000000E+00  0.15256894262E+03  0.15256894262E+03  0.00000000000E+00 0.  1.
         21   -1    0    0  501  503 -0.00000000000E+00 -0.00000000000E+00 -0.60420344320E+03  0.60420344320E+03  0.00000000000E+00 0.  1.
          6    2    1    2  501    0  0.18943354407E+02  0.41714893385E+02 -0.53208242274E+03  0.56136533537E+03  0.17297500445E+03 0.  0.
         24    2    3    3    0    0 -0.74991651218E+01  0.51619554563E+02 -0.52196150600E+03  0.53100364721E+03  0.82463590267E+02 0.  0.
         -6    2    1    2    0  502 -0.18943354407E+02 -0.41714893385E+02  0.80447922153E+02  0.19540705045E+03  0.17208446815E+03 0.  0.
        -24    2    5    5    0    0 -0.26631375386E+02  0.36631635110E+02  0.63580099673E+02  0.11476030452E+03  0.84121290840E+02 0.  0.
          5    1    3    3  501    0  0.26442519529E+02 -0.99046611775E+01 -0.10120916737E+02  0.30361688156E+02  0.47000000000E+01 0. -1.
        -13    1    4    4    0    0  0.97547572326E-01  0.19670351048E+02 -0.20294926481E+02  0.28263337856E+02  0.00000000000E+00 0.  1.
         14    1    4    4    0    0 -0.75967126941E+01  0.31949203514E+02 -0.50166657952E+03  0.50274030936E+03  0.00000000000E+00 0. -1.
         -5    1    5    5    0  502  0.76880209789E+01 -0.78346528495E+02  0.16867822481E+02  0.80646745929E+02  0.47000000000E+01 0.  1.
         11    1    6    6    0    0 -0.29436623723E+02 -0.90000856192E+01  0.61760378212E+02  0.69006236488E+02  0.00000000000E+00 0. -1.
        -12    1    6    6    0    0  0.28052483367E+01  0.45631720729E+02  0.18197214604E+01  0.45754068028E+02  0.00000000000E+00 0.  1.
</event>
<event>
12    1  0.1050869E+000  0.3302936E+03  0.7818608E-02  0.1071047E+00
         21   -1    0    0  501  502  0.00000000000E+00  0.00000000000E+00  0.45514462118E+03  0.45514462118E+03  0.00000000000E+00 0. -1.
         21   -1    0    0  502  503 -0.00000000000E+00 -0.00000000000E+00 -0.23983850873E+03  0.23983850873E+03  0.00000000000E+00 0. -1.
         -6    2    1    2    0  503 -0.13659026329E+03 -0.24683194703E+03  0.12200048798E+03  0.35176336747E+03  0.17108605299E+03 0.  0.
        -24    2    3    3    0    0 -0.18452488412E+02 -0.16765579934E+03  0.81432925475E+02  0.20379981337E+03  0.80337296422E+02 0.  0.
          6    2    1    2  501    0  0.13659026329E+03  0.24683194703E+03  0.93305624467E+02  0.34321976244E+03  0.17178753060E+03 0.  0.
         24    2    5    5    0    0  0.14600932238E+03  0.26273691384E+03  0.89454882257E+02  0.32376199126E+03  0.80437820159E+02 0.  0.
          5    1    5    5  501    0 -0.94190590978E+01 -0.15904966808E+02  0.38507422092E+01  0.19457771172E+02  0.47000000000E+01 0. -1.
        -13    1    6    6    0    0  0.23902898678E+02  0.12357282485E+03  0.41237942396E+02  0.13244681763E+03  0.00000000000E+00 0.  1.
         14    1    6    6    0    0  0.12210642371E+03  0.13916408899E+03  0.48216939861E+02  0.19131517364E+03  0.00000000000E+00 0. -1.
         -5    1    3    3    0  503 -0.11813777487E+03 -0.79176147690E+02  0.40567562506E+02  0.14796355410E+03  0.47000000000E+01 0.  1.
         11    1    4    4    0    0 -0.18100050932E+02 -0.71024536975E+02 -0.59256789571E+01  0.73533736254E+02  0.00000000000E+00 0. -1.
        -12    1    4    4    0    0 -0.35243747987E+00 -0.96631262365E+02  0.87358604432E+02  0.13026607711E+03  0.00000000000E+00 0.  1.
</event>
<event>
12    1  0.1050869E+000  0.3444923E+03  0.7818608E-02  0.1065134E+00
         21   -1    0    0  503  502  0.00000000000E+00  0.00000000000E+00  0.55422362173E+03  0.55422362173E+03  0.00000000000E+00 0.  1.
         21   -1    0    0  501  503 -0.00000000000E+00 -0.00000000000E+00 -0.39618479001E+03  0.39618479001E+03  0.00000000000E+00 0.  1.
          6    2    1    2  501    0  0.28448491125E+03  0.90231825289E+02 -0.24447744364E+03  0.42060252821E+03  0.16752259329E+03 0.  0.
         24    2    3    3    0    0  0.30166317786E+03  0.88162918801E+02 -0.23097478943E+03  0.39815737531E+03  0.80041045929E+02 0.  0.
         -6    2    1    2    0  502 -0.28448491125E+03 -0.90231825289E+02  0.40251627535E+03  0.52980588353E+03  0.17205079273E+03 0.  0.
        -24    2    5    5    0    0 -0.28097030163E+03 -0.92257104531E+02  0.30627261571E+03  0.43336218878E+03  0.80896154406E+02 0.  0.
          5    1    3    3  501    0 -0.17178266612E+02  0.20689064879E+01 -0.13502654209E+02  0.22445152896E+02  0.47000000000E+01 0. -1.
        -13    1    4    4    0    0  0.20939127234E+03  0.94383546678E+02 -0.14326770297E+03  0.27070019123E+03  0.00000000000E+00 0.  1.
         14    1    4    4    0    0  0.92271905521E+02 -0.62206278765E+01 -0.87707086454E+02  0.12745718408E+03  0.00000000000E+00 0. -1.
         -5    1    5    5    0  502 -0.35146096258E+01  0.20252792420E+01  0.96243659638E+02  0.96443694752E+02  0.47000000000E+01 0.  1.
         13    1    6    6    0    0 -0.13443392980E+03 -0.41163513482E+02  0.20307137341E+03  0.24699169829E+03  0.00000000000E+00 0. -1.
        -14    1    6    6    0    0 -0.14653637183E+03 -0.51093591049E+02  0.10320124230E+03  0.18637049050E+03  0.00000000000E+00 0.  1.
</event>
<event>
12    1  0.1050869E+000  0.1988772E+03  0.7818608E-02  0.1151093E+00
         21   -1    0    0  501  502  0.00000000000E+00  0.00000000000E+00  0.70242876926E+02  0.70242876926E+02  0.00000000000E+00 0.  1.
         21   -1    0    0  502  503 -0.00000000000E+00 -0.00000000000E+00 -0.64855242741E+03  0.64855242741E+03  0.00000000000E+00 0.  1.
         -6    2    1    2    0  503  0.79271550867E+02  0.56804827697E+02 -0.15586164413E+03  0.25267564659E+03  0.17332444445E+03 0.  0.
        -24    2    3    3    0    0  0.42752573285E+02  0.10210808633E+03 -0.85163551993E+02  0.16098959968E+03  0.80068575619E+02 0.  0.
          6    2    1    2  501    0 -0.79271550867E+02 -0.56804827697E+02 -0.42244790636E+03  0.46611965775E+03  0.17115646212E+03 0.  0.
         24    2    5    5    0    0 -0.21280025794E+02  0.32725474845E+02 -0.14533092779E+03  0.16914389802E+03  0.77232010618E+02 0.  0.
          5    1    5    5  501    0 -0.57991525073E+02 -0.89530302542E+02 -0.27711697857E+03  0.29697575973E+03  0.47000000000E+01 0. -1.
        -11    1    6    6    0    0  0.13957809822E+02 -0.17870437293E+02 -0.23834442642E+02  0.32897623624E+02  0.00000000000E+00 0.  1.
         12    1    6    6    0    0 -0.35237835615E+02  0.50595912138E+02 -0.12149648514E+03  0.13624627439E+03  0.00000000000E+00 0. -1.
         -5    1    3    3    0  503  0.36518977582E+02 -0.45303258631E+02 -0.70698092134E+02  0.91686046908E+02  0.47000000000E+01 0.  1.
         11    1    4    4    0    0  0.56410531274E+02  0.32398642795E+02 -0.33634570089E+02  0.73233219229E+02  0.00000000000E+00 0. -1.
        -12    1    4    4    0    0 -0.13657957990E+02  0.69709443533E+02 -0.51528981903E+02  0.87756380452E+02  0.00000000000E+00 0.  1.
</event>
<event>
12    1  0.1050869E+000  0.3121776E+03  0.7818608E-02  0.1079428E+00
         21   -1    0    0  503  502  0.00000000000E+00  0.00000000000E+00  0.19848555844E+04  0.19848555844E+04  0.00000000000E+00 0.  1.
         21   -1    0    0  501  503 -0.00000000000E+00 -0.00000000000E+00 -0.50807542185E+02  0.50807542185E+02  0.00000000000E+00 0.  1.
          6    2    1    2  501    0 -0.21447730023E+03 -0.14555806829E+03  0.11606821615E+04  0.12016669290E+04  0.17214140908E+03 0.  0.
         24    2    3    3    0    0 -0.17550325542E+03 -0.13163866172E+03  0.66934022308E+03  0.70856276508E+03  0.76907268186E+02 0.  0.
         -6    2    1    2    0  502  0.21447730023E+03  0.14555806829E+03  0.77336588076E+03  0.83399619761E+03  0.17397473535E+03 0.  0.
        -24    2    5    5    0    0  0.69894845389E+02  0.88940350141E+02  0.22562620559E+03  0.26465403861E+03  0.79617210501E+02 0.  0.
          5    1    3    3  501    0 -0.38974044812E+02 -0.13919406565E+02  0.49134193838E+03  0.49310416390E+03  0.47000000000E+01 0. -1.
        -13    1    4    4    0    0 -0.95405146195E+01  0.98609585987E+01  0.53990913520E+02  0.55707079141E+02  0.00000000000E+00 0.  1.
         14    1    4    4    0    0 -0.16596274080E+03 -0.14149962032E+03  0.61534930956E+03  0.65285568594E+03  0.00000000000E+00 0. -1.
         -5    1    5    5    0  502  0.14458245484E+03  0.56617718149E+02  0.54773967517E+03  0.56934215900E+03  0.47000000000E+01 0.  1.
         13    1    6    6    0    0 -0.14493324296E+02 -0.13475593833E+01  0.19782837687E+02  0.24560802764E+02  0.00000000000E+00 0. -1.
        -14    1    6    6    0    0  0.84388169685E+02  0.90287909524E+02  0.20584336791E+03  0.24009323585E+03  0.00000000000E+00 0.  1.
</event>
<event>
12    1  0.1050869E+000  0.2106043E+03  0.7818608E-02  0.1142323E+00
         21   -1    0    0  503  502  0.00000000000E+00  0.00000000000E+00  0.65339883596E+03  0.65339883596E+03  0.00000000000E+00 0. -1.
         21   -1    0    0  501  503 -0.00000000000E+00 -0.00000000000E+00 -0.66901578769E+02  0.66901578769E+02  0.00000000000E+00 0. -1.
          6    2    1    2  501    0  0.11084336313E+03 -0.21516083518E+01  0.33276839535E+03  0.39055428046E+03  0.17177590190E+03 0.  0.
         24    2    3    3    0    0  0.10098604414E+03  0.76560908003E+01  0.11500003558E+03  0.17229180953E+03  0.78756984520E+02 0.  0.
         -6    2    1    2    0  502 -0.11084336313E+03  0.21516083518E+01  0.25372886185E+03  0.32974613427E+03  0.17906227175E+03 0.  0.
        -24    2    5    5    0    0 -0.85392020085E+02  0.61634581600E+02  0.11508318438E+03  0.17667520676E+03  0.82941971362E+02 0.  0.
          5    1    3    3  501    0  0.98573189928E+01 -0.98076991521E+01  0.21776835977E+03  0.21826247093E+03  0.47000000000E+01 0. -1.
        -11    1    4    4    0    0  0.50335217200E+02  0.31478459407E+02  0.96576026115E+02  0.11336426385E+03  0.00000000000E+00 0.  1.
         12    1    4    4    0    0  0.50650826938E+02 -0.23822368607E+02  0.18424009465E+02  0.58927545684E+02  0.00000000000E+00 0. -1.
         -5    1    5    5    0  502 -0.25451343046E+02 -0.59482973248E+02  0.13864567747E+03  0.15307092752E+03  0.47000000000E+01 0.  1.
         13    1    6    6    0    0 -0.13028901128E+01  0.16723207678E+02  0.68589375871E+02  0.70610662651E+02  0.00000000000E+00 0. -1.
        -14    1    6    6    0    0 -0.84089129973E+02  0.44911373922E+02  0.46493808504E+02  0.10606454411E+03  0.00000000000E+00 0.  1.
</event>
<event>
12    1  0.1050869E+000  0.1996009E+03  0.7818608E-02  0.1150661E+00
         21   -1    0    0  503  502  0.00000000000E+00  0.00000000000E+00  0.15266661206E+03  0.15266661206E+03  0.00000000000E+00 0.  1.
         21   -1    0    0  501  503 -0.00000000000E+00 -0.00000000000E+00 -0.73417357180E+03  0.73417357180E+03  0.00000000000E+00 0.  1.
          6    2    1    2  501    0  0.96832590254E+02  0.82927935454E+01  0.65874100569E+02  0.21019021993E+03  0.17434222228E+03 0.  0.
         24    2    3    3    0    0  0.11078156444E+03 -0.43485984112E+02  0.31463279595E+02  0.14630117316E+03  0.79060163614E+02 0.  0.
         -6    2    1    2    0  502 -0.96832590254E+02 -0.82927935454E+01 -0.64738106031E+03  0.67664996393E+03  0.17119467129E+03 0.  0.
        -24    2    5    5    0    0 -0.88686187785E+02 -0.61674474944E+02 -0.35697452864E+03  0.38122821216E+03  0.78962996943E+02 0.  0.
          5    1    3    3  501    0 -0.13948974190E+02  0.51778777658E+02  0.34410820974E+02  0.63889046767E+02  0.47000000000E+01 0. -1.
        -11    1    4    4    0    0  0.11274683577E+03 -0.19296041624E+02  0.11662982180E+02  0.11497917791E+03  0.00000000000E+00 0.  1.
         12    1    4    4    0    0 -0.19652713278E+01 -0.24189942489E+02  0.19800297414E+02  0.31321995254E+02  0.00000000000E+00 0. -1.
         -5    1    5    5    0  502 -0.81464024692E+01  0.53381681398E+02 -0.29040653168E+03  0.29542175178E+03  0.47000000000E+01 0.  1.
         13    1    6    6    0    0 -0.80958085225E+02 -0.20196330281E+02 -0.29255738809E+03  0.30422348471E+03  0.00000000000E+00 0. -1.
        -14    1    6    6    0    0 -0.77281025596E+01 -0.41478144662E+02 -0.64417140547E+02  0.77004727452E+02  0.00000000000E+00 0.  1.
</event>
<event>
12    1  0.1050869E+000  0.1923586E+03  0.7818608E-02  0.1156717E+00
         21   -1    0    0  501  502  0.00000000000E+00  0.00000000000E+00  0.94121575947E+03  0.94121575947E+03  0.00000000000E+00 0. -1.
         21   -1    0    0  502  503 -0.00000000000E+00 -0.00000000000E+00 -0.39522351331E+02  0.39522351331E+02  0.00000000000E+00 0. -1.
         -6    2    1    2    0  503 -0.80679612174E+02  0.24359696272E+02  0.39140271875E+03  0.43539564595E+03  0.17108677812E+03 0.  0.
        -24    2    3    3    0    0  0.69619912864E+01  0.41084720954E+02  0.26799310335E+03  0.28303817065E+03  0.80956031169E+02 0.  0.
          6    2    1    2  501    0  0.80679612174E+02 -0.24359696272E+02  0.51029068939E+03  0.54534246485E+03  0.17291391404E+03 0.  0.
         24    2    5    5    0    0  0.55294253340E+02 -0.72557073574E+02  0.24321717849E+03  0.27272963711E+03  0.83095581528E+02 0.  0.
          5    1    5    5  501    0  0.25385358835E+02  0.48197377302E+02  0.26707351090E+03  0.27261282773E+03  0.47000000000E+01 0. -1.
        -13    1    6    6    0    0  0.64972733273E+02 -0.19196973423E+02  0.11429586145E+03  0.13286656390E+03  0.00000000000E+00 0.  1.
         14    1    6    6    0    0 -0.96784799331E+01 -0.53360100152E+02  0.12892131704E+03  0.13986307321E+03  0.00000000000E+00 0. -1.
         -5    1    3    3    0  503 -0.87641603461E+02 -0.16725024682E+02  0.12340961540E+03  0.15235747530E+03  0.47000000000E+01 0.  1.
         13    1    4    4    0    0  0.28956367562E+02 -0.13313449519E+02  0.80549379531E+02  0.86625179384E+02  0.00000000000E+00 0. -1.
        -14    1    4    4    0    0 -0.21994376275E+02  0.54398170473E+02  0.18744372382E+03  0.19641299127E+03  0.00000000000E+00 0.  1.
</event>
<event>
12    1  0.1050869E+000  0.2627226E+03  0.7818608E-02  0.1105587E+00
         21   -1    0    0  501  502  0.00000000000E+00  0.00000000000E+00  0.25708299121E+02  0.25708299121E+02  0.00000000000E+00 0.  1.
         21   -1    0    0  502  503 -0.00000000000E+00 -0.00000000000E+00 -0.26969779567E+04  0.26969779567E+04  0.00000000000E+00 0.  1.
         -6    2    1    2    0  503  0.13714440639E+03  0.14308036626E+03 -0.12268186795E+04  0.12545371600E+04  0.17175224612E+03 0.  0.
        -24    2    3    3    0    0  0.12106166920E+03  0.17218201271E+03 -0.11303852506E+04  0.11524242006E+04  0.77512258270E+02 0.  0.
          6    2    1    2  501    0 -0.13714440639E+03 -0.14308036626E+03 -0.14444509782E+04  0.14681490959E+04  0.17246031445E+03 0.  0.
         24    2    5    5    0    0 -0.99955644527E+02 -0.11072931881E+03 -0.13602677225E+04  0.13704838266E+04  0.75136737809E+02 0.  0.
          5    1    5    5  501    0 -0.37188761867E+02 -0.32351047453E+02 -0.84183255687E+02  0.97665269255E+02  0.47000000000E+01 0. -1.
        -13    1    6    6    0    0 -0.88402219358E+02 -0.43761453980E+02 -0.85294037262E+03  0.85862523634E+03  0.00000000000E+00 0.  1.
         14    1    6    6    0    0 -0.11553425169E+02 -0.66967864826E+02 -0.50732734984E+03  0.51185859029E+03  0.00000000000E+00 0. -1.
         -5    1    3    3    0  503  0.16082737197E+02 -0.29101646450E+02 -0.96433428861E+02  0.10211295933E+03  0.47000000000E+01 0.  1.
         13    1    4    4    0    0  0.78919739609E+02  0.68175044420E+02 -0.69635864277E+03  0.70412464901E+03  0.00000000000E+00 0. -1.
        -14    1    4    4    0    0  0.42141929588E+02  0.10400696829E+03 -0.43402660783E+03  0.44829955162E+03  0.00000000000E+00 0.  1.
</event>
<event>
12    1  0.1050869E+000  0.3394476E+03  0.7818608E-02  0.1067082E+00
         21   -1    0    0  501  502  0.00000000000E+00  0.00000000000E+00  0.20156293492E+03  0.20156293492E+03  0.00000000000E+00 0. -1.
         21   -1    0    0  502  503 -0.00000000000E+00 -0.00000000000E+00 -0.59200706615E+03  0.59200706615E+03  0.00000000000E+00 0. -1.
         -6    2    1    2    0  503  0.27489602645E+03  0.10361230340E+03 -0.27008330981E+03  0.43341531573E+03  0.16911684390E+03 0.  0.
        -24    2    3    3    0    0  0.17943579161E+03  0.91364482551E+02 -0.25691807171E+03  0.33616265999E+03  0.80335337310E+02 0.  0.
          6    2    1    2  501    0 -0.27489602645E+03 -0.10361230340E+03 -0.12036082142E+03  0.36015468534E+03  0.17006273919E+03 0.  0.
         24    2    5    5    0    0 -0.22520971163E+03 -0.55995700565E+02 -0.31430321418E+02  0.24760783030E+03  0.80416663890E+02 0.  0.
          5    1    5    5  501    0 -0.49686314828E+02 -0.47616602840E+02 -0.88930500003E+02  0.11254685503E+03  0.47000000000E+01 0. -1.
        -11    1    6    6    0    0 -0.12067244493E+03 -0.17726795264E+02 -0.55037661620E+02  0.13381039732E+03  0.00000000000E+00 0.  1.
         12    1    6    6    0    0 -0.10453726670E+03 -0.38268905301E+02  0.23607340202E+02  0.11379743298E+03  0.00000000000E+00 0. -1.
         -5    1    3    3    0  503  0.95460234847E+02  0.12247820853E+02 -0.13165238097E+02  0.97252655732E+02  0.47000000000E+01 0.  1.
         11    1    4    4    0    0  0.51847968754E+02  0.65164612720E+02 -0.12942114370E+03  0.15389759924E+03  0.00000000000E+00 0. -1.
        -12    1    4    4    0    0  0.12758782285E+03  0.26199869832E+02 -0.12749692801E+03  0.18226506075E+03  0.00000000000E+00 0.  1.
</event>
<event>
12    1  0.1050869E+000  0.2068143E+03  0.7818608E-02  0.1145064E+00
         21   -1    0    0  501  502  0.00000000000E+00  0.00000000000E+00  0.63795500870E+03  0.63795500870E+03  0.00000000000E+00 0.  1.
         21   -1    0    0  502  503 -0.00000000000E+00 -0.00000000000E+00 -0.81345246374E+02  0.81345246374E+02  0.00000000000E+00 0.  1.
         -6    2    1    2    0  503  0.98349322806E+02  0.40957936792E+02  0.43933798635E+03  0.48558213844E+03  0.17726253141E+03 0.  0.
        -24    2    3    3    0    0  0.10132047882E+03  0.80412905776E+02  0.26237927058E+03  0.30419305544E+03  0.83417375316E+02 0.  0.
          6    2    1    2  501    0 -0.98349322806E+02 -0.40957936792E+02  0.11727177597E+03  0.23371811663E+03  0.17181777183E+03 0.  0.
         24    2    5    5    0    0 -0.68174866944E+02  0.17771871385E+02  0.37915875849E+01  0.10234258119E+03  0.74134849380E+02 0.  0.
          5    1    5    5  501    0 -0.30174455861E+02 -0.58729808177E+02  0.11348018839E+03  0.13137553544E+03  0.47000000000E+01 0. -1.
        -11    1    6    6    0    0 -0.94348324464E+01  0.35176907614E+02 -0.13244412326E+02  0.38753649511E+02  0.00000000000E+00 0.  1.
         12    1    6    6    0    0 -0.58740034498E+02 -0.17405036229E+02  0.17035999911E+02  0.63588931678E+02  0.00000000000E+00 0. -1.
         -5    1    3    3    0  503 -0.29711560173E+01 -0.39454968984E+02  0.17695871577E+03  0.18138908300E+03  0.47000000000E+01 0.  1.
         11    1    4    4    0    0  0.18609052124E+02 -0.13466358744E+02  0.16408364039E+02  0.28228957636E+02  0.00000000000E+00 0. -1.
        -12    1    4    4    0    0  0.82711426699E+02  0.93879264519E+02  0.24597090654E+03  0.27596409781E+03  0.00000000000E+00 0.  1.
</event>
<event>
12    1  0.1050869E+000  0.3082944E+03  0.7818608E-02  0.1081253E+00
         21   -1    0    0  503  502  0.00000000000E+00  0.00000000000E+00  0.26197352309E+03  0.26197352309E+03  0.00000000000E+00 0. -1.
         21   -1    0    0  501  503 -0.00000000000E+00 -0.00000000000E+00 -0.36199863274E+03  0.36199863274E+03  0.00000000000E+00 0. -1.
          6    2    1    2  501    0 -0.24673312850E+03 -0.66189533239E+02 -0.53073466945E+02  0.31282942582E+03  0.17258958762E+03 0.  0.
         24    2    3    3    0    0 -0.95428101995E+02 -0.82128911848E+02 -0.65930563825E+02  0.16007252818E+03  0.73652523512E+02 0.  0.
         -6    2    1    2    0  502  0.24673312850E+03  0.66189533239E+02 -0.46951642710E+02  0.31114273001E+03  0.17130980905E+03 0.  0.
        -24    2    5    5    0    0  0.20122756687E+03  0.11041150288E+03 -0.29596906863E+02  0.24519111445E+03  0.80990567810E+02 0.  0.
          5    1    3    3  501    0 -0.15130502650E+03  0.15939378609E+02  0.12857096880E+02  0.15275689764E+03  0.47000000000E+01 0. -1.
        -13    1    4    4    0    0 -0.49129340604E+02 -0.44341050339E+02 -0.74555617077E+02  0.99691328063E+02  0.00000000000E+00 0.  1.
         14    1    4    4    0    0 -0.46298761391E+02 -0.37787861509E+02  0.86250532520E+01  0.60381200115E+02  0.00000000000E+00 0. -1.
         -5    1    5    5    0  502  0.45505561631E+02 -0.44221969646E+02 -0.17354735848E+02  0.65951615560E+02  0.47000000000E+01 0.  1.
         11    1    6    6    0    0  0.94635193440E+02  0.93598827937E+02  0.71136441459E+00  0.13310547122E+03  0.00000000000E+00 0. -1.
        -12    1    6    6    0    0  0.10659237343E+03  0.16812674948E+02 -0.30308271277E+02  0.11208564324E+03  0.00000000000E+00 0.  1.
</event>
<event>
12    1  0.1050869E+000  0.2136819E+03  0.7818608E-02  0.1139048E+00
         21   -1    0    0  503  502  0.00000000000E+00  0.00000000000E+00  0.26883261927E+02  0.26883261927E+02  0.00000000000E+00 0.  1.
         21   -1    0    0  501  503 -0.00000000000E+00 -0.00000000000E+00 -0.17335847256E+04  0.17335847256E+04  0.00000000000E+00 0.  1.
          6    2    1    2  501    0  0.35923095174E+02  0.12335126194E+03 -0.99921375500E+03  0.10214153353E+04  0.16838989411E+03 0.  0.
         24    2    3    3    0    0  0.36974112176E+02  0.70188331179E+02 -0.30058852436E+03  0.32075371604E+03  0.78968339016E+02 0.  0.
         -6    2    1    2    0  502 -0.35923095174E+02 -0.12335126194E+03 -0.70748770865E+03  0.73905265219E+03  0.17074531394E+03 0.  0.
        -24    2    5    5    0    0 -0.57529196014E+02 -0.70501323836E+02 -0.63665189758E+03  0.64794973412E+03  0.78950454073E+02 0.  0.
          5    1    3    3  501    0 -0.10510170026E+01  0.53162930761E+02 -0.69862523064E+03  0.70066161928E+03  0.47000000000E+01 0. -1.
        -13    1    4    4    0    0 -0.23696457274E+02  0.85613761528E+01 -0.59065804240E+02  0.64215173281E+02  0.00000000000E+00 0.  1.
         14    1    4    4    0    0  0.60670569450E+02  0.61626955026E+02 -0.24152272012E+03  0.25653854275E+03  0.00000000000E+00 0. -1.
         -5    1    5    5    0  502  0.21606100840E+02 -0.52849938104E+02 -0.70835811070E+02  0.91102918071E+02  0.47000000000E+01 0.  1.
         13    1    6    6    0    0 -0.45181307606E+02 -0.13768256190E+02 -0.13653819627E+03  0.14447696867E+03  0.00000000000E+00 0. -1.
        -14    1    6    6    0    0 -0.12347888409E+02 -0.56733067646E+02 -0.50011370131E+03  0.50347276545E+03  0.00000000000E+00 0.  1.
</event>
<event>
12    1  0.1050869E+000  0.1727071E+03  0.7818608E-02  0.1175115E+00
         21   -1    0    0  503  502  0.00000000000E+00  0.00000000000E+00  0.12207134025E+03  0.12207134025E+03  0.00000000000E+00 0. -1.
         21   -1    0    0  501  503 -0.00000000000E+00 -0.00000000000E+00 -0.43038970031E+03  0.43038970031E+03  0.00000000000E+00 0. -1.
          6    2    1    2  501    0  0.18511941122E+02  0.50555128309E+01  0.27558699256E+02  0.17489204237E+03  0.17163768353E+03 0.  0.
         24    2    3    3    0    0  0.40850131862E+02 -0.43064390310E+02  0.58369959375E+02  0.11336202048E+03  0.76945568711E+02 0.  0.
         -6    2    1    2    0  502 -0.18511941122E+02 -0.50555128309E+01 -0.33587705932E+03  0.37756899819E+03  0.17139632214E+03 0.  0.
        -24    2    5    5    0    0  0.23777640281E+02 -0.54901538869E+02 -0.14503943275E+03  0.17579158438E+03  0.79288643200E+02 0.  0.
          5    1    3    3  501    0 -0.22338190740E+02  0.48119903141E+02 -0.30811260119E+02  0.61530021891E+02  0.47000000000E+01 0. -1.
        -13    1    4    4    0    0  0.30567399377E+02 -0.46300616542E+02  0.15226508484E+01  0.55501634773E+02  0.00000000000E+00 0.  1.
         14    1    4    4    0    0  0.10282732484E+02  0.32362262323E+01  0.56847308527E+02  0.57860385708E+02  0.00000000000E+00 0. -1.
         -5    1    5    5    0  502 -0.42289581403E+02  0.49846026039E+02 -0.19083762657E+03  0.20177741381E+03  0.47000000000E+01 0.  1.
         11    1    6    6    0    0  0.52270463459E+02 -0.24833760648E+02 -0.86842346556E+02  0.10435760717E+03  0.00000000000E+00 0. -1.
        -12    1    6    6    0    0 -0.28492823177E+02 -0.30067778221E+02 -0.58197086192E+02  0.71433977217E+02  0.00000000000E+00 0.  1.
</event>
<event>
12    1  0.1050869E+000  0.1846990E+03  0.7818608E-02  0.1163586E+00
         21   -1    0    0  501  502  0.00000000000E+00  0.00000000000E+00  0.16625271000E+03  0.16625271000E+03  0.00000000000E+00 0.  1.
         21   -1    0    0  502  503 -0.00000000000E+00 -0.00000000000E+00 -0.14451158416E+04  0.14451158416E+04  0.00000000000E+00 0.  1.
         -6    2    1    2    0  503 -0.20774747172E+02  0.64721256781E+02  0.10749241844E+03  0.21276373615E+03  0.17056774666E+03 0.  0.
        -24    2    3    3    0    0  0.34917493561E+01  0.10706434161E+03  0.87946156466E+02  0.15998167440E+03  0.79903968289E+02 0.  0.
          6    2    1    2  501    0  0.20774747172E+02 -0.64721256781E+02 -0.13863555500E+04  0.13986048154E+04  0.17173609831E+03 0.  0.
         24    2    5    5    0    0 -0.19805663221E+02 -0.11583500465E+02 -0.11428636553E+04  0.11460562386E+04  0.82347590650E+02 0.  0.
          5    1    5    5  501    0  0.40580410393E+02 -0.53137756316E+02 -0.24349189468E+03  0.25254857678E+03  0.47000000000E+01 0. -1.
        -11    1    6    6    0    0 -0.25937181902E+02  0.32135479586E+02 -0.53473008783E+03  0.53632237813E+03  0.00000000000E+00 0.  1.
         12    1    6    6    0    0  0.61315186817E+01 -0.43718980051E+02 -0.60813356748E+03  0.60973386049E+03  0.00000000000E+00 0. -1.
         -5    1    3    3    0  503 -0.24266496528E+02 -0.42343084826E+02  0.19546261972E+02  0.52782061758E+02  0.47000000000E+01 0.  1.
         11    1    4    4    0    0  0.19626763763E+02  0.10705618831E+02  0.50721709589E+02  0.55430244037E+02  0.00000000000E+00 0. -1.
        -12    1    4    4    0    0 -0.16135014407E+02  0.96358722776E+02  0.37224446877E+02  0.10455143036E+03  0.00000000000E+00 0.  1.
</event>
<event>
12    1  0.1050869E+000  0.2469407E+03  0.7818608E-02  0.1118102E+00
         21   -1    0    0  503  502  0.00000000000E+00  0.00000000000E+00  0.21906939938E+03  0.21906939938E+03  0.00000000000E+00 0. -1.
         21   -1    0    0  501  503 -0.00000000000E+00 -0.00000000000E+00 -0.35340714552E+03  0.35340714552E+03  0.00000000000E+00 0.  1.
          6    2    1    2  501    0  0.54518176274E+02  0.14382151139E+03 -0.21646349046E+03  0.32838418494E+03  0.19319128224E+03 0.  0.
         24    2    3    3    0    0  0.42012152263E+02  0.17365840817E+03 -0.22121325680E+03  0.29534948612E+03  0.79835770819E+02 0.  0.
         -6    2    1    2    0  502 -0.54518176274E+02 -0.14382151139E+03  0.82125744317E+02  0.24409235996E+03  0.17082032557E+03 0.  0.
        -24    2    5    5    0    0 -0.89125910402E+02 -0.15139820321E+03  0.57221649733E+02  0.20053314225E+03  0.77938309601E+02 0.  0.
          5    1    3    3  501    0  0.12506024011E+02 -0.29836896776E+02  0.47497663410E+01  0.33034698819E+02  0.47000000000E+01 0. -1.
        -13    1    4    4    0    0  0.52906310919E+01  0.14472512276E+03 -0.13878054938E+03  0.20058263340E+03  0.00000000000E+00 0.  1.
         14    1    4    4    0    0  0.36721521171E+02  0.28933285403E+02 -0.82432707420E+02  0.94766852717E+02  0.00000000000E+00 0. -1.
         -5    1    5    5    0  502  0.34607734128E+02  0.75766918200E+01  0.24904094584E+02  0.43559217709E+02  0.47000000000E+01 0.  1.
         11    1    6    6    0    0  0.92883793705E+01 -0.48280689386E+02  0.85142817653E+01  0.49897815111E+02  0.00000000000E+00 0. -1.
        -12    1    6    6    0    0 -0.98414289773E+02 -0.10311751383E+03  0.48707367967E+02  0.15063532714E+03  0.00000000000E+00 0.  1.
</event>
<event>
12    1  0.1050869E+000  0.2480589E+03  0.7818608E-02  0.1117134E+00
         21   -1    0    0  501  502  0.00000000000E+00  0.00000000000E+00  0.28898198007E+03  0.28898198007E+03  0.00000000000E+00 0. -1.
         21   -1    0    0  502  503 -0.00000000000E+00 -0.00000000000E+00 -0.31649673075E+03  0.31649673075E+03  0.00000000000E+00 0. -1.
         -6    2    1    2    0  503 -0.15436173229E+03  0.25322819693E+02 -0.19792041259E+03  0.31734162901E+03  0.19252124608E+03 0.  0.
        -24    2    3    3    0    0 -0.16801967142E+03  0.40819380221E+02 -0.21413178440E+03  0.29066614840E+03  0.93474900135E+02 0.  0.
          6    2    1    2  501    0  0.15436173229E+03 -0.25322819693E+02  0.17040566191E+03  0.28813708181E+03  0.17180249914E+03 0.  0.
         24    2    5    5    0    0  0.87960301927E+02 -0.22006553925E+02  0.19031739491E+02  0.12273967566E+03  0.80507873787E+02 0.  0.
          5    1    5    5  501    0  0.66401430361E+02 -0.33162657679E+01  0.15137392242E+03  0.16539740615E+03  0.47000000000E+01 0. -1.
        -11    1    6    6    0    0  0.14529764395E+02 -0.30893856311E+02  0.32981670548E+02  0.47469305907E+02  0.00000000000E+00 0.  1.
         12    1    6    6    0    0  0.73430537532E+02  0.88873023865E+01 -0.13949931056E+02  0.75270369751E+02  0.00000000000E+00 0. -1.
         -5    1    3    3    0  503  0.13657939128E+02 -0.15496560528E+02  0.16211371810E+02  0.26675480602E+02  0.47000000000E+01 0.  1.
         13    1    4    4    0    0 -0.34525653190E+02  0.42589739319E+02 -0.10412381880E+03  0.11767614995E+03  0.00000000000E+00 0. -1.
        -14    1    4    4    0    0 -0.13349401823E+03 -0.17703590982E+01 -0.11000796559E+03  0.17298999846E+03  0.00000000000E+00 0.  1.
</event>
<event>
12    1  0.1050869E+000  0.1902563E+03  0.7818608E-02  0.1158495E+00
         21   -1    0    0  503  502  0.00000000000E+00  0.00000000000E+00  0.47245731341E+02  0.47245731341E+02  0.00000000000E+00 0.  1.
         21   -1    0    0  501  503 -0.00000000000E+00 -0.00000000000E+00 -0.93780737136E+03  0.93780737136E+03  0.00000000000E+00 0.  1.
          6    2    1    2  501    0  0.36938103889E+02 -0.72554519714E+02 -0.23281086341E+03  0.30066317959E+03  0.17195600481E+03 0.  0.
         24    2    3    3    0    0 -0.19672737521E+02 -0.96855230007E+02 -0.15421567102E+03  0.20069015247E+03  0.82012876589E+02 0.  0.
         -6    2    1    2    0  502 -0.36938103889E+02  0.72554519714E+02 -0.65775077662E+03  0.68438992312E+03  0.17066019125E+03 0.  0.
        -24    2    5    5    0    0 -0.61754743754E+02  0.36678205605E+02 -0.21391267214E+03  0.23838843375E+03  0.76886116456E+02 0.  0.
          5    1    3    3  501    0  0.56610841410E+02  0.24300710293E+02 -0.78595192383E+02  0.99973027120E+02  0.47000000000E+01 0. -1.
        -11    1    4    4    0    0  0.20031128761E+02 -0.13251871111E+02 -0.41423291142E+01  0.24372465979E+02  0.00000000000E+00 0.  1.
         12    1    4    4    0    0 -0.39703866282E+02 -0.83603358896E+02 -0.15007334191E+03  0.17631768649E+03  0.00000000000E+00 0. -1.
         -5    1    5    5    0  502  0.24816639865E+02  0.35876314109E+02 -0.44383810448E+03  0.44600148936E+03  0.47000000000E+01 0.  1.
         11    1    6    6    0    0  0.48479017071E+01  0.37871327671E+02 -0.67896939266E+02  0.77895660804E+02  0.00000000000E+00 0. -1.
        -12    1    6    6    0    0 -0.66602645461E+02 -0.11931220659E+01 -0.14601573287E+03  0.16049277295E+03  0.00000000000E+00 0.  1.
</event>
<event>
12    1  0.1050869E+000  0.2037320E+03  0.7818608E-02  0.1146765E+00
         21   -1    0    0  501  502  0.00000000000E+00  0.00000000000E+00  0.36814612139E+03  0.36814612139E+03  0.00000000000E+00 0. -1.
         21   -1    0    0  502  503 -0.00000000000E+00 -0.00000000000E+00 -0.11388310090E+03  0.11388310090E+03  0.00000000000E+00 0. -1.
         -6    2    1    2    0  503  0.10557288067E+03 -0.23674828419E+02  0.99218361415E+02  0.22601051815E+03  0.17184394210E+03 0.  0.
        -24    2    3    3    0    0  0.89928403975E+02 -0.27839189545E+02 -0.40857770101E+00  0.12496741570E+03  0.82186067764E+02 0.  0.
          6    2    1    2  501    0 -0.10557288067E+03  0.23674828419E+02  0.15504465907E+03  0.25601870414E+03  0.17262850265E+03 0.  0.
         24    2    5    5    0    0 -0.40337821691E+02  0.67491082475E+02  0.49320384935E+02  0.12420372327E+03  0.82534104654E+02 0.  0.
          5    1    5    5  501    0 -0.65235058982E+02 -0.43816254056E+02  0.10572427414E+03  0.13181498087E+03  0.47000000000E+01 0. -1.
        -11    1    6    6    0    0 -0.62091635828E+02  0.36358760710E+02  0.16071650030E+02  0.73726716019E+02  0.00000000000E+00 0.  1.
         12    1    6    6    0    0  0.21753814138E+02  0.31132321765E+02  0.33248734905E+02  0.50477007249E+02  0.00000000000E+00 0. -1.
         -5    1    3    3    0  503  0.15644476697E+02  0.41643611261E+01  0.99626939116E+02  0.10104310245E+03  0.47000000000E+01 0.  1.
         11    1    4    4    0    0  0.96676154910E+02 -0.81826269244E+00  0.40382802908E+01  0.96763919875E+02  0.00000000000E+00 0. -1.
        -12    1    4    4    0    0 -0.67477509344E+01 -0.27020926852E+02 -0.44468579918E+01  0.28203495823E+02  0.00000000000E+00 0.  1.
</event>
<event>
12    1  0.1050869E+000  0.2471715E+03  0.7818608E-02  0.1115179E+00
         21   -1    0    0  501  502  0.00000000000E+00  0.00000000000E+00  0.47768616747E+03  0.47768616747E+03  0.00000000000E+00 0.  1.
         21   -1    0    0  502  503 -0.00000000000E+00 -0.00000000000E+00 -0.12819255877E+03  0.12819255877E+03  0.00000000000E+00 0.  1.
         -6    2    1    2    0  503 -0.95671156668E+02 -0.14884923411E+03  0.19412502283E+03  0.31393157326E+03  0.17192859997E+03 0.  0.
        -24    2    3    3    0    0 -0.13152738754E+03 -0.12570086060E+03  0.18454682058E+03  0.26993897790E+03  0.75560325368E+02 0.  0.
          6    2    1    2  501    0  0.95671156668E+02  0.14884923411E+03  0.15536858586E+03  0.29194715298E+03  0.17258238018E+03 0.  0.
         24    2    5    5    0    0  0.72264183376E+02  0.88232959503E+02  0.17518934720E+03  0.22385037093E+03  0.80065684595E+02 0.  0.
          5    1    5    5  501    0  0.23406973292E+02  0.60616274604E+02 -0.19820761345E+02  0.68096782052E+02  0.47000000000E+01 0. -1.
        -11    1    6    6    0    0  0.83995502050E+02  0.85480551163E+02  0.12883876108E+03  0.17595907294E+03  0.00000000000E+00 0.  1.
         12    1    6    6    0    0 -0.11731318674E+02  0.27524083397E+01  0.46350586122E+02  0.47891297992E+02  0.00000000000E+00 0. -1.
         -5    1    3    3    0  503  0.35856230876E+02 -0.23148373503E+02  0.95782022516E+01  0.43992595364E+02  0.47000000000E+01 0.  1.
         11    1    4    4    0    0 -0.38861867930E+02 -0.83752523083E+02  0.64683432962E+02  0.11273276543E+03  0.00000000000E+00 0. -1.
        -12    1    4    4    0    0 -0.92665519614E+02 -0.41948337521E+02  0.11986338762E+03  0.15720621247E+03  0.00000000000E+00 0.  1.
</event>
<event>
12    1  0.1050869E+000  0.1851686E+03  0.7818608E-02  0.1164899E+00
         21   -1    0    0  501  502  0.00000000000E+00  0.00000000000E+00  0.37833410871E+03  0.37833410871E+03  0.00000000000E+00 0. -1.
         21   -1    0    0  502  503 -0.00000000000E+00 -0.00000000000E+00 -0.10062168731E+03  0.10062168731E+03  0.00000000000E+00 0. -1.
         -6    2    1    2    0  503  0.40558948630E+02 -0.88360726025E+01  0.52143035981E+02  0.19237025665E+03  0.18045585319E+03 0.  0.
        -24    2    3    3    0    0  0.30172988940E+02 -0.78695270245E+02  0.33597311012E+02  0.11919779210E+03  0.77304459861E+02 0.  0.
          6    2    1    2  501    0 -0.40558948630E+02  0.88360726025E+01  0.22556938542E+03  0.28658553936E+03  0.17183311449E+03 0.  0.
         24    2    5    5    0    0  0.31804294955E+02 -0.10626838933E+01  0.17468512654E+03  0.19744675877E+03  0.86357898545E+02 0.  0.
          5    1    5    5  501    0 -0.72363243584E+02  0.98987564958E+01  0.50884258880E+02  0.89138780584E+02  0.47000000000E+01 0. -1.
        -13    1    6    6    0    0  0.55384740701E+02 -0.13768415027E+02  0.75111496649E+02  0.94333322234E+02  0.00000000000E+00 0.  1.
         14    1    6    6    0    0 -0.23580445746E+02  0.12705731134E+02  0.99573629891E+02  0.10311343654E+03  0.00000000000E+00 0. -1.
         -5    1    3    3    0  503  0.10385959690E+02  0.69859197643E+02  0.18545724969E+02  0.73172464552E+02  0.47000000000E+01 0.  1.
         13    1    4    4    0    0  0.35479537509E+02 -0.28186517587E+02 -0.16150567360E+02  0.48105282263E+02  0.00000000000E+00 0. -1.
        -14    1    4    4    0    0 -0.53065485688E+01 -0.50508752658E+02  0.49747878372E+02  0.71092509840E+02  0.00000000000E+00 0.  1.
</event>
<event>
12    1  0.1050869E+000  0.1897937E+03  0.7818608E-02  0.1158855E+00
         21   -1    0    0  503  502  0.00000000000E+00  0.00000000000E+00  0.28870712082E+03  0.28870712082E+03  0.00000000000E+00 0. -1.
         21   -1    0    0  501  503 -0.00000000000E+00 -0.00000000000E+00 -0.12509595951E+03  0.12509595951E+03  0.00000000000E+00 0. -1.
          6    2    1    2  501    0 -0.78563703261E+02 -0.55970829119E+01  0.99840757238E+02  0.21445235100E+03  0.17267904111E+03 0.  0.
         24    2    3    3    0    0 -0.38984723135E+02  0.46335738079E+02  0.74877017020E+01  0.10125036149E+03  0.80800747292E+02 0.  0.
         -6    2    1    2    0  502  0.78563703261E+02  0.55970829119E+01  0.63770404070E+02  0.19935072932E+03  0.17166964216E+03 0.  0.
        -24    2    5    5    0    0  0.11210952597E+03  0.15840181306E+02  0.77112247462E+02  0.16153091876E+03  0.85594870472E+02 0.  0.
          5    1    3    3  501    0 -0.39578980125E+02 -0.51932820991E+02  0.92353055536E+02  0.11320198952E+03  0.47000000000E+01 0. -1.
        -13    1    4    4    0    0 -0.24465697436E+02 -0.13840227790E+02 -0.18990083109E+02  0.33922640121E+02  0.00000000000E+00 0.  1.
         14    1    4    4    0    0 -0.14519025699E+02  0.60175965870E+02  0.26477784811E+02  0.67327721364E+02  0.00000000000E+00 0. -1.
         -5    1    5    5    0  502 -0.33545822705E+02 -0.10243098394E+02 -0.13341843392E+02  0.37819810559E+02  0.47000000000E+01 0.  1.
         13    1    6    6    0    0  0.97721461969E+02  0.20439952817E+02  0.19180255974E+02  0.10166197922E+03  0.00000000000E+00 0. -1.
        -14    1    6    6    0    0  0.14388063996E+02 -0.45997715112E+01  0.57931991488E+02  0.59868939537E+02  0.00000000000E+00 0.  1.
</event>
<event>
12    1  0.1050869E+000  0.1741428E+03  0.7818608E-02  0.1173709E+00
         21   -1    0    0  501  502  0.00000000000E+00  0.00000000000E+00  0.49671225047E+02  0.49671225047E+02  0.00000000000E+00 0. -1.
         21   -1    0    0  502  503 -0.00000000000E+00 -0.00000000000E+00 -0.62013118342E+03  0.62013118342E+03  0.00000000000E+00 0. -1.
         -6    2    1    2    0  503  0.26166915756E+01  0.61820379563E+01 -0.32984275998E+03  0.37277994114E+03  0.17356144024E+03 0.  0.
        -24    2    3    3    0    0 -0.62037849677E+01  0.12846016778E+02 -0.34451882120E+03  0.35381454652E+03  0.79296961328E+02 0.  0.
          6    2    1    2  501    0 -0.26166915756E+01 -0.61820379563E+01 -0.24061719840E+03  0.29702246733E+03  0.17401334795E+03 0.  0.
         24    2    5    5    0    0 -0.43609017898E+02 -0.57886972821E+02 -0.15940461886E+03  0.19227828285E+03  0.79425798565E+02 0.  0.
          5    1    5    5  501    0  0.40992326322E+02  0.51704934865E+02 -0.81212579540E+02  0.10474418448E+03  0.47000000000E+01 0. -1.
        -13    1    6    6    0    0 -0.60690760149E+02 -0.60164005277E+02 -0.10597782382E+03  0.13614101161E+03  0.00000000000E+00 0.  1.
         14    1    6    6    0    0  0.17081742251E+02  0.22770324555E+01 -0.53426795032E+02  0.56137271243E+02  0.00000000000E+00 0. -1.
         -5    1    3    3    0  503  0.88204765434E+01 -0.66639788213E+01  0.14676061219E+02  0.18965394620E+02  0.47000000000E+01 0.  1.
         11    1    4    4    0    0 -0.27039304025E+02 -0.11836357109E+02 -0.28108364956E+03  0.28262915873E+03  0.00000000000E+00 0. -1.
        -12    1    4    4    0    0  0.20835519057E+02  0.24682373886E+02 -0.63435171640E+02  0.71185387799E+02  0.00000000000E+00 0.  1.
</event>
<event>
12    1  0.1050869E+000  0.2419262E+03  0.7818608E-02  0.1118644E+00
         21   -1    0    0  503  502  0.00000000000E+00  0.00000000000E+00  0.96456981052E+02  0.96456981052E+02  0.00000000000E+00 0. -1.
         21   -1    0    0  501  503 -0.00000000000E+00 -0.00000000000E+00 -0.60712624995E+03  0.60712624995E+03  0.00000000000E+00 0.  1.
          6    2    1    2  501    0  0.35829213899E+02  0.16563218480E+03 -0.23336632842E+03  0.33558161402E+03  0.17157337562E+03 0.  0.
         24    2    3    3    0    0  0.66356447046E+02  0.16942651411E+03 -0.23414295262E+03  0.30445281636E+03  0.68993285059E+02 0.  0.
         -6    2    1    2    0  502 -0.35829213899E+02 -0.16563218480E+03 -0.27730294048E+03  0.36800161698E+03  0.17265722137E+03 0.  0.
        -24    2    5    5    0    0 -0.20127898705E+02 -0.22635695435E+02 -0.15641972858E+03  0.18004053540E+03  0.83844832185E+02 0.  0.
          5    1    3    3  501    0 -0.30527233147E+02 -0.37943293093E+01  0.77662420366E+00  0.31128797658E+02  0.47000000000E+01 0. -1.
        -11    1    4    4    0    0 -0.48538095604E+01  0.46013165093E+02 -0.93114948850E+02  0.10397674994E+03  0.00000000000E+00 0.  1.
         12    1    4    4    0    0  0.71210256606E+02  0.12341334901E+03 -0.14102800377E+03  0.20047606642E+03  0.00000000000E+00 0. -1.
         -5    1    5    5    0  502 -0.15701315194E+02 -0.14299648936E+03 -0.12088321190E+03  0.18796108158E+03  0.47000000000E+01 0.  1.
         11    1    6    6    0    0 -0.10203110141E+00 -0.44968608468E+02 -0.41229473851E+02  0.61008652435E+02  0.00000000000E+00 0. -1.
        -12    1    6    6    0    0 -0.20025867603E+02  0.22332913032E+02 -0.11519025473E+03  0.11903188297E+03  0.00000000000E+00 0.  1.
</event>
<event>
12    1  0.1050869E+000  0.1950191E+03  0.7818608E-02  0.1155487E+00
         21   -1    0    0  501  502  0.00000000000E+00  0.00000000000E+00  0.19257506292E+03  0.19257506292E+03  0.00000000000E+00 0.  1.
         21   -1    0    0  502  503 -0.00000000000E+00 -0.00000000000E+00 -0.10591365726E+04  0.10591365726E+04  0.00000000000E+00 0.  1.
         -6    2    1    2    0  503 -0.59415863811E+01 -0.84726751478E+02  0.13202987700E+03  0.23550869414E+03  0.17555207697E+03 0.  0.
        -24    2    3    3    0    0 -0.70146282789E+02 -0.86750334000E+02  0.10988816483E+03  0.16740081394E+03  0.59173493227E+02 0.  0.
          6    2    1    2  501    0  0.59415863811E+01  0.84726751478E+02 -0.99859138670E+03  0.10162029414E+04  0.16813606298E+03 0.  0.
         24    2    5    5    0    0 -0.56762869747E+02  0.40517755761E+02 -0.69754990286E+03  0.70550316814E+03  0.79341926847E+02 0.  0.
          5    1    5    5  501    0  0.62704456128E+02  0.44208995717E+02 -0.30104148384E+03  0.31069977328E+03  0.47000000000E+01 0. -1.
        -13    1    6    6    0    0 -0.13583452772E+02  0.41425229193E+02 -0.14876018975E+03  0.15501662445E+03  0.00000000000E+00 0.  1.
         14    1    6    6    0    0 -0.43179416975E+02 -0.90747343256E+00 -0.54878971311E+03  0.55048654368E+03  0.00000000000E+00 0. -1.
         -5    1    3    3    0  503  0.64204696408E+02  0.20235825217E+01  0.22141712174E+02  0.68107880198E+02  0.47000000000E+01 0.  1.
         13    1    4    4    0    0 -0.51162717078E+02 -0.56556360184E+02  0.33900907067E+02  0.83459672873E+02  0.00000000000E+00 0. -1.
        -14    1    4    4    0    0 -0.18983565711E+02 -0.30193973816E+02  0.75987257759E+02  0.83941141067E+02  0.00000000000E+00 0.  1.
</event>
<event>
12    1  0.1050869E+000  0.2774064E+03  0.7818608E-02  0.1097241E+00
         21   -1    0    0  503  502  0.00000000000E+00  0.00000000000E+00  0.15206158767E+03  0.15206158767E+03  0.00000000000E+00 0.  1.
         21   -1    0    0  501  503 -0.00000000000E+00 -0.00000000000E+00 -0.85044679906E+03  0.85044679906E+03  0.00000000000E+00 0. -1.
          6    2    1    2  501    0 -0.20188024775E+03  0.80817881872E+02 -0.66859412237E+03  0.72350691548E+03  0.17075418535E+03 0.  0.
         24    2    3    3    0    0 -0.12425747146E+03  0.10974470686E+03 -0.53880250628E+03  0.56946143450E+03  0.80587621336E+02 0.  0.
         -6    2    1    2    0  502  0.20188024775E+03 -0.80817881872E+02 -0.29791089016E+02  0.27900147124E+03  0.17224153828E+03 0.  0.
        -24    2    5    5    0    0  0.21353553019E+03 -0.55902775467E+02 -0.55408051956E+02  0.24112104191E+03  0.79666565599E+02 0.  0.
          5    1    3    3  501    0 -0.77622776286E+02 -0.28926824988E+02 -0.12979161609E+03  0.15404548098E+03  0.47000000000E+01 0. -1.
        -13    1    4    4    0    0 -0.58469175718E+02  0.70533532054E+02 -0.17336063198E+03  0.19608042323E+03  0.00000000000E+00 0.  1.
         14    1    4    4    0    0 -0.65788295744E+02  0.39211174806E+02 -0.36544187430E+03  0.37338101128E+03  0.00000000000E+00 0. -1.
         -5    1    5    5    0  502 -0.11655282438E+02 -0.24915106405E+02  0.25616962940E+02  0.37880429329E+02  0.47000000000E+01 0.  1.
         11    1    6    6    0    0  0.13777241305E+03 -0.53622909062E+02 -0.70574326517E+02  0.16382121272E+03  0.00000000000E+00 0. -1.
        -12    1    6    6    0    0  0.75763117134E+02 -0.22798664050E+01  0.15166274561E+02  0.77299829190E+02  0.00000000000E+00 0.  1.
</event>
<event>
12    1  0.1050869E+000  0.1972784E+03  0.7818608E-02  0.1155896E+00
         21   -1    0    0  501  502  0.00000000000E+00  0.00000000000E+00  0.15118555308E+03  0.15118555308E+03  0.00000000000E+00 0. -1.
         21   -1    0    0  502  503 -0.00000000000E+00 -0.00000000000E+00 -0.26786730478E+03  0.26786730478E+03  0.00000000000E+00 0. -1.
         -6    2    1    2    0  503  0.27879476014E+02 -0.82855793280E+02  0.16560658041E+02  0.18099339352E+03  0.15761346846E+03 0.  0.
        -24    2    3    3    0    0  0.52075349500E+02 -0.69666552928E+02 -0.33938201043E+02  0.12327319668E+03  0.80493533326E+02 0.  0.
          6    2    1    2  501    0 -0.27879476014E+02  0.82855793280E+02 -0.13324240975E+03  0.23805946433E+03  0.17685140978E+03 0.  0.
         24    2    5    5    0    0 -0.13780242838E+02  0.12413322218E+03 -0.12239340699E+03  0.19286648508E+03  0.81353445229E+02 0.  0.
          5    1    5    5  501    0 -0.14099233176E+02 -0.41277428904E+02 -0.10849002760E+02  0.45192979255E+02  0.47000000000E+01 0. -1.
        -11    1    6    6    0    0  0.24147755631E+02  0.23937825303E+02 -0.59791068345E+02  0.68783031600E+02  0.00000000000E+00 0.  1.
         12    1    6    6    0    0 -0.37927998469E+02  0.10019539688E+03 -0.62602338642E+02  0.12408345348E+03  0.00000000000E+00 0. -1.
         -5    1    3    3    0  503 -0.24195873486E+02 -0.13189240352E+02  0.50498859084E+02  0.57720196843E+02  0.47000000000E+01 0.  1.
         11    1    4    4    0    0  0.68722503466E+00 -0.67017027422E+02 -0.17766770336E+02  0.69335505846E+02  0.00000000000E+00 0. -1.
        -12    1    4    4    0    0  0.51388124465E+02 -0.26495255060E+01 -0.16171430707E+02  0.53937690834E+02  0.00000000000E+00 0.  1.
</event>
<event>
12    1  0.1050869E+000  0.1817213E+03  0.7818608E-02  0.1167030E+00
         21   -1    0    0  501  502  0.00000000000E+00  0.00000000000E+00  0.12598494960E+02  0.12598494960E+02  0.00000000000E+00 0. -1.
         21   -1    0    0  502  503 -0.00000000000E+00 -0.00000000000E+00 -0.25878304733E+04  0.25878304733E+04  0.00000000000E+00 0. -1.
         -6    2    1    2    0  503 -0.45068031882E+02  0.37755934917E+02 -0.11628804174E+04  0.11764347377E+04  0.16808089889E+03 0.  0.
        -24    2    3    3    0    0  0.42038226582E+02  0.21629636471E+02 -0.75227836698E+03  0.75635892115E+03  0.62618068598E+02 0.  0.
          6    2    1    2  501    0  0.45068031882E+02 -0.37755934917E+02 -0.14123515609E+04  0.14239942306E+04  0.17194766385E+03 0.  0.
         24    2    5    5    0    0  0.18361446625E+01 -0.55995261050E+02 -0.45423978590E+03  0.46472266713E+03  0.80588668980E+02 0.  0.
          5    1    5    5  501    0  0.43231887219E+02  0.18239326133E+02 -0.95811177497E+03  0.95927156344E+03  0.47000000000E+01 0. -1.
        -11    1    6    6    0    0  0.14968581461E+02 -0.23364539201E+02 -0.39392260231E+03  0.39489869173E+03  0.00000000000E+00 0.  1.
         12    1    6    6    0    0 -0.13132436798E+02 -0.32630721849E+02 -0.60317183592E+02  0.69823975403E+02  0.00000000000E+00 0. -1.
         -5    1    3    3    0  503 -0.87106258463E+02  0.16126298446E+02 -0.41060205047E+03  0.42007581651E+03  0.47000000000E+01 0.  1.
         11    1    4    4    0    0  0.48155545268E+02 -0.70059264465E+01 -0.42646061612E+03  0.42922802407E+03  0.00000000000E+00 0. -1.
        -12    1    4    4    0    0 -0.61173186865E+01  0.28635562917E+02 -0.32581775086E+03  0.32713089708E+03  0.00000000000E+00 0.  1.
</event>
<event>
12    1  0.1050869E+000  0.1903557E+03  0.7818608E-02  0.1159845E+00
         21   -1    0    0  501  502  0.00000000000E+00  0.00000000000E+00  0.59715425754E+02  0.59715425754E+02  0.00000000000E+00 0. -1.
         21   -1    0    0  502  503 -0.00000000000E+00 -0.00000000000E+00 -0.14264901652E+04  0.14264901652E+04  0.00000000000E+00 0. -1.
         -6    2    1    2    0  503  0.27335694981E+02 -0.75436733915E+02 -0.12601783570E+04  0.12744743171E+04  0.17261909648E+03 0.  0.
        -24    2    3    3    0    0  0.36400410005E+02 -0.10192179770E+03 -0.65286357016E+03  0.66649654780E+03  0.79207097458E+02 0.  0.
          6    2    1    2  501    0 -0.27335694981E+02  0.75436733915E+02 -0.10659638243E+03  0.21173127383E+03  0.16440621195E+03 0.  0.
         24    2    5    5    0    0 -0.46591457083E+02  0.20546485899E+02 -0.38648050191E+01  0.93580562031E+02  0.78418511311E+02 0.  0.
          5    1    5    5  501    0  0.19255762102E+02  0.54890248016E+02 -0.10273157741E+03  0.11815071180E+03  0.47000000000E+01 0. -1.
        -13    1    6    6    0    0 -0.73428935110E+01 -0.13576828045E+02  0.28438097408E+02  0.32356973422E+02  0.00000000000E+00 0.  1.
         14    1    6    6    0    0 -0.39248563572E+02  0.34123313944E+02 -0.32302902427E+02  0.61223588609E+02  0.00000000000E+00 0. -1.
         -5    1    3    3    0  503 -0.90647150238E+01  0.26485063784E+02 -0.60731478682E+03  0.60797776929E+03  0.47000000000E+01 0.  1.
         13    1    4    4    0    0  0.13380330761E+01 -0.27694900018E+02 -0.43210945577E+02  0.51341831261E+02  0.00000000000E+00 0. -1.
        -14    1    4    4    0    0  0.35062376929E+02 -0.74226897680E+02 -0.60965262459E+03  0.61515471654E+03  0.00000000000E+00 0.  1.
</event>
<event>
12    1  0.1050869E+000  0.2127386E+03  0.7818608E-02  0.1141415E+00
         21   -1    0    0  503  502  0.00000000000E+00  0.00000000000E+00  0.96869667994E+03  0.96869667994E+03  0.00000000000E+00 0.  1.
         21   -1    0    0  501  503 -0.00000000000E+00 -0.00000000000E+00 -0.49047154484E+02  0.49047154484E+02  0.00000000000E+00 0.  1.
          6    2    1    2  501    0  0.47497179424E+02  0.96822902670E+02  0.60384538523E+03  0.63696835383E+03  0.17166472548E+03 0.  0.
         24    2    3    3    0    0  0.21042752144E+02  0.13295427799E+03  0.44952166456E+03  0.47621010749E+03  0.81158499906E+02 0.  0.
         -6    2    1    2    0  502 -0.47497179424E+02 -0.96822902670E+02  0.31580414022E+03  0.38077548059E+03  0.18337681180E+03 0.  0.
        -24    2    5    5    0    0 -0.24545189347E+02 -0.12964130538E+03  0.30065041789E+03  0.33769919123E+03  0.78998326577E+02 0.  0.
          5    1    3    3  501    0  0.26454427280E+02 -0.36131375319E+02  0.15432372067E+03  0.16075824634E+03  0.47000000000E+01 0. -1.
        -11    1    4    4    0    0 -0.23832097565E+02  0.20956092939E+02  0.14960942826E+03  0.15293824809E+03  0.00000000000E+00 0.  1.
         12    1    4    4    0    0  0.44874849710E+02  0.11199818505E+03  0.29991223630E+03  0.32327185939E+03  0.00000000000E+00 0. -1.
         -5    1    5    5    0  502 -0.22951990077E+02  0.32818402706E+02  0.15153722331E+02  0.43076289362E+02  0.47000000000E+01 0.  1.
         13    1    6    6    0    0  0.16414560724E+02 -0.83376875486E+02  0.22180399117E+03  0.23752505482E+03  0.00000000000E+00 0. -1.
        -14    1    6    6    0    0 -0.40959750071E+02 -0.46264429890E+02  0.78846426721E+02  0.10017413641E+03  0.00000000000E+00 0.  1.
</event>
<event>
12    1  0.1050869E+000  0.2390290E+03  0.7818608E-02  0.1120443E+00
         21   -1    0    0  501  502  0.00000000000E+00  0.00000000000E+00  0.23297095596E+03  0.23297095596E+03  0.00000000000E+00 0.  1.
         21   -1    0    0  502  503 -0.00000000000E+00 -0.00000000000E+00 -0.27717327578E+03  0.27717327578E+03  0.00000000000E+00 0.  1.
         -6    2    1    2    0  503  0.13719778779E+02 -0.16561690562E+03 -0.10869141539E+03  0.26258080482E+03  0.17180705319E+03 0.  0.
        -24    2    3    3    0    0  0.46420446897E+02 -0.41544341095E+02 -0.86941810605E+02  0.13235611335E+03  0.77964556959E+02 0.  0.
          6    2    1    2  501    0 -0.13719778779E+02  0.16561690562E+03  0.64489095570E+02  0.24756342691E+03  0.17178945002E+03 0.  0.
         24    2    5    5    0    0 -0.22288036244E+02  0.15940045764E+03  0.10275311068E+03  0.20758488124E+03  0.81412644672E+02 0.  0.
          5    1    5    5  501    0  0.85682574646E+01  0.62164479789E+01 -0.38264015106E+02  0.39978545665E+02  0.47000000000E+01 0. -1.
        -13    1    6    6    0    0  0.12207366362E+01  0.28591537693E+01  0.35430990490E+02  0.35567120284E+02  0.00000000000E+00 0.  1.
         14    1    6    6    0    0 -0.23508772880E+02  0.15654130387E+03  0.67322120187E+02  0.17201776096E+03  0.00000000000E+00 0. -1.
         -5    1    3    3    0  503 -0.32700668117E+02 -0.12407256452E+03 -0.21749604785E+02  0.13022469148E+03  0.47000000000E+01 0.  1.
         11    1    4    4    0    0 -0.11862627890E+02 -0.39524937134E+02 -0.40300327409E+02  0.57680663876E+02  0.00000000000E+00 0. -1.
        -12    1    4    4    0    0  0.58283074786E+02 -0.20194039612E+01 -0.46641483195E+02  0.74675449470E+02  0.00000000000E+00 0.  1.
</event>
<event>
12    1  0.1050869E+000  0.3019213E+03  0.7818608E-02  0.1084421E+00
         21   -1    0    0  503  502  0.00000000000E+00  0.00000000000E+00  0.66605802230E+03  0.66605802230E+03  0.00000000000E+00 0.  1.
         21   -1    0    0  501  503 -0.00000000000E+00 -0.00000000000E+00 -0.14447609884E+03  0.14447609884E+03  0.00000000000E+00 0.  1.
          6    2    1    2  501    0  0.14955910499E+03  0.19768568653E+03  0.35638512570E+03  0.46637365613E+03  0.17043025778E+03 0.  0.
         24    2    3    3    0    0  0.88100549651E+02  0.17140139421E+03  0.17619958211E+03  0.27413178201E+03  0.83437380031E+02 0.  0.
         -6    2    1    2    0  502 -0.14955910499E+03 -0.19768568653E+03  0.16519679776E+03  0.34416046502E+03  0.17236266170E+03 0.  0.
        -24    2    5    5    0    0 -0.11063103846E+03 -0.21560417201E+03  0.14371090687E+03  0.29599201068E+03  0.90741721247E+02 0.  0.
          5    1    3    3  501    0  0.61458555342E+02  0.26284292323E+02  0.18018554359E+03  0.19224187412E+03  0.47000000000E+01 0. -1.
        -13    1    4    4    0    0 -0.15383489532E+02  0.24848345562E+02  0.36446567305E+02  0.46716638317E+02  0.00000000000E+00 0.  1.
         14    1    4    4    0    0  0.10348403918E+03  0.14655304864E+03  0.13975301480E+03  0.22741514369E+03  0.00000000000E+00 0. -1.
         -5    1    5    5    0  502 -0.38928066538E+02  0.17918485479E+02  0.21485890888E+02  0.48168454340E+02  0.47000000000E+01 0.  1.
         11    1    6    6    0    0  0.13070295512E+02 -0.45812793225E+02  0.37292372153E+02  0.60500955932E+02  0.00000000000E+00 0. -1.
        -12    1    6    6    0    0 -0.12370133397E+03 -0.16979137878E+03  0.10641853472E+03  0.23549105475E+03  0.00000000000E+00 0.  1.
</event>
<event>
12    1  0.1050869E+000  0.2185304E+03  0.7818608E-02  0.1137017E+00
         21   -1    0    0  503  502  0.00000000000E+00  0.00000000000E+00  0.57331163342E+02  0.57331163342E+02  0.00000000000E+00 0.  1.
         21   -1    0    0  501  503 -0.00000000000E+00 -0.00000000000E+00 -0.10882075867E+04  0.10882075867E+04  0.00000000000E+00 0.  1.
          6    2    1    2  501    0  0.87586533948E+02 -0.77738590898E+02 -0.22661596387E+03  0.31481789952E+03  0.18450155917E+03 0.  0.
         24    2    3    3    0    0 -0.23049284652E+02 -0.72599014394E+01 -0.11042147419E+03  0.13951593303E+03  0.81779079935E+02 0.  0.
         -6    2    1    2    0  502 -0.87586533948E+02  0.77738590898E+02 -0.80426045947E+03  0.83072085050E+03  0.17189402358E+03 0.  0.
        -24    2    5    5    0    0  0.24767286379E+01  0.32539550616E+01 -0.46055818721E+03  0.46766067064E+03  0.81092149111E+02 0.  0.
          5    1    3    3  501    0  0.11063581860E+03 -0.70478689459E+02 -0.11619448968E+03  0.17530196650E+03  0.47000000000E+01 0. -1.
        -13    1    4    4    0    0 -0.86154683823E+00  0.27178938882E+02 -0.67128055906E+01  0.28008904666E+02  0.00000000000E+00 0.  1.
         14    1    4    4    0    0 -0.22187737814E+02 -0.34438840322E+02 -0.10370866859E+03  0.11150702836E+03  0.00000000000E+00 0. -1.
         -5    1    5    5    0  502 -0.90063262585E+02  0.74484635837E+02 -0.34370227227E+03  0.36306017987E+03  0.47000000000E+01 0.  1.
         11    1    6    6    0    0 -0.22085520290E+02  0.19755669413E+02 -0.70400985846E+02  0.76382952866E+02  0.00000000000E+00 0. -1.
        -12    1    6    6    0    0  0.24562248928E+02 -0.16501714351E+02 -0.39015720136E+03  0.39127771777E+03  0.00000000000E+00 0.  1.
</event>
<event>
12    1  0.1050869E+000  0.4074410E+03  0.7818608E-02  0.1041508E+00
         21   -1    0    0  501  502  0.00000000000E+00  0.00000000000E+00  0.23728092118E+03  0.23728092118E+03  0.00000000000E+00 0.  1.
         21   -1    0    0  502  503 -0.00000000000E+00 -0.00000000000E+00 -0.71063464695E+03  0.71063464695E+03  0.00000000000E+00 0.  1.
         -6    2    1    2    0  503 -0.23263540777E+03  0.28680349988E+03 -0.30995769796E+03  0.51193942296E+03  0.17214156318E+03 0.  0.
        -24    2    3    3    0    0 -0.14505454588E+03  0.85016861293E+02 -0.14172412589E+03  0.23496852259E+03  0.82799702701E+02 0.  0.
          6    2    1    2  501    0  0.23263540777E+03 -0.28680349988E+03 -0.16339602780E+03  0.43597614516E+03  0.16432119997E+03 0.  0.
         24    2    5    5    0    0  0.14170414292E+03 -0.26329227071E+03 -0.11551595398E+03  0.33044954049E+03  0.80312385436E+02 0.  0.
          5    1    5    5  501    0  0.90931264850E+02 -0.23511229175E+02 -0.47880073824E+02  0.10552660467E+03  0.47000000000E+01 0. -1.
        -13    1    6    6    0    0  0.24748850234E+02 -0.82410377033E+02 -0.33868316351E-01  0.86046365279E+02  0.00000000000E+00 0.  1.
         14    1    6    6    0    0  0.11695529268E+03 -0.18088189367E+03 -0.11548208566E+03  0.24440317521E+03  0.00000000000E+00 0. -1.
         -5    1    3    3    0  503 -0.87580861890E+02  0.20178663859E+03 -0.16823357207E+03  0.27697090037E+03  0.47000000000E+01 0.  1.
         11    1    4    4    0    0 -0.10120318112E+03  0.94308580457E+02 -0.12699149289E+03  0.18778453473E+03  0.00000000000E+00 0. -1.
        -12    1    4    4    0    0 -0.43851364755E+02 -0.92917191641E+01 -0.14732633004E+02  0.47183987868E+02  0.00000000000E+00 0.  1.
</event>
<event>
12    1  0.1050869E+000  0.2666168E+03  0.7818608E-02  0.1104182E+00
         21   -1    0    0  501  502  0.00000000000E+00  0.00000000000E+00  0.37612745542E+02  0.37612745542E+02  0.00000000000E+00 0. -1.
         21   -1    0    0  502  503 -0.00000000000E+00 -0.00000000000E+00 -0.18731106714E+04  0.18731106714E+04  0.00000000000E+00 0. -1.
         -6    2    1    2    0  503  0.18395427677E+03  0.54506472969E+02 -0.10248415559E+04  0.10573487930E+04  0.17571603195E+03 0.  0.
        -24    2    3    3    0    0  0.21763459255E+02  0.71535076448E+00 -0.46651825705E+03  0.47344268572E+03  0.77682254184E+02 0.  0.
          6    2    1    2  501    0 -0.18395427677E+03 -0.54506472969E+02 -0.81065636996E+03  0.85337462391E+03  0.18513337637E+03 0.  0.
         24    2    5    5    0    0 -0.17812161732E+03  0.14195725255E+02 -0.53473004002E+03  0.56892525846E+03  0.76229291172E+02 0.  0.
          5    1    5    5  501    0 -0.58326594421E+01 -0.68702198223E+02 -0.27592632994E+03  0.28444936546E+03  0.47000000000E+01 0. -1.
        -13    1    6    6    0    0 -0.18080221333E+03  0.93892518933E+01 -0.46535743671E+03  0.49933469968E+03  0.00000000000E+00 0.  1.
         14    1    6    6    0    0  0.26805960098E+01  0.48064733616E+01 -0.69372603310E+02  0.69590558779E+02  0.00000000000E+00 0. -1.
         -5    1    3    3    0  503  0.16219081751E+03  0.53791122204E+02 -0.55832329883E+03  0.58390610728E+03  0.47000000000E+01 0.  1.
         11    1    4    4    0    0 -0.15662689540E+02  0.14220248956E+02 -0.41642252978E+02  0.46707735517E+02  0.00000000000E+00 0. -1.
        -12    1    4    4    0    0  0.37426148795E+02 -0.13504898192E+02 -0.42487600407E+03  0.42673495020E+03  0.00000000000E+00 0.  1.
</event>
<event>
12    1  0.1050869E+000  0.2979124E+03  0.7818608E-02  0.1086494E+00
         21   -1    0    0  503  502  0.00000000000E+00  0.00000000000E+00  0.45573951684E+02  0.45573951684E+02  0.00000000000E+00 0. -1.
         21   -1    0    0  501  503 -0.00000000000E+00 -0.00000000000E+00 -0.19643112456E+04  0.19643112456E+04  0.00000000000E+00 0. -1.
          6    2    1    2  501    0  0.15522243183E+03  0.18743323937E+03 -0.83792331767E+03  0.88876493981E+03  0.16900416968E+03 0.  0.
         24    2    3    3    0    0  0.15171497621E+03  0.14372726098E+03 -0.49842085625E+03  0.54641055310E+03  0.80412580053E+02 0.  0.
         -6    2    1    2    0  502 -0.15522243183E+03 -0.18743323937E+03 -0.10808139763E+04  0.11211202575E+04  0.17183293606E+03 0.  0.
        -24    2    5    5    0    0 -0.14385163253E+03 -0.10458159267E+03 -0.54104697598E+03  0.57489301995E+03  0.78355296348E+02 0.  0.
          5    1    3    3  501    0  0.35074556155E+01  0.43705978394E+02 -0.33950246142E+03  0.34235438671E+03  0.47000000000E+01 0. -1.
        -13    1    4    4    0    0  0.97431551034E+02  0.44060446482E+02 -0.19392614656E+03  0.22145333685E+03  0.00000000000E+00 0.  1.
         14    1    4    4    0    0  0.54283425177E+02  0.99666814498E+02 -0.30449470969E+03  0.32495721625E+03  0.00000000000E+00 0. -1.
         -5    1    5    5    0  502 -0.11370799298E+02 -0.82851646704E+02 -0.53976700030E+03  0.54622723756E+03  0.47000000000E+01 0.  1.
         13    1    6    6    0    0 -0.46132159150E+02 -0.18537198576E+02 -0.26572551541E+03  0.27033655575E+03  0.00000000000E+00 0. -1.
        -14    1    6    6    0    0 -0.97719473379E+02 -0.86044394095E+02 -0.27532146058E+03  0.30455646420E+03  0.00000000000E+00 0.  1.
</event>
<event>
12    1  0.1050869E+000  0.3295857E+03  0.7818608E-02  0.1071336E+00
         21   -1    0    0  501  502  0.00000000000E+00  0.00000000000E+00  0.23010505534E+03  0.23010505534E+03  0.00000000000E+00 0.  1.
         21   -1    0    0  502  503 -0.00000000000E+00 -0.00000000000E+00 -0.69142120855E+03  0.69142120855E+03  0.00000000000E+00 0.  1.
         -6    2    1    2    0  503  0.15691994818E+02 -0.28035164146E+03 -0.49033084298E+03  0.59080546838E+03  0.17257892199E+03 0.  0.
        -24    2    3    3    0    0  0.51325019236E+02 -0.81724212945E+02 -0.18696043107E+03  0.22641794854E+03  0.83652734894E+02 0.  0.
          6    2    1    2  501    0 -0.15691994818E+02  0.28035164146E+03  0.29014689771E+02  0.33072079551E+03  0.17231108724E+03 0.  0.
         24    2    5    5    0    0 -0.44337617645E+02  0.10995044218E+03  0.60664079082E+02  0.15499113305E+03  0.79291845479E+02 0.  0.
          5    1    5    5  501    0  0.28645622826E+02  0.17040119928E+03 -0.31649389311E+02  0.17572966246E+03  0.47000000000E+01 0. -1.
        -13    1    6    6    0    0  0.12853206738E+02 -0.32587073645E+01 -0.21849194160E+01  0.13438674413E+02  0.00000000000E+00 0.  1.
         14    1    6    6    0    0 -0.57190824382E+02  0.11320914954E+03  0.62848998498E+02  0.14155245864E+03  0.00000000000E+00 0. -1.
         -5    1    3    3    0  503 -0.35633024418E+02 -0.19862742851E+03 -0.30337041192E+03  0.36438751984E+03  0.47000000000E+01 0.  1.
         13    1    4    4    0    0  0.33708485880E+02 -0.67597244574E+02 -0.18920466268E+03  0.20372543748E+03  0.00000000000E+00 0. -1.
        -14    1    4    4    0    0  0.17616533356E+02 -0.14126968371E+02  0.22442316148E+01  0.22692511063E+02  0.00000000000E+00 0.  1.
</event>
<event>
12    1  0.1050869E+000  0.2318103E+03  0.7818608E-02  0.1125454E+00
         21   -1    0    0  503  502  0.00000000000E+00  0.00000000000E+00  0.16865032851E+04  0.16865032851E+04  0.00000000000E+00 0. -1.
         21   -1    0    0  501  503 -0.00000000000E+00 -0.00000000000E+00 -0.34378447042E+02  0.34378447042E+02  0.00000000000E+00 0.  1.
          6    2    1    2  501    0 -0.54117674807E+01 -0.15501768241E+03  0.10610426021E+04  0.10859689667E+04  0.17163165224E+03 0.  0.
         24    2    3    3    0    0  0.58151822988E+02 -0.12735513109E+03  0.71070772378E+03  0.72881050922E+03  0.80363709262E+02 0.  0.
         -6    2    1    2    0  502  0.54117674807E+01  0.15501768241E+03  0.59108223595E+03  0.63491276544E+03  0.17226793370E+03 0.  0.
        -24    2    5    5    0    0 -0.41889084920E+02  0.13412668814E+03  0.53319081864E+03  0.55714831034E+03  0.79856914079E+02 0.  0.
          5    1    3    3  501    0 -0.63563590468E+02 -0.27662551321E+02  0.35033487831E+03  0.35715845746E+03  0.47000000000E+01 0. -1.
        -13    1    4    4    0    0  0.17435623061E+01 -0.94028501524E+02  0.47181079353E+03  0.48109232378E+03  0.00000000000E+00 0.  1.
         14    1    4    4    0    0  0.56408260681E+02 -0.33326629567E+02  0.23889693026E+03  0.24771818544E+03  0.00000000000E+00 0. -1.
         -5    1    5    5    0  502  0.47300852401E+02  0.20890994273E+02  0.57891417309E+02  0.77764455104E+02  0.47000000000E+01 0.  1.
         11    1    6    6    0    0 -0.18244535015E+02 -0.62169147332E+01  0.60407576962E+02  0.63408110216E+02  0.00000000000E+00 0. -1.
        -12    1    6    6    0    0 -0.23644549906E+02  0.14034360287E+03  0.47278324168E+03  0.49374020012E+03  0.00000000000E+00 0.  1.
</event>
<event>
12    1  0.1050869E+000  0.3051528E+03  0.7818608E-02  0.1082740E+00
         21   -1    0    0  503  502  0.00000000000E+00  0.00000000000E+00  0.74644314844E+02  0.74644314844E+02  0.00000000000E+00 0. -1.
         21   -1    0    0  501  503 -0.00000000000E+00 -0.00000000000E+00 -0.16888175964E+04  0.16888175964E+04  0.00000000000E+00 0. -1.
          6    2    1    2  501    0 -0.29137570239E+02  0.25051784983E+03 -0.35592094201E+03  0.46882611090E+03  0.17178479041E+03 0.  0.
         24    2    3    3    0    0  0.93431500020E+01  0.25252374530E+03 -0.33206982574E+03  0.42326565442E+03  0.70907747495E+02 0.  0.
         -6    2    1    2    0  502  0.29137570239E+02 -0.25051784983E+03 -0.12582523395E+04  0.12946358003E+04  0.17109855197E+03 0.  0.
        -24    2    5    5    0    0  0.23145821751E+02 -0.64904258773E+02 -0.65103183510E+03  0.65963411747E+03  0.80786302978E+02 0.  0.
          5    1    3    3  501    0 -0.38480720241E+02 -0.20058954752E+01 -0.23851116278E+02  0.45560456480E+02  0.47000000000E+01 0. -1.
        -11    1    4    4    0    0 -0.28363722153E+02  0.15342227468E+03 -0.20910351094E+03  0.26089686351E+03  0.00000000000E+00 0.  1.
         12    1    4    4    0    0  0.37706872155E+02  0.99101470618E+02 -0.12296631480E+03  0.16236879091E+03  0.00000000000E+00 0. -1.
         -5    1    5    5    0  502  0.59917484888E+01 -0.18561359105E+03 -0.60722050442E+03  0.63500168285E+03  0.47000000000E+01 0.  1.
         13    1    6    6    0    0  0.26535989324E+02  0.95351540093E+01 -0.26339471412E+03  0.26489970426E+03  0.00000000000E+00 0. -1.
        -14    1    6    6    0    0 -0.33901675737E+01 -0.74439412782E+02 -0.38763712098E+03  0.39473441321E+03  0.00000000000E+00 0.  1.
</event>
<event>
12    1  0.1050869E+000  0.3760680E+03  0.7818608E-02  0.1052409E+00
         21   -1    0    0  501  502  0.00000000000E+00  0.00000000000E+00  0.15276744370E+03  0.15276744370E+03  0.00000000000E+00 0.  1.
         21   -1    0    0  502  503 -0.00000000000E+00 -0.00000000000E+00 -0.93012966119E+03  0.93012966119E+03  0.00000000000E+00 0.  1.
         -6    2    1    2    0  503 -0.32974951302E+03  0.55354843011E+02 -0.35036853159E+03  0.51398954698E+03  0.17212857545E+03 0.  0.
        -24    2    3    3    0    0 -0.27526810828E+03  0.67378595807E+02 -0.35071610390E+03  0.45799843250E+03  0.80301756062E+02 0.  0.
          6    2    1    2  501    0  0.32974951302E+03 -0.55354843011E+02 -0.42699368590E+03  0.56890755792E+03  0.17185255796E+03 0.  0.
         24    2    5    5    0    0  0.61192309643E+02  0.36143261036E+01 -0.11396624334E+03  0.15224389958E+03  0.80201859226E+02 0.  0.
          5    1    5    5  501    0  0.26855720338E+03 -0.58969169115E+02 -0.31302744255E+03  0.41666365834E+03  0.47000000000E+01 0. -1.
        -13    1    6    6    0    0  0.30647591050E+02 -0.38024023268E+02 -0.62720104769E+02  0.79491589020E+02  0.00000000000E+00 0.  1.
         14    1    6    6    0    0  0.30544718593E+02  0.41638349371E+02 -0.51246138576E+02  0.72752310556E+02  0.00000000000E+00 0. -1.
         -5    1    3    3    0  503 -0.54481404739E+02 -0.12023752796E+02  0.34757230952E+00  0.55991114475E+02  0.47000000000E+01 0.  1.
         13    1    4    4    0    0 -0.14258487925E+03  0.75547444471E+02 -0.20174716565E+03  0.25834044013E+03  0.00000000000E+00 0. -1.
        -14    1    4    4    0    0 -0.13268322903E+03 -0.81688486640E+01 -0.14896893825E+03  0.19965799237E+03  0.00000000000E+00 0.  1.
</event>
<event>
12    1  0.1050869E+000  0.1880692E+03  0.7818608E-02  0.1160222E+00
         21   -1    0    0  501  502  0.00000000000E+00  0.00000000000E+00  0.49938685128E+02  0.49938685128E+02  0.00000000000E+00 0. -1.
         21   -1    0    0  502  503 -0.00000000000E+00 -0.00000000000E+00 -0.10007732806E+04  0.10007732806E+04  0.00000000000E+00 0. -1.
         -6    2    1    2    0  503 -0.50541250190E+02  0.56037246981E+02 -0.75947152227E+03  0.78240271352E+03  0.17222781995E+03 0.  0.
        -24    2    3    3    0    0  0.20280806471E+02 -0.16157717893E+01 -0.20050167073E+03  0.21600266125E+03  0.77732283329E+02 0.  0.
          6    2    1    2  501    0  0.50541250190E+02 -0.56037246981E+02 -0.19136307316E+03  0.26830925216E+03  0.17226560309E+03 0.  0.
         24    2    5    5    0    0 -0.54040474353E+01  0.29183123913E+02 -0.99081977040E+02  0.13072190303E+03  0.79938221812E+02 0.  0.
          5    1    5    5  501    0  0.55945297625E+02 -0.85220370894E+02 -0.92281096119E+02  0.13758734914E+03  0.47000000000E+01 0. -1.
        -13    1    6    6    0    0  0.14362353799E+02 -0.14741704191E+02 -0.32402730199E-01  0.20581450363E+02  0.00000000000E+00 0.  1.
         14    1    6    6    0    0 -0.19766401234E+02  0.43924828105E+02 -0.99049574310E+02  0.11014045266E+03  0.00000000000E+00 0. -1.
         -5    1    3    3    0  503 -0.70822056661E+02  0.57653018770E+02 -0.55896985154E+03  0.56640005227E+03  0.47000000000E+01 0.  1.
         13    1    4    4    0    0  0.20076626614E+02 -0.29020727350E+02 -0.17514925418E+03  0.17866878516E+03  0.00000000000E+00 0. -1.
        -14    1    4    4    0    0  0.20417985682E+00  0.27404955561E+02 -0.25352416553E+02  0.37333876088E+02  0.00000000000E+00 0.  1.
</event>
<event>
12    1  0.1050869E+000  0.1854361E+03  0.7818608E-02  0.1163078E+00
         21   -1    0    0  503  502  0.00000000000E+00  0.00000000000E+00  0.41744329236E+03  0.41744329236E+03  0.00000000000E+00 0.  1.
         21   -1    0    0  501  503 -0.00000000000E+00 -0.00000000000E+00 -0.82301521441E+02  0.82301521441E+02  0.00000000000E+00 0.  1.
          6    2    1    2  501    0 -0.40491039663E+02  0.53122310715E+02  0.19226671701E+03  0.26711986938E+03  0.17298852551E+03 0.  0.
         24    2    3    3    0    0 -0.64093456560E+02 -0.10330561335E+01  0.18053911334E+03  0.20670874019E+03  0.77621475419E+02 0.  0.
         -6    2    1    2    0  502  0.40491039663E+02 -0.53122310715E+02  0.14287505390E+03  0.23262494442E+03  0.17099584659E+03 0.  0.
        -24    2    5    5    0    0 -0.31126848448E+02 -0.47788879045E+02  0.37075038688E+02  0.10466674574E+03  0.79548171032E+02 0.  0.
          5    1    3    3  501    0  0.23602416897E+02  0.54155366849E+02  0.11727603671E+02  0.60411129188E+02  0.47000000000E+01 0. -1.
        -11    1    4    4    0    0  0.59304435238E+01  0.98858810821E+01  0.94677892470E+02  0.95377167748E+02  0.00000000000E+00 0.  1.
         12    1    4    4    0    0 -0.70023900084E+02 -0.10918937216E+02  0.85861220870E+02  0.11133157244E+03  0.00000000000E+00 0. -1.
         -5    1    5    5    0  502  0.71617888110E+02 -0.53334316708E+01  0.10580001522E+03  0.12795819868E+03  0.47000000000E+01 0.  1.
         11    1    6    6    0    0  0.25303797068E+02 -0.25494935197E+02  0.22088686261E+02  0.42168518204E+02  0.00000000000E+00 0. -1.
        -12    1    6    6    0    0 -0.56430645515E+02 -0.22293943847E+02  0.14986352427E+02  0.62498227532E+02  0.00000000000E+00 0.  1.
</event>
<event>
12    1  0.1050869E+000  0.2986750E+03  0.7818608E-02  0.1085981E+00
         21   -1    0    0  501  502  0.00000000000E+00  0.00000000000E+00  0.94034054913E+03  0.94034054913E+03  0.00000000000E+00 0.  1.
         21   -1    0    0  502  503 -0.00000000000E+00 -0.00000000000E+00 -0.11148778862E+03  0.11148778862E+03  0.00000000000E+00 0. -1.
         -6    2    1    2    0  503  0.23567502329E+03  0.62376143609E+02  0.61902089962E+03  0.68730896286E+03  0.17254922885E+03 0.  0.
        -24    2    3    3    0    0  0.95480900089E+02  0.92880263184E+02  0.36124287971E+03  0.39225559305E+03  0.74997910422E+02 0.  0.
          6    2    1    2  501    0 -0.23567502329E+03 -0.62376143609E+02  0.20983186090E+03  0.36451937488E+03  0.17149771113E+03 0.  0.
         24    2    5    5    0    0 -0.17479831664E+03  0.12238608257E+01  0.19737058725E+03  0.27547833200E+03  0.79857456490E+02 0.  0.
          5    1    5    5  501    0 -0.60876706648E+02 -0.63600004434E+02  0.12461273651E+02  0.89041042881E+02  0.47000000000E+01 0. -1.
        -11    1    6    6    0    0 -0.69344876159E+01  0.10951661588E+02 -0.35910478934E+01  0.13450711320E+02  0.00000000000E+00 0.  1.
         12    1    6    6    0    0 -0.16786382902E+03 -0.97278007623E+01  0.20096163514E+03  0.26202762068E+03  0.00000000000E+00 0. -1.
         -5    1    3    3    0  503  0.14019412320E+03 -0.30504119575E+02  0.25777801991E+03  0.29505336982E+03  0.47000000000E+01 0.  1.
         13    1    4    4    0    0  0.10681653030E+03  0.76347607745E+02  0.32970798042E+03  0.35488882865E+03  0.00000000000E+00 0. -1.
        -14    1    4    4    0    0 -0.11335630207E+02  0.16532655439E+02  0.31534899289E+02  0.37366764393E+02  0.00000000000E+00 0.  1.
</event>
<event>
12    1  0.1050869E+000  0.2181913E+03  0.7818608E-02  0.1135378E+00
         21   -1    0    0  501  502  0.00000000000E+00  0.00000000000E+00  0.10878561739E+03  0.10878561739E+03  0.00000000000E+00 0.  1.
         21   -1    0    0  502  503 -0.00000000000E+00 -0.00000000000E+00 -0.43861537502E+03  0.43861537502E+03  0.00000000000E+00 0.  1.
         -6    2    1    2    0  503  0.87153544455E+02  0.10077295920E+03 -0.14411691677E+03  0.26087573916E+03  0.17185905844E+03 0.  0.
        -24    2    3    3    0    0  0.19073321578E+02  0.77011900122E+01 -0.95939024618E+01  0.83630704409E+02  0.80491936440E+02 0.  0.
          6    2    1    2  501    0 -0.87153544455E+02 -0.10077295920E+03 -0.18571284086E+03  0.28652525325E+03  0.17279042760E+03 0.  0.
         24    2    5    5    0    0 -0.80050908411E+02 -0.56220504315E+02 -0.63171995882E+02  0.15585881776E+03  0.10359718609E+03 0.  0.
          5    1    5    5  501    0 -0.71026360439E+01 -0.44552454885E+02 -0.12254084498E+03  0.13066643549E+03  0.47000000000E+01 0. -1.
        -13    1    6    6    0    0 -0.16917477796E+02 -0.43873416612E+02  0.19671999023E+02  0.50971220171E+02  0.00000000000E+00 0.  1.
         14    1    6    6    0    0 -0.63133430615E+02 -0.12347087703E+02 -0.82843994905E+02  0.10488759759E+03  0.00000000000E+00 0. -1.
         -5    1    3    3    0  503  0.68080222877E+02  0.93071769188E+02 -0.13452301431E+03  0.17724503475E+03  0.47000000000E+01 0.  1.
         13    1    4    4    0    0  0.47412503066E+02  0.14510436498E+02 -0.18857621802E+02  0.53048167870E+02  0.00000000000E+00 0. -1.
        -14    1    4    4    0    0 -0.28339181488E+02 -0.68092464855E+01  0.92637193406E+01  0.30582536539E+02  0.00000000000E+00 0.  1.
</event>
<event>
12    1  0.1050869E+000  0.1975638E+03  0.7818608E-02  0.1154823E+00
         21   -1    0    0  503  502  0.00000000000E+00  0.00000000000E+00  0.54794980153E+02  0.54794980153E+02  0.00000000000E+00 0.  1.
         21   -1    0    0  501  503 -0.00000000000E+00 -0.00000000000E+00 -0.10206583718E+04  0.10206583718E+04  0.00000000000E+00 0.  1.
          6    2    1    2  501    0 -0.40364961507E+02 -0.61919025531E+02 -0.17650220660E+03  0.26492356399E+03  0.18321618373E+03 0.  0.
         24    2    3    3    0    0 -0.93258069856E+01 -0.10699828572E+03 -0.16139014829E+03  0.20794959521E+03  0.75237293665E+02 0.  0.
         -6    2    1    2    0  502  0.40364961507E+02  0.61919025531E+02 -0.78936118507E+03  0.81052978798E+03  0.16853534015E+03 0.  0.
        -24    2    5    5    0    0  0.90030612535E+02  0.17768308762E+02 -0.40725258761E+03  0.42265734383E+03  0.66055553813E+02 0.  0.
          5    1    3    3  501    0 -0.31039154521E+02  0.45079260187E+02 -0.15112058307E+02  0.56973968781E+02  0.47000000000E+01 0. -1.
        -13    1    4    4    0    0  0.48810853899E+01 -0.53653758793E+02 -0.22306003508E+02  0.58310450348E+02  0.00000000000E+00 0.  1.
         14    1    4    4    0    0 -0.14206892375E+02 -0.53344526925E+02 -0.13908414478E+03  0.14963914486E+03  0.00000000000E+00 0. -1.
         -5    1    5    5    0  502 -0.49665651028E+02  0.44150716769E+02 -0.38210859746E+03  0.38787244416E+03  0.47000000000E+01 0.  1.
         13    1    6    6    0    0  0.52738998975E+02 -0.10311700308E+02 -0.31185086530E+03  0.31644698665E+03  0.00000000000E+00 0. -1.
        -14    1    6    6    0    0  0.37291613560E+02  0.28080009070E+02 -0.95401722310E+02  0.10621035717E+03  0.00000000000E+00 0.  1.
</event>
<event>
12    1  0.1050869E+000  0.2786630E+03  0.7818608E-02  0.1096450E+00
         21   -1    0    0  501  502  0.00000000000E+00  0.00000000000E+00  0.20435729107E+03  0.20435729107E+03  0.00000000000E+00 0. -1.
         21   -1    0    0  502  503 -0.00000000000E+00 -0.00000000000E+00 -0.54899344440E+03  0.54899344440E+03  0.00000000000E+00 0. -1.
         -6    2    1    2    0  503 -0.21861245116E+03 -0.14417089831E+02  0.36896317814E+02  0.28088902227E+03  0.17186636752E+03 0.  0.
        -24    2    3    3    0    0 -0.35328341399E+02 -0.33240621625E+02  0.18899071078E+01  0.93285906549E+02  0.79659638336E+02 0.  0.
          6    2    1    2  501    0  0.21861245116E+03  0.14417089831E+02 -0.38153247114E+03  0.47246171320E+03  0.17220275150E+03 0.  0.
         24    2    5    5    0    0  0.19783451021E+03  0.49753993161E+02 -0.36951060329E+03  0.42948456958E+03  0.79403754925E+02 0.  0.
          5    1    5    5  501    0  0.20777940951E+02 -0.35336903330E+02 -0.12021867849E+02  0.42977143619E+02  0.47000000000E+01 0. -1.
        -13    1    6    6    0    0  0.13161098819E+03 -0.23856892784E+01 -0.18966302160E+03  0.23086620690E+03  0.00000000000E+00 0.  1.
         14    1    6    6    0    0  0.66223522022E+02  0.52139682440E+02 -0.17984758169E+03  0.19861836268E+03  0.00000000000E+00 0. -1.
         -5    1    3    3    0  503 -0.18328410976E+03  0.18823531794E+02  0.35006410706E+02  0.18760311573E+03  0.47000000000E+01 0.  1.
         11    1    4    4    0    0 -0.37332573840E+01  0.69132648706E+01 -0.31357696476E+02  0.32327009916E+02  0.00000000000E+00 0. -1.
        -12    1    4    4    0    0 -0.31595084016E+02 -0.40153886496E+02  0.33247603583E+02  0.60958896633E+02  0.00000000000E+00 0.  1.
</event>
<event>
12    1  0.1050869E+000  0.2174538E+03  0.7818608E-02  0.1136081E+00
         21   -1    0    0  503  502  0.00000000000E+00  0.00000000000E+00  0.98205939294E+02  0.98205939294E+02  0.00000000000E+00 0. -1.
         21   -1    0    0  501  503 -0.00000000000E+00 -0.00000000000E+00 -0.48485923515E+03  0.48485923515E+03  0.00000000000E+00 0.  1.
          6    2    1    2  501    0 -0.12543227746E+03 -0.29249713670E+02 -0.22688869704E+03  0.31323024079E+03  0.17333753467E+03 0.  0.
         24    2    3    3    0    0 -0.13167788030E+03 -0.27491358276E+02 -0.24900483262E+03  0.28970763844E+03  0.61905332272E+02 0.  0.
         -6    2    1    2    0  502  0.12543227746E+03  0.29249713670E+02 -0.15976459882E+03  0.26983493365E+03  0.17520662774E+03 0.  0.
        -24    2    5    5    0    0  0.14776337735E+03  0.57373699854E+02 -0.14955941320E+03  0.23220685325E+03  0.80163879022E+02 0.  0.
          5    1    3    3  501    0  0.62456028444E+01 -0.17583553941E+01  0.22116135579E+02  0.23522602354E+02  0.47000000000E+01 0. -1.
        -13    1    4    4    0    0  0.90842161557E+00  0.99199573369E+01 -0.22355029078E+02  0.24474029265E+02  0.00000000000E+00 0.  1.
         14    1    4    4    0    0 -0.13258630192E+03 -0.37411315613E+02 -0.22664980354E+03  0.26523360917E+03  0.00000000000E+00 0. -1.
         -5    1    5    5    0  502 -0.22331099890E+02 -0.28123986184E+02 -0.10205185622E+02  0.37628080402E+02  0.47000000000E+01 0.  1.
         13    1    6    6    0    0  0.11826982723E+03  0.75164325858E+01 -0.11273898905E+03  0.16356750424E+03  0.00000000000E+00 0. -1.
        -14    1    6    6    0    0  0.29493550122E+02  0.49857267268E+02 -0.36820424149E+02  0.68639349011E+02  0.00000000000E+00 0.  1.
</event>
<event>
12    1  0.1050869E+000  0.2088137E+03  0.7818608E-02  0.1143375E+00
         21   -1    0    0  503  502  0.00000000000E+00  0.00000000000E+00  0.15499132056E+03  0.15499132056E+03  0.00000000000E+00 0.  1.
         21   -1    0    0  501  503 -0.00000000000E+00 -0.00000000000E+00 -0.27709983269E+03  0.27709983269E+03  0.00000000000E+00 0.  1.
          6    2    1    2  501    0  0.65833339621E+02 -0.93301534339E+02 -0.44356429496E+02  0.20927163456E+03  0.16967003059E+03 0.  0.
         24    2    3    3    0    0  0.38390810105E+02 -0.54208478738E+02 -0.95947016813E+02  0.13880860793E+03  0.75163728837E+02 0.  0.
         -6    2    1    2    0  502 -0.65833339621E+02  0.93301534339E+02 -0.77752082644E+02  0.22281951869E+03  0.17482547479E+03 0.  0.
        -24    2    5    5    0    0 -0.80895041501E+02  0.10081468857E+03 -0.90825573768E+01  0.15196123723E+03  0.79385865248E+02 0.  0.
          5    1    3    3  501    0  0.27442529516E+02 -0.39093055601E+02  0.51590587317E+02  0.70463026633E+02  0.47000000000E+01 0. -1.
        -13    1    4    4    0    0  0.16914237901E+02  0.75796247443E+01  0.43749442702E+01  0.19044219396E+02  0.00000000000E+00 0.  1.
         14    1    4    4    0    0  0.21476572204E+02 -0.61788103482E+02 -0.10032196108E+03  0.11976438853E+03  0.00000000000E+00 0. -1.
         -5    1    5    5    0  502  0.15061701880E+02 -0.75131542357E+01 -0.68669525267E+02  0.70858281453E+02  0.47000000000E+01 0.  1.
         11    1    6    6    0    0  0.58775540138E+01  0.46322449842E+02  0.99559174906E+01  0.47743431942E+02  0.00000000000E+00 0. -1.
        -12    1    6    6    0    0 -0.86772595515E+02  0.54492238733E+02 -0.19038474867E+02  0.10421780529E+03  0.00000000000E+00 0.  1.
</event>
<event>
12    1  0.1050869E+000  0.2811432E+03  0.7818608E-02  0.1095266E+00
         21   -1    0    0  503  502  0.00000000000E+00  0.00000000000E+00  0.47046900363E+03  0.47046900363E+03  0.00000000000E+00 0. -1.
         21   -1    0    0  501  503 -0.00000000000E+00 -0.00000000000E+00 -0.18690612233E+03  0.18690612233E+03  0.00000000000E+00 0. -1.
          6    2    1    2  501    0 -0.15495937921E+03 -0.15689129904E+03  0.24902678075E+03  0.37557403640E+03  0.17439676135E+03 0.  0.
         24    2    3    3    0    0 -0.17358139193E+03 -0.16243736188E+03  0.25185993875E+03  0.35538356947E+03  0.79672181727E+02 0.  0.
         -6    2    1    2    0  502  0.15495937921E+03  0.15689129904E+03  0.34536100549E+02  0.28180108956E+03  0.17202273954E+03 0.  0.
        -24    2    5    5    0    0  0.54642894951E+02  0.57056417530E+02 -0.44450692411E+02  0.11965484680E+03  0.78103377374E+02 0.  0.
          5    1    3    3  501    0  0.18622012718E+02  0.55460628483E+01 -0.28331579960E+01  0.20190466934E+02  0.47000000000E+01 0. -1.
        -13    1    4    4    0    0 -0.17779684320E+03 -0.16641929976E+03  0.23871336393E+03  0.34101491302E+03  0.00000000000E+00 0.  1.
         14    1    4    4    0    0  0.42154512688E+01  0.39819378759E+01  0.13146574815E+02  0.14368656445E+02  0.00000000000E+00 0. -1.
         -5    1    5    5    0  502  0.10031648426E+03  0.99834881505E+02  0.78986792960E+02  0.16214624276E+03  0.47000000000E+01 0.  1.
         11    1    6    6    0    0  0.11227815762E+02 -0.67848731296E+01  0.16650130526E+02  0.21197292202E+02  0.00000000000E+00 0. -1.
        -12    1    6    6    0    0  0.43415079189E+02  0.63841290660E+02 -0.61100822937E+02  0.98457554599E+02  0.00000000000E+00 0.  1.
</event>
<event>
12    1  0.1050869E+000  0.3365714E+03  0.7818608E-02  0.1068270E+00
         21   -1    0    0  503  502  0.00000000000E+00  0.00000000000E+00  0.92428903076E+03  0.92428903076E+03  0.00000000000E+00 0.  1.
         21   -1    0    0  501  503 -0.00000000000E+00 -0.00000000000E+00 -0.12441127900E+03  0.12441127900E+03  0.00000000000E+00 0. -1.
          6    2    1    2  501    0 -0.22781217053E+03 -0.17807279834E+03  0.33568140408E+03  0.47532558078E+03  0.17217460948E+03 0.  0.
         24    2    3    3    0    0 -0.17832876369E+03 -0.16687645388E+03  0.33758553196E+03  0.42433851001E+03  0.80313640640E+02 0.  0.
         -6    2    1    2    0  502  0.22781217053E+03  0.17807279834E+03  0.46419634767E+03  0.57337472898E+03  0.17225569391E+03 0.  0.
        -24    2    5    5    0    0  0.91300679801E+02  0.23380152823E+02  0.23586827420E+03  0.26560695806E+03  0.77658017732E+02 0.  0.
          5    1    3    3  501    0 -0.49483406849E+02 -0.11196344459E+02 -0.19041278822E+01  0.50987070769E+02  0.47000000000E+01 0. -1.
        -13    1    4    4    0    0 -0.23770630163E+02 -0.17420663612E+02  0.98432552023E+02  0.10274964563E+03  0.00000000000E+00 0.  1.
         14    1    4    4    0    0 -0.15455813352E+03 -0.14945579027E+03  0.23915297994E+03  0.32158886439E+03  0.00000000000E+00 0. -1.
         -5    1    5    5    0  502  0.13651149073E+03  0.15469264551E+03  0.22832807347E+03  0.30776777092E+03  0.47000000000E+01 0.  1.
         11    1    6    6    0    0  0.74186819516E+02  0.49415070813E+01  0.86184367105E+02  0.11382375769E+03  0.00000000000E+00 0. -1.
        -12    1    6    6    0    0  0.17113860285E+02  0.18438645741E+02  0.14968390709E+03  0.15178320037E+03  0.00000000000E+00 0.  1.
</event>
<event>
12    1  0.1050869E+000  0.3909442E+03  0.7818608E-02  0.1047111E+00
         21   -1    0    0  503  502  0.00000000000E+00  0.00000000000E+00  0.38845577142E+03  0.38845577142E+03  0.00000000000E+00 0.  1.
         21   -1    0    0  501  503 -0.00000000000E+00 -0.00000000000E+00 -0.45575557074E+03  0.45575557074E+03  0.00000000000E+00 0.  1.
          6    2    1    2  501    0  0.34864468525E+03  0.21790937537E+02  0.12445000158E+03  0.41027446628E+03  0.17552599030E+03 0.  0.
         24    2    3    3    0    0  0.14237224226E+03 -0.41735100345E+02  0.90189141558E+02  0.19168861413E+03  0.81232810904E+02 0.  0.
         -6    2    1    2    0  502 -0.34864468525E+03 -0.21790937537E+02 -0.19174980090E+03  0.43393687588E+03  0.17177096550E+03 0.  0.
        -24    2    5    5    0    0 -0.19393195590E+03 -0.61171525591E+02 -0.16302328917E+03  0.27165883727E+03  0.76618352847E+02 0.  0.
          5    1    3    3  501    0  0.20627244300E+03  0.63526037882E+02  0.34260860027E+02  0.21858585215E+03  0.47000000000E+01 0. -1.
        -13    1    4    4    0    0  0.14403639787E+03 -0.56178669338E+02  0.82133300676E+02  0.17506686117E+03  0.00000000000E+00 0.  1.
         14    1    4    4    0    0 -0.16641556161E+01  0.14443568993E+02  0.80558408816E+01  0.16621752961E+02  0.00000000000E+00 0. -1.
         -5    1    5    5    0  502 -0.15471272935E+03  0.39380588055E+02 -0.28726511731E+02  0.16227803861E+03  0.47000000000E+01 0.  1.
         11    1    6    6    0    0 -0.34032939209E+02  0.18305923890E+02 -0.32209681810E+02  0.50307170493E+02  0.00000000000E+00 0. -1.
        -12    1    6    6    0    0 -0.15989901669E+03 -0.79477449481E+02 -0.13081360736E+03  0.22135166678E+03  0.00000000000E+00 0.  1.
</event>
<event>
12    1  0.1050869E+000  0.2423115E+03  0.7818608E-02  0.1120561E+00
         21   -1    0    0  501  502  0.00000000000E+00  0.00000000000E+00  0.79340184829E+03  0.79340184829E+03  0.00000000000E+00 0. -1.
         21   -1    0    0  502  503 -0.00000000000E+00 -0.00000000000E+00 -0.20143514372E+03  0.20143514372E+03  0.00000000000E+00 0. -1.
         -6    2    1    2    0  503 -0.12888408504E+03 -0.10149037129E+03  0.70079873096E+03  0.74150772399E+03  0.17833519163E+03 0.  0.
        -24    2    3    3    0    0 -0.11998441634E+03 -0.12690031174E+03  0.68152817437E+03  0.70806652892E+03  0.79859924999E+02 0.  0.
          6    2    1    2  501    0  0.12888408504E+03  0.10149037129E+03 -0.10883202640E+03  0.25332926802E+03  0.15943621052E+03 0.  0.
         24    2    5    5    0    0  0.49488257190E+02  0.18054498927E+02 -0.99092488385E+02  0.13764784826E+03  0.79702925574E+02 0.  0.
          5    1    5    5  501    0  0.79395827852E+02  0.83435872368E+02 -0.97395380136E+01  0.11568141976E+03  0.47000000000E+01 0. -1.
        -11    1    6    6    0    0  0.45919005708E+02  0.47387210049E+02 -0.67872120595E+02  0.94661119344E+02  0.00000000000E+00 0.  1.
         12    1    6    6    0    0  0.35692514823E+01 -0.29332711122E+02 -0.31220367790E+02  0.42986728915E+02  0.00000000000E+00 0. -1.
         -5    1    3    3    0  503 -0.88996686980E+01  0.25409940450E+02  0.19270556588E+02  0.33441195072E+02  0.47000000000E+01 0.  1.
         13    1    4    4    0    0  0.68831864954E+01 -0.33291847505E+02  0.10481960233E+03  0.11019471130E+03  0.00000000000E+00 0. -1.
        -14    1    4    4    0    0 -0.12686760284E+03 -0.93608464239E+02  0.57670857205E+03  0.59787181762E+03  0.00000000000E+00 0.  1.
</event>
<event>
12    1  0.1050869E+000  0.1813799E+03  0.7818608E-02  0.1166583E+00
         21   -1    0    0  501  502  0.00000000000E+00  0.00000000000E+00  0.85946448804E+02  0.85946448804E+02  0.00000000000E+00 0. -1.
         21   -1    0    0  502  503 -0.00000000000E+00 -0.00000000000E+00 -0.47452965791E+03  0.47452965791E+03  0.00000000000E+00 0. -1.
         -6    2    1    2    0  503  0.18108221419E+02 -0.54396619461E+02 -0.70623323112E+02  0.19464405808E+03  0.17208066622E+03 0.  0.
        -24    2    3    3    0    0 -0.36539033228E+02  0.16681565801E+02 -0.23050016621E+02  0.93038249435E+02  0.80693475603E+02 0.  0.
          6    2    1    2  501    0 -0.18108221419E+02  0.54396619461E+02 -0.31795988600E+03  0.36583204863E+03  0.17160331819E+03 0.  0.
         24    2    5    5    0    0 -0.37240214136E+02  0.70648882332E+01 -0.77377517476E+02  0.11984771586E+03  0.83303352825E+02 0.  0.
          5    1    5    5  501    0  0.19131992717E+02  0.47331731228E+02 -0.24058236852E+03  0.24598433277E+03  0.47000000000E+01 0. -1.
        -11    1    6    6    0    0  0.23058016035E+01  0.39419845295E+02 -0.25339218234E+02  0.46918193751E+02  0.00000000000E+00 0.  1.
         12    1    6    6    0    0 -0.39546015739E+02 -0.32354957062E+02 -0.52038299242E+02  0.72929522111E+02  0.00000000000E+00 0. -1.
         -5    1    3    3    0  503  0.54647254646E+02 -0.71078185262E+02 -0.47573306492E+02  0.10160580865E+03  0.47000000000E+01 0.  1.
         11    1    4    4    0    0 -0.47003250879E+02  0.22235805560E+02 -0.44561912548E+02  0.68479929119E+02  0.00000000000E+00 0. -1.
        -12    1    4    4    0    0  0.10464217651E+02 -0.55542397593E+01  0.21511895928E+02  0.24558320317E+02  0.00000000000E+00 0.  1.
</event>
<event>
12    1  0.1050869E+000  0.2463169E+03  0.7818608E-02  0.1115689E+00
         21   -1    0    0  501  502  0.00000000000E+00  0.00000000000E+00  0.57595442573E+03  0.57595442573E+03  0.00000000000E+00 0. -1.
         21   -1    0    0  502  503 -0.00000000000E+00 -0.00000000000E+00 -0.11488295654E+03  0.11488295654E+03  0.00000000000E+00 0. -1.
         -6    2    1    2    0  503 -0.17570847929E+03  0.14329710454E+02  0.13061131974E+03  0.27880339998E+03  0.17202676740E+03 0.  0.
        -24    2    3    3    0    0 -0.14988290830E+03 -0.51485976305E+02  0.78510713236E+02  0.19085325536E+03  0.71731032570E+02 0.  0.
          6    2    1    2  501    0  0.17570847929E+03 -0.14329710454E+02  0.33046014945E+03  0.41203398229E+03  0.17172443590E+03 0.  0.
         24    2    5    5    0    0  0.18950104662E+03  0.22112527037E+02  0.30408583295E+03  0.36474797846E+03  0.64600955624E+02 0.  0.
          5    1    5    5  501    0 -0.13792567329E+02 -0.36442237491E+02  0.26374316504E+02  0.47286003827E+02  0.47000000000E+01 0. -1.
        -13    1    6    6    0    0  0.10191492140E+03 -0.14988732945E+02  0.12507098134E+03  0.16203105780E+03  0.00000000000E+00 0.  1.
         14    1    6    6    0    0  0.87586125217E+02  0.37101259982E+02  0.17901485161E+03  0.20271692066E+03  0.00000000000E+00 0. -1.
         -5    1    3    3    0  503 -0.25825570996E+02  0.65815686758E+02  0.52100606508E+02  0.87950144623E+02  0.47000000000E+01 0.  1.
         11    1    4    4    0    0 -0.12883437281E+03 -0.49692728562E+02  0.34949258788E+02  0.14243985952E+03  0.00000000000E+00 0. -1.
        -12    1    4    4    0    0 -0.21048535487E+02 -0.17932477428E+01  0.43561454448E+02  0.48413395845E+02  0.00000000000E+00 0.  1.
</event>
<event>
12    1  0.1050869E+000  0.2272430E+03  0.7818608E-02  0.1128785E+00
         21   -1    0    0  503  502  0.00000000000E+00  0.00000000000E+00  0.73565834270E+02  0.73565834270E+02  0.00000000000E+00 0.  1.
         21   -1    0    0  501  503 -0.00000000000E+00 -0.00000000000E+00 -0.77852490622E+03  0.77852490622E+03  0.00000000000E+00 0.  1.
          6    2    1    2  501    0 -0.10741284845E+03  0.10115711448E+03 -0.21529860126E+03  0.31226970624E+03  0.17143103544E+03 0.  0.
         24    2    3    3    0    0 -0.13684696220E+02  0.38653484541E+02 -0.16566495596E+03  0.18907368756E+03  0.81379474778E+02 0.  0.
         -6    2    1    2    0  502  0.10741284845E+03 -0.10115711448E+03 -0.48966047068E+03  0.53982103424E+03  0.17282676482E+03 0.  0.
        -24    2    5    5    0    0  0.10999777022E+03 -0.12903539639E+02 -0.24323735100E+03  0.27801610838E+03  0.76567204521E+02 0.  0.
          5    1    3    3  501    0 -0.93728152226E+02  0.62503629934E+02 -0.49633645304E+02  0.12319601869E+03  0.47000000000E+01 0. -1.
        -11    1    4    4    0    0  0.57341832478E+01 -0.24314274657E+02 -0.52008596784E+02  0.57697131203E+02  0.00000000000E+00 0.  1.
         12    1    4    4    0    0 -0.19418879468E+02  0.62967759198E+02 -0.11365635918E+03  0.13137655635E+03  0.00000000000E+00 0. -1.
         -5    1    5    5    0  502 -0.25849217713E+01 -0.88253574836E+02 -0.24642311968E+03  0.26180492586E+03  0.47000000000E+01 0.  1.
         11    1    6    6    0    0  0.98324209060E+02 -0.75031968114E+01 -0.24585202381E+03  0.26489085613E+03  0.00000000000E+00 0. -1.
        -12    1    6    6    0    0  0.11673561158E+02 -0.54003428277E+01  0.26146728071E+01  0.13125252251E+02  0.00000000000E+00 0.  1.
</event>
<event>
12    1  0.1050869E+000  0.1946697E+03  0.7818608E-02  0.1154427E+00
         21   -1    0    0  503  502  0.00000000000E+00  0.00000000000E+00  0.10100071634E+03  0.10100071634E+03  0.00000000000E+00 0. -1.
         21   -1    0    0  501  503 -0.00000000000E+00 -0.00000000000E+00 -0.41991947231E+03  0.41991947231E+03  0.00000000000E+00 0. -1.
          6    2    1    2  501    0 -0.35061699772E+02  0.84527091355E+02 -0.24556342404E+03  0.31336510614E+03  0.17182008775E+03 0.  0.
         24    2    3    3    0    0  0.11126996942E+02  0.89854443643E+02 -0.91832792105E+02  0.15268849433E+03  0.81748905144E+02 0.  0.
         -6    2    1    2    0  502  0.35061699772E+02 -0.84527091355E+02 -0.73355331929E+02  0.20755508251E+03  0.17124238841E+03 0.  0.
        -24    2    5    5    0    0 -0.67991732537E+01  0.45656538599E+01 -0.80458722826E+02  0.10875023393E+03  0.72704424552E+02 0.  0.
          5    1    3    3  501    0 -0.46188696714E+02 -0.53273522881E+01 -0.15373063193E+03  0.16067661180E+03  0.47000000000E+01 0. -1.
        -13    1    4    4    0    0  0.12481922634E+02 -0.11793474619E+02 -0.24917553530E+01  0.17352039678E+02  0.00000000000E+00 0.  1.
         14    1    4    4    0    0 -0.13549256925E+01  0.10164791826E+03 -0.89341036752E+02  0.13533645465E+03  0.00000000000E+00 0. -1.
         -5    1    5    5    0  502  0.41860873026E+02 -0.89092745215E+02  0.71033908970E+01  0.98804848578E+02  0.47000000000E+01 0.  1.
         11    1    6    6    0    0 -0.68032937415E+01  0.20440574923E+02  0.47623927555E+01  0.22063143332E+02  0.00000000000E+00 0. -1.
        -12    1    6    6    0    0  0.41204878201E-02 -0.15874921063E+02 -0.85221115581E+02  0.86687090600E+02  0.00000000000E+00 0.  1.
</event>
<event>
12    1  0.1050869E+000  0.2280922E+03  0.7818608E-02  0.1127998E+00
         21   -1    0    0  503  502  0.00000000000E+00  0.00000000000E+00  0.33768281738E+03  0.33768281738E+03  0.00000000000E+00 0. -1.
         21   -1    0    0  501  503 -0.00000000000E+00 -0.00000000000E+00 -0.16612619516E+03  0.16612619516E+03  0.00000000000E+00 0. -1.
          6    2    1    2  501    0  0.13530940411E+03  0.64363408384E+02  0.17826680948E+02  0.22878775727E+03  0.17197314949E+03 0.  0.
         24    2    3    3    0    0  0.12351521800E+03  0.90584307446E+02 -0.28347814111E+02  0.17419094081E+03  0.77957420830E+02 0.  0.
         -6    2    1    2    0  502 -0.13530940411E+03 -0.64363408384E+02  0.15372994128E+03  0.27502125527E+03  0.17190844315E+03 0.  0.
        -24    2    5    5    0    0 -0.73556644507E+02 -0.36676631836E+02  0.35404302032E+01  0.11022155821E+03  0.73351905050E+02 0.  0.
          5    1    3    3  501    0  0.11794186107E+02 -0.26220899061E+02  0.46174495059E+02  0.54596816459E+02  0.47000000000E+01 0. -1.
        -13    1    4    4    0    0  0.11431571572E+03  0.68317378520E+02  0.47431601873E+01  0.13325856309E+03  0.00000000000E+00 0.  1.
         14    1    4    4    0    0  0.91995022839E+01  0.22266928926E+02 -0.33090974298E+02  0.40932377723E+02  0.00000000000E+00 0. -1.
         -5    1    5    5    0  502 -0.61752759600E+02 -0.27686776548E+02  0.15018951107E+03  0.16479969706E+03  0.47000000000E+01 0.  1.
         13    1    6    6    0    0 -0.88497566009E+02 -0.28714689965E+02  0.62020911372E+00  0.93041588919E+02  0.00000000000E+00 0. -1.
        -14    1    6    6    0    0  0.14940921501E+02 -0.79619418711E+01  0.29202210895E+01  0.17179969292E+02  0.00000000000E+00 0.  1.
</event>
<event>
12    1  0.1050869E+000  0.1780511E+03  0.7818608E-02  0.1170767E+00
         21   -1    0    0  503  502  0.00000000000E+00  0.00000000000E+00  0.40498293542E+02  0.40498293542E+02  0.00000000000E+00 0. -1.
         21   -1    0    0  501  503 -0.00000000000E+00 -0.00000000000E+00 -0.76423438693E+03  0.76423438693E+03  0.00000000000E+00 0. -1.
          6    2    1    2  501    0  0.32634125877E+02  0.34533403025E+02 -0.36084112239E+03  0.40237855656E+03  0.17159442028E+03 0.  0.
         24    2    3    3    0    0 -0.42878163214E+02  0.36423145485E+02 -0.16340511563E+03  0.19093413432E+03  0.81175300591E+02 0.  0.
         -6    2    1    2    0  502 -0.32634125877E+02 -0.34533403025E+02 -0.36289497099E+03  0.40235412391E+03  0.16714825444E+03 0.  0.
        -24    2    5    5    0    0 -0.70213050493E+02 -0.63413333173E+02 -0.23372650460E+03  0.26468492383E+03  0.80491655886E+02 0.  0.
          5    1    3    3  501    0  0.75512289091E+02 -0.18897424592E+01 -0.19743600676E+03  0.21144442224E+03  0.47000000000E+01 0. -1.
        -11    1    4    4    0    0 -0.25199291176E+02  0.58955316555E+02 -0.13986994737E+03  0.15386466717E+03  0.00000000000E+00 0.  1.
         12    1    4    4    0    0 -0.17678872038E+02 -0.22532171070E+02 -0.23535168262E+02  0.37069467150E+02  0.00000000000E+00 0. -1.
         -5    1    5    5    0  502  0.37578924616E+02  0.28879930147E+02 -0.12916846639E+03  0.13766920008E+03  0.47000000000E+01 0.  1.
         11    1    6    6    0    0 -0.60335221962E+02 -0.13021842434E+02 -0.71154916209E+02  0.94196228642E+02  0.00000000000E+00 0. -1.
        -12    1    6    6    0    0 -0.98778285307E+01 -0.50391490739E+02 -0.16257158839E+03  0.17048869519E+03  0.00000000000E+00 0.  1.
</event>
<event>
12    1  0.1050869E+000  0.2342554E+03  0.7818608E-02  0.1123844E+00
         21   -1    0    0  503  502  0.00000000000E+00  0.00000000000E+00  0.87331218533E+03  0.87331218533E+03  0.00000000000E+00 0. -1.
         21   -1    0    0  501  503 -0.00000000000E+00 -0.00000000000E+00 -0.65651107392E+02  0.65651107392E+02  0.00000000000E+00 0. -1.
          6    2    1    2  501    0 -0.11924283419E+03  0.10454558335E+03  0.50612662511E+03  0.55770938974E+03  0.17241511029E+03 0.  0.
         24    2    3    3    0    0 -0.82126948686E+02  0.58906925789E+02  0.17699761194E+03  0.22333164925E+03  0.91290795378E+02 0.  0.
         -6    2    1    2    0  502  0.11924283419E+03 -0.10454558335E+03  0.30153445283E+03  0.38125390299E+03  0.17112241173E+03 0.  0.
        -24    2    5    5    0    0  0.42836140822E+02 -0.55653507601E+02  0.59245478885E+02  0.12249831414E+03  0.81015815311E+02 0.  0.
          5    1    3    3  501    0 -0.37115885503E+02  0.45638657558E+02  0.32912901317E+03  0.33437774048E+03  0.47000000000E+01 0. -1.
        -13    1    4    4    0    0 -0.89874448725E+02  0.45119226559E+02  0.18096152961E+03  0.20702713914E+03  0.00000000000E+00 0.  1.
         14    1    4    4    0    0  0.77475000394E+01  0.13787699229E+02 -0.39639176745E+01  0.16304510119E+02  0.00000000000E+00 0. -1.
         -5    1    5    5    0  502  0.76406693367E+02 -0.48892075746E+02  0.24228897395E+03  0.25875558885E+03  0.47000000000E+01 0.  1.
         11    1    6    6    0    0  0.62658384103E+01  0.12806093353E+02 -0.10850009220E+02  0.17915899588E+02  0.00000000000E+00 0. -1.
        -12    1    6    6    0    0  0.36570302412E+02 -0.68459600954E+02  0.70095488106E+02  0.10458241455E+03  0.00000000000E+00 0.  1.
</event>
<event>
12    1  0.1050869E+000  0.1768372E+03  0.7818608E-02  0.1171337E+00
         21   -1    0    0  501  502  0.00000000000E+00  0.00000000000E+00  0.25744110432E+03  0.25744110432E+03  0.00000000000E+00 0. -1.
         21   -1    0    0  502  503 -0.00000000000E+00 -0.00000000000E+00 -0.13285599803E+03  0.13285599803E+03  0.00000000000E+00 0. -1.
         -6    2    1    2    0  503 -0.24387125836E+02 -0.24342008135E+02  0.25039750616E+01  0.17685487932E+03  0.17344772464E+03 0.  0.
        -24    2    3    3    0    0  0.42041573574E+02  0.24844689774E+02  0.33825216603E+01  0.94060162096E+02  0.80318865295E+02 0.  0.
          6    2    1    2  501    0  0.24387125836E+02  0.24342008135E+02  0.12208113123E+03  0.21344222303E+03  0.17165813323E+03 0.  0.
         24    2    5    5    0    0  0.23875672062E+02  0.94529723415E+01 -0.74023750223E+01  0.83019781086E+02  0.78600779214E+02 0.  0.
          5    1    5    5  501    0  0.51145377390E+00  0.14889035794E+02  0.12948350625E+03  0.13042244195E+03  0.47000000000E+01 0. -1.
        -11    1    6    6    0    0  0.24933475002E+02  0.36201257662E+01  0.33373108723E+02  0.41815641477E+02  0.00000000000E+00 0.  1.
         12    1    6    6    0    0 -0.10578029398E+01  0.58328465753E+01 -0.40775483746E+02  0.41204139609E+02  0.00000000000E+00 0. -1.
         -5    1    3    3    0  503 -0.66428699410E+02 -0.49186697910E+02 -0.87854659877E+00  0.82794717227E+02  0.47000000000E+01 0.  1.
         11    1    4    4    0    0 -0.11458075116E+02 -0.20129657005E+02 -0.49127131318E+01  0.23677527886E+02  0.00000000000E+00 0. -1.
        -12    1    4    4    0    0  0.53499648690E+02  0.44974346779E+02  0.82952347921E+01  0.70382634210E+02  0.00000000000E+00 0.  1.
</event>
<event>
12    1  0.1050869E+000  0.2365503E+03  0.7818608E-02  0.1123986E+00
         21   -1    0    0  503  502  0.00000000000E+00  0.00000000000E+00  0.23584315191E+03  0.23584315191E+03  0.00000000000E+00 0. -1.
         21   -1    0    0  501  503 -0.00000000000E+00 -0.00000000000E+00 -0.46158300735E+03  0.46158300735E+03  0.00000000000E+00 0. -1.
          6    2    1    2  501    0 -0.11100272290E+03 -0.11623628039E+03 -0.36294505151E+03  0.43322644209E+03  0.17356140797E+03 0.  0.
         24    2    3    3    0    0 -0.10195063984E+03 -0.64677485070E+02 -0.35043371964E+03  0.37919984671E+03  0.80072603611E+02 0.  0.
         -6    2    1    2    0  502  0.11100272290E+03  0.11623628039E+03  0.13720519607E+03  0.26419971717E+03  0.15856780049E+03 0.  0.
        -24    2    5    5    0    0  0.10655351167E+03  0.49206956138E+02  0.13608127724E+03  0.19684929784E+03  0.80352701654E+02 0.  0.
          5    1    3    3  501    0 -0.90520830601E+01 -0.51558795320E+02 -0.12511331875E+02  0.54026595376E+02  0.47000000000E+01 0. -1.
        -11    1    4    4    0    0 -0.67748200571E+02 -0.73419833337E+02 -0.18716312396E+03  0.21215637058E+03  0.00000000000E+00 0.  1.
         12    1    4    4    0    0 -0.34202439273E+02  0.87423482668E+01 -0.16327059568E+03  0.16704347613E+03  0.00000000000E+00 0. -1.
         -5    1    5    5    0  502  0.44492112372E+01  0.67029324253E+02  0.11239188344E+01  0.67350419331E+02  0.47000000000E+01 0.  1.
         11    1    6    6    0    0  0.68255927341E+02 -0.69538882575E+00  0.32354987297E+02  0.75539396250E+02  0.00000000000E+00 0. -1.
        -12    1    6    6    0    0  0.38297584326E+02  0.49902344963E+02  0.10372628994E+03  0.12130990159E+03  0.00000000000E+00 0.  1.
</event>
<event>
12    1  0.1050869E+000  0.2025313E+03  0.7818608E-02  0.1147689E+00
         21   -1    0    0  503  502  0.00000000000E+00  0.00000000000E+00  0.24409591169E+03  0.24409591169E+03  0.00000000000E+00 0. -1.
         21   -1    0    0  501  503 -0.00000000000E+00 -0.00000000000E+00 -0.17692964612E+03  0.17692964612E+03  0.00000000000E+00 0. -1.
          6    2    1    2  501    0  0.94406484065E+00  0.10641486383E+03 -0.14289083534E+02  0.20303478273E+03  0.17231926934E+03 0.  0.
         24    2    3    3    0    0 -0.15405919651E+02  0.12640967550E+03 -0.50530811582E+02  0.15828361136E+03  0.79269100457E+02 0.  0.
         -6    2    1    2    0  502 -0.94406484065E+00 -0.10641486383E+03  0.81455349097E+02  0.21799077509E+03  0.17193018823E+03 0.  0.
        -24    2    5    5    0    0  0.64446267227E+02 -0.48704088219E+02  0.59738800636E+02  0.12799006605E+03  0.79292642392E+02 0.  0.
          5    1    3    3  501    0  0.16349984492E+02 -0.19994811666E+02  0.36241728049E+02  0.44751171363E+02  0.47000000000E+01 0. -1.
        -11    1    4    4    0    0 -0.45534291067E+02  0.55274723504E+02 -0.14615806627E+02  0.73090960623E+02  0.00000000000E+00 0.  1.
         12    1    4    4    0    0  0.30128371416E+02  0.71134951994E+02 -0.35915004955E+02  0.85192650741E+02  0.00000000000E+00 0. -1.
         -5    1    5    5    0  502 -0.65390332068E+02 -0.57710775613E+02  0.21716548461E+02  0.90000709035E+02  0.47000000000E+01 0.  1.
         13    1    6    6    0    0  0.10301341961E+02 -0.57430952147E+02  0.31186864339E+02  0.66159295779E+02  0.00000000000E+00 0. -1.
        -14    1    6    6    0    0  0.54144925266E+02  0.87268639275E+01  0.28551936298E+02  0.61830770272E+02  0.00000000000E+00 0.  1.
</event>
<event>
12    1  0.1050869E+000  0.3508341E+03  0.7818608E-02  0.1062918E+00
         21   -1    0    0  501  502  0.00000000000E+00  0.00000000000E+00  0.65366729442E+03  0.65366729442E+03  0.00000000000E+00 0. -1.
         21   -1    0    0  502  503 -0.00000000000E+00 -0.00000000000E+00 -0.25616186936E+03  0.25616186936E+03  0.00000000000E+00 0.  1.
         -6    2    1    2    0  503 -0.15199363874E+03  0.26614171186E+03 -0.42364148690E+02  0.34718380130E+03  0.15750680551E+03 0.  0.
        -24    2    3    3    0    0 -0.44607599562E+02  0.16896199568E+03 -0.59401449993E+02  0.20127966057E+03  0.80293060565E+02 0.  0.
          6    2    1    2  501    0  0.15199363874E+03 -0.26614171186E+03  0.43986957375E+03  0.56264536249E+03  0.17073688827E+03 0.  0.
         24    2    5    5    0    0  0.95832705518E+01 -0.88162598264E+02  0.17261815478E+03  0.21135817402E+03  0.83730326400E+02 0.  0.
          5    1    5    5  501    0  0.14241036818E+03 -0.17797911359E+03  0.26725141897E+03  0.35128718847E+03  0.47000000000E+01 0. -1.
        -13    1    6    6    0    0 -0.26733783263E+02 -0.80503439837E+02  0.12191013421E+03  0.14851794443E+03  0.00000000000E+00 0.  1.
         14    1    6    6    0    0  0.36317053815E+02 -0.76591584262E+01  0.50708020564E+02  0.62840229592E+02  0.00000000000E+00 0. -1.
         -5    1    3    3    0  503 -0.10738603917E+03  0.97179716172E+02  0.17037301303E+02  0.14590414072E+03  0.47000000000E+01 0.  1.
         13    1    4    4    0    0 -0.22450473693E+02  0.16857536857E+03 -0.50558485699E+02  0.17741995134E+03  0.00000000000E+00 0. -1.
        -14    1    4    4    0    0 -0.22157125870E+02  0.38662711758E+00 -0.88429642936E+01  0.23859709236E+02  0.00000000000E+00 0.  1.
</event>
<event>
12    1  0.1050869E+000  0.2655095E+03  0.7818608E-02  0.1104046E+00
         21   -1    0    0  503  502  0.00000000000E+00  0.00000000000E+00  0.34839554863E+03  0.34839554863E+03  0.00000000000E+00 0.  1.
         21   -1    0    0  501  503 -0.00000000000E+00 -0.00000000000E+00 -0.20823950725E+03  0.20823950725E+03  0.00000000000E+00 0.  1.
          6    2    1    2  501    0  0.35706310765E+02 -0.19779276289E+03  0.19730718258E+02  0.26509170127E+03  0.17171893069E+03 0.  0.
         24    2    3    3    0    0  0.50405240987E+02 -0.40224539938E+02 -0.12369104068E+02  0.10354823335E+03  0.80065847660E+02 0.  0.
         -6    2    1    2    0  502 -0.35706310765E+02  0.19779276289E+03  0.12042532312E+03  0.29154335461E+03  0.17348876473E+03 0.  0.
        -24    2    5    5    0    0  0.22176363066E+01  0.19260255088E+03  0.13746547047E+03  0.24938151542E+03  0.78700216933E+02 0.  0.
          5    1    3    3  501    0 -0.14698930222E+02 -0.15756822296E+03  0.32099822326E+02  0.16154346792E+03  0.47000000000E+01 0. -1.
        -11    1    4    4    0    0 -0.10084258382E+02  0.96971477956E+01 -0.20370300402E+02  0.24711861139E+02  0.00000000000E+00 0.  1.
         12    1    4    4    0    0  0.60489499369E+02 -0.49921687733E+02  0.80011963334E+01  0.78836372207E+02  0.00000000000E+00 0. -1.
         -5    1    5    5    0  502 -0.37923947072E+02  0.51902120133E+01 -0.17040147349E+02  0.42161839191E+02  0.47000000000E+01 0.  1.
         13    1    6    6    0    0 -0.27917439646E+02  0.13438254932E+03  0.65652227775E+02  0.15214554877E+03  0.00000000000E+00 0. -1.
        -14    1    6    6    0    0  0.30135075952E+02  0.58220001560E+02  0.71813242697E+02  0.97235966653E+02  0.00000000000E+00 0.  1.
</event>
<event>
12    1  0.1050869E+000  0.3180421E+03  0.7818608E-02  0.1076595E+00
         21   -1    0    0  503  502  0.00000000000E+00  0.00000000000E+00  0.14326596533E+03  0.14326596533E+03  0.00000000000E+00 0.  1.
         21   -1    0    0  501  503 -0.00000000000E+00 -0.00000000000E+00 -0.70659479214E+03  0.70659479214E+03  0.00000000000E+00 0. -1.
          6    2    1    2  501    0  0.10475965844E+03 -0.24568231828E+03 -0.30004149706E+03  0.43697939799E+03  0.17202240190E+03 0.  0.
         24    2    3    3    0    0 -0.11375478748E+02 -0.12926317241E+03 -0.11984487558E+03  0.19298411114E+03  0.77728396925E+02 0.  0.
         -6    2    1    2    0  502 -0.10475965844E+03  0.24568231828E+03 -0.26328732974E+03  0.41288135948E+03  0.17267429296E+03 0.  0.
        -24    2    5    5    0    0 -0.11738826364E+03  0.10982133452E+03 -0.17878252070E+03  0.25231722485E+03  0.76551043703E+02 0.  0.
          5    1    3    3  501    0  0.11613513719E+03 -0.11641914587E+03 -0.18019662148E+03  0.24399528685E+03  0.47000000000E+01 0. -1.
        -13    1    4    4    0    0 -0.87371900238E+01 -0.10970062565E+03 -0.50863408527E+02  0.12123387350E+03  0.00000000000E+00 0.  1.
         14    1    4    4    0    0 -0.26382887240E+01 -0.19562546763E+02 -0.68981467057E+02  0.71750237634E+02  0.00000000000E+00 0. -1.
         -5    1    5    5    0  502  0.12628605198E+02  0.13586098377E+03 -0.84504809043E+02  0.16056413463E+03  0.47000000000E+01 0.  1.
         13    1    6    6    0    0 -0.17495457893E+02  0.77319278612E+01 -0.70586904959E+02  0.73132652810E+02  0.00000000000E+00 0. -1.
        -14    1    6    6    0    0 -0.99892805744E+02  0.10208940665E+03 -0.10819561574E+03  0.17918457204E+03  0.00000000000E+00 0.  1.
</event>
<event>
12    1  0.1050869E+000  0.2024999E+03  0.7818608E-02  0.1149613E+00
         21   -1    0    0  503  502  0.00000000000E+00  0.00000000000E+00  0.39472031313E+03  0.39472031313E+03  0.00000000000E+00 0. -1.
         21   -1    0    0  501  503 -0.00000000000E+00 -0.00000000000E+00 -0.11167825876E+03  0.11167825876E+03  0.00000000000E+00 0. -1.
          6    2    1    2  501    0  0.75879314060E+02  0.75864067943E+02  0.22320145823E+03  0.29524195435E+03  0.16073547693E+03 0.  0.
         24    2    3    3    0    0  0.60339599246E+02  0.10003613444E+03  0.22399269497E+03  0.26611314403E+03  0.83638403830E+02 0.  0.
         -6    2    1    2    0  502 -0.75879314060E+02 -0.75864067943E+02  0.59840596131E+02  0.21115661754E+03  0.17173582352E+03 0.  0.
        -24    2    5    5    0    0 -0.10245238351E+03 -0.35405189770E+02  0.82170480012E+02  0.15764248336E+03  0.79681531270E+02 0.  0.
          5    1    3    3  501    0  0.15539714815E+02 -0.24172066497E+02 -0.79123673436E+00  0.29128810323E+02  0.47000000000E+01 0. -1.
        -13    1    4    4    0    0 -0.46611223516E+01 -0.10031595641E+02  0.41614606155E+01  0.11818490899E+02  0.00000000000E+00 0.  1.
         14    1    4    4    0    0  0.65000721597E+02  0.11006773008E+03  0.21983123435E+03  0.25429465313E+03  0.00000000000E+00 0. -1.
         -5    1    5    5    0  502  0.26573069449E+02 -0.40458878172E+02 -0.22329883880E+02  0.53514134180E+02  0.47000000000E+01 0.  1.
         11    1    6    6    0    0 -0.22510197265E+02 -0.22428822135E+02 -0.11519264795E+02  0.33800214565E+02  0.00000000000E+00 0. -1.
        -12    1    6    6    0    0 -0.79942186245E+02 -0.12976367636E+02  0.93689744807E+02  0.12384226880E+03  0.00000000000E+00 0.  1.
</event>
<event>
12    1  0.1050869E+000  0.2427989E+03  0.7818608E-02  0.1118093E+00
         21   -1    0    0  503  502  0.00000000000E+00  0.00000000000E+00  0.32222371298E+03  0.32222371298E+03  0.00000000000E+00 0. -1.
         21   -1    0    0  501  503 -0.00000000000E+00 -0.00000000000E+00 -0.18311938004E+03  0.18311938004E+03  0.00000000000E+00 0. -1.
          6    2    1    2  501    0  0.12703140751E+03  0.11383392743E+03  0.86961132919E+02  0.25790217872E+03  0.17278933308E+03 0.  0.
         24    2    3    3    0    0  0.15039261651E+03  0.12931031176E+03  0.82310800844E+02  0.22911016340E+03  0.79858019057E+02 0.  0.
         -6    2    1    2    0  502 -0.12703140751E+03 -0.11383392743E+03  0.52143200014E+02  0.24744091430E+03  0.17150204440E+03 0.  0.
        -24    2    5    5    0    0 -0.77772308713E+02 -0.14480458097E+03  0.49390463948E+02  0.18900027989E+03  0.79150421326E+02 0.  0.
          5    1    3    3  501    0 -0.23361209008E+02 -0.15476384327E+02  0.46503320742E+01  0.28792015326E+02  0.47000000000E+01 0. -1.
        -13    1    4    4    0    0  0.95718485018E+02  0.34053068400E+02  0.56640380261E+02  0.11631755034E+03  0.00000000000E+00 0.  1.
         14    1    4    4    0    0  0.54674131496E+02  0.95257243357E+02  0.25670420584E+02  0.11279261305E+03  0.00000000000E+00 0. -1.
         -5    1    5    5    0  502 -0.49259098793E+02  0.30970653538E+02  0.27527360660E+01  0.58440634411E+02  0.47000000000E+01 0.  1.
         11    1    6    6    0    0  0.38112039658E+01 -0.63823862177E+02  0.35720944749E+02  0.73239310159E+02  0.00000000000E+00 0. -1.
        -12    1    6    6    0    0 -0.81583512679E+02 -0.80980718790E+02  0.13669519199E+02  0.11576096973E+03  0.00000000000E+00 0.  1.
</event>
<event>
12    1  0.1050869E+000  0.1753394E+03  0.7818608E-02  0.1172471E+00
         21   -1    0    0  503  502  0.00000000000E+00  0.00000000000E+00  0.45890004040E+02  0.45890004040E+02  0.00000000000E+00 0. -1.
         21   -1    0    0  501  503 -0.00000000000E+00 -0.00000000000E+00 -0.83312842991E+03  0.83312842991E+03  0.00000000000E+00 0. -1.
          6    2    1    2  501    0  0.15193154975E+02 -0.31290240679E+02 -0.19810200818E+03  0.26434320312E+03  0.17153137401E+03 0.  0.
         24    2    3    3    0    0  0.32795881000E+01 -0.69391570250E+02 -0.69412592596E+02  0.12952221041E+03  0.84450868906E+02 0.  0.
         -6    2    1    2    0  502 -0.15193154975E+02  0.31290240679E+02 -0.58913641769E+03  0.61467523083E+03  0.17185461772E+03 0.  0.
        -24    2    5    5    0    0 -0.26619962589E+02  0.59646482758E+02 -0.56637817398E+03  0.57627371974E+03  0.83909706201E+02 0.  0.
          5    1    3    3  501    0  0.11913566875E+02  0.38101329571E+02 -0.12868941559E+03  0.13482099271E+03  0.47000000000E+01 0. -1.
        -13    1    4    4    0    0 -0.91853381177E+01 -0.61979234369E+02 -0.86691683824E+02  0.10696375075E+03  0.00000000000E+00 0.  1.
         14    1    4    4    0    0  0.12464926218E+02 -0.74123358809E+01  0.17279091228E+02  0.22558459665E+02  0.00000000000E+00 0. -1.
         -5    1    5    5    0  502  0.11426807614E+02 -0.28356242078E+02 -0.22758243711E+02  0.38401511088E+02  0.47000000000E+01 0.  1.
         11    1    6    6    0    0  0.20030131038E+02  0.97835043811E+00 -0.26337451513E+03  0.26413689356E+03  0.00000000000E+00 0. -1.
        -12    1    6    6    0    0 -0.46650093627E+02  0.58668132319E+02 -0.30300365885E+03  0.31213682618E+03  0.00000000000E+00 0.  1.
</event>
<event>
12    1  0.1050869E+000  0.3273938E+03  0.7818608E-02  0.1072371E+00
         21   -1    0    0  501  502  0.00000000000E+00  0.00000000000E+00  0.65809196584E+03  0.65809196584E+03  0.00000000000E+00 0. -1.
         21   -1    0    0  502  503 -0.00000000000E+00 -0.00000000000E+00 -0.21542307425E+03  0.21542307425E+03  0.00000000000E+00 0. -1.
         -6    2    1    2    0  503 -0.19672418774E+03 -0.19738523257E+03  0.43789610051E+03  0.54675379423E+03  0.17182951022E+03 0.  0.
        -24    2    3    3    0    0 -0.12627550365E+03 -0.72693969589E+02  0.14369665728E+03  0.21951331606E+03  0.79419459696E+02 0.  0.
          6    2    1    2  501    0  0.19672418774E+03  0.19738523257E+03  0.47727910765E+01  0.32676124587E+03  0.17055437897E+03 0.  0.
         24    2    5    5    0    0  0.15016403045E+03  0.84354242133E+02  0.49903643480E+02  0.19636670271E+03  0.80028957845E+02 0.  0.
          5    1    5    5  501    0  0.46560157295E+02  0.11303099044E+03 -0.45130852404E+02  0.13039454316E+03  0.47000000000E+01 0. -1.
        -13    1    6    6    0    0  0.67351716715E+01 -0.10799793348E+02 -0.76823603057E+01  0.14866631551E+02  0.00000000000E+00 0.  1.
         14    1    6    6    0    0  0.14342885878E+03  0.95154035481E+02  0.57586003786E+02  0.18150007116E+03  0.00000000000E+00 0. -1.
         -5    1    3    3    0  503 -0.70448684094E+02 -0.12469126298E+03  0.29419944323E+03  0.32724047817E+03  0.47000000000E+01 0.  1.
         11    1    4    4    0    0 -0.26988786060E+02 -0.69241709552E+01  0.79451158536E+02  0.84195162029E+02  0.00000000000E+00 0. -1.
        -12    1    4    4    0    0 -0.99286717588E+02 -0.65769798634E+02  0.64245498745E+02  0.13531815403E+03  0.00000000000E+00 0.  1.
</event>
<event>
12    1  0.1050869E+000  0.2580657E+03  0.7818608E-02  0.1108386E+00
         21   -1    0    0  501  502  0.00000000000E+00  0.00000000000E+00  0.37902293723E+03  0.37902293723E+03  0.00000000000E+00 0. -1.
         21   -1    0    0  502  503 -0.00000000000E+00 -0.00000000000E+00 -0.25937095269E+03  0.25937095269E+03  0.00000000000E+00 0. -1.
         -6    2    1    2    0  503 -0.15843229711E+03 -0.10871244404E+03 -0.12185920843E+03  0.28494575892E+03  0.17153784011E+03 0.  0.
        -24    2    3    3    0    0 -0.10154468605E+02 -0.62170254181E+02 -0.11574199911E+02  0.94322142946E+02  0.69241972884E+02 0.  0.
          6    2    1    2  501    0  0.15843229711E+03  0.10871244404E+03  0.24151119296E+03  0.35344813101E+03  0.17227517735E+03 0.  0.
         24    2    5    5    0    0  0.15023301334E+03  0.13326000774E+03  0.24579115434E+03  0.32679819278E+03  0.77817602727E+02 0.  0.
          5    1    5    5  501    0  0.81992837707E+01 -0.24547563705E+02 -0.42799613733E+01  0.26649938228E+02  0.47000000000E+01 0. -1.
        -11    1    6    6    0    0  0.40827069135E+02 -0.14999714133E+01  0.59462778853E+02  0.72145142299E+02  0.00000000000E+00 0.  1.
         12    1    6    6    0    0  0.10940594420E+03  0.13475997916E+03  0.18632837548E+03  0.25465305048E+03  0.00000000000E+00 0. -1.
         -5    1    3    3    0  503 -0.14827782850E+03 -0.46542189859E+02 -0.11028500851E+03  0.19062361597E+03  0.47000000000E+01 0.  1.
         13    1    4    4    0    0 -0.19427610414E+02 -0.47694894341E+02  0.22466428138E+02  0.56186968114E+02  0.00000000000E+00 0. -1.
        -14    1    4    4    0    0  0.92731418096E+01 -0.14475359840E+02 -0.34040628049E+02  0.38135174832E+02  0.00000000000E+00 0.  1.
</event>
<event>
12    1  0.1050869E+000  0.2054280E+03  0.7818608E-02  0.1145431E+00
         21   -1    0    0  503  502  0.00000000000E+00  0.00000000000E+00  0.18495813058E+04  0.18495813058E+04  0.00000000000E+00 0. -1.
         21   -1    0    0  501  503 -0.00000000000E+00 -0.00000000000E+00 -0.25990062996E+02  0.25990062996E+02  0.00000000000E+00 0. -1.
          6    2    1    2  501    0  0.88979168712E+02 -0.68483596444E+02  0.58056772444E+03  0.61584053117E+03  0.17202727028E+03 0.  0.
         24    2    3    3    0    0  0.98628346520E+02 -0.99461151983E+02  0.53875902766E+03  0.56271075885E+03  0.82231604354E+02 0.  0.
         -6    2    1    2    0  502 -0.88979168712E+02  0.68483596444E+02  0.12430235183E+04  0.12597308376E+04  0.17090061621E+03 0.  0.
        -24    2    5    5    0    0 -0.45354816712E+02  0.69923687882E+02  0.11604808220E+04  0.11662399575E+04  0.80333794996E+02 0.  0.
          5    1    3    3  501    0 -0.96491778075E+01  0.30977555540E+02  0.41808696785E+02  0.53129772317E+02  0.47000000000E+01 0. -1.
        -11    1    4    4    0    0  0.19274475201E+02 -0.37113811263E+02  0.30831483430E+03  0.31113819667E+03  0.00000000000E+00 0.  1.
         12    1    4    4    0    0  0.79353871319E+02 -0.62347340720E+02  0.23044419336E+03  0.25157256218E+03  0.00000000000E+00 0. -1.
         -5    1    5    5    0  502 -0.43624352000E+02 -0.14400914379E+01  0.82542696311E+02  0.93490880117E+02  0.47000000000E+01 0.  1.
         13    1    6    6    0    0 -0.19359845548E+02 -0.54178474176E+01  0.57593973233E+03  0.57629049270E+03  0.00000000000E+00 0. -1.
        -14    1    6    6    0    0 -0.25994971164E+02  0.75341535299E+02  0.58454108969E+03  0.58994946479E+03  0.00000000000E+00 0.  1.
</event>
<event>
12    1  0.1050869E+000  0.3644004E+03  0.7818608E-02  0.1056965E+00
         21   -1    0    0  503  502  0.00000000000E+00  0.00000000000E+00  0.16598326779E+04  0.16598326779E+04  0.00000000000E+00 0.  1.
         21   -1    0    0  501  503 -0.00000000000E+00 -0.00000000000E+00 -0.11421786996E+03  0.11421786996E+03  0.00000000000E+00 0.  1.
          6    2    1    2  501    0 -0.17467031523E+03 -0.26830359837E+03  0.12609075066E+04  0.13125072883E+04  0.17404339035E+03 0.  0.
         24    2    3    3    0    0 -0.13126512322E+03 -0.18873089409E+03  0.63178468561E+03  0.67687104025E+03  0.78438722501E+02 0.  0.
         -6    2    1    2    0  502  0.17467031523E+03  0.26830359837E+03  0.28470730131E+03  0.46154325953E+03  0.17166069171E+03 0.  0.
        -24    2    5    5    0    0  0.20144410729E+03  0.23911837879E+03  0.24580699449E+03  0.40583027313E+03  0.80745307039E+02 0.  0.
          5    1    3    3  501    0 -0.43405192018E+02 -0.79572704279E+02  0.62912282097E+03  0.63563624804E+03  0.47000000000E+01 0. -1.
        -13    1    4    4    0    0 -0.12350338190E+03 -0.13131156370E+03  0.52911721291E+03  0.55898196492E+03  0.00000000000E+00 0.  1.
         14    1    4    4    0    0 -0.77617413195E+01 -0.57419330390E+02  0.10266747270E+03  0.11788907533E+03  0.00000000000E+00 0. -1.
         -5    1    5    5    0  502 -0.26773792060E+02  0.29185219580E+02  0.38900306814E+02  0.55712986399E+02  0.47000000000E+01 0.  1.
         11    1    6    6    0    0  0.53996493111E+02  0.84549379453E+02  0.36478157355E+02  0.10674677887E+03  0.00000000000E+00 0. -1.
        -12    1    6    6    0    0  0.14744761418E+03  0.15456899934E+03  0.20932883714E+03  0.29908349427E+03  0.00000000000E+00 0.  1.
</event>
<event>
12    1  0.1050869E+000  0.2419056E+03  0.7818608E-02  0.1118570E+00
         21   -1    0    0  501  502  0.00000000000E+00  0.00000000000E+00  0.10393136120E+03  0.10393136120E+03  0.00000000000E+00 0.  1.
         21   -1    0    0  502  503 -0.00000000000E+00 -0.00000000000E+00 -0.56293891663E+03  0.56293891663E+03  0.00000000000E+00 0.  1.
         -6    2    1    2    0  503 -0.63263309620E+02 -0.15785633553E+03 -0.23896064556E+03  0.33985506124E+03  0.17169275907E+03 0.  0.
        -24    2    3    3    0    0 -0.65740722990E+02 -0.84264803371E+02 -0.22964684643E+03  0.26548646547E+03  0.79517227864E+02 0.  0.
          6    2    1    2  501    0  0.63263309620E+02  0.15785633553E+03 -0.22004690987E+03  0.32701521658E+03  0.17203906626E+03 0.  0.
         24    2    5    5    0    0  0.68219923359E+02  0.12588630428E+03 -0.23760732002E+03  0.28990579833E+03  0.84183215839E+02 0.  0.
          5    1    5    5  501    0 -0.49566137388E+01  0.31970031249E+02  0.17560410153E+02  0.37109418246E+02  0.47000000000E+01 0. -1.
        -11    1    6    6    0    0  0.41174333242E+02  0.32137963839E+02 -0.14978719090E+03  0.15863283706E+03  0.00000000000E+00 0.  1.
         12    1    6    6    0    0  0.27045590118E+02  0.93748340445E+02 -0.87820129127E+02  0.13127296127E+03  0.00000000000E+00 0. -1.
         -5    1    3    3    0  503  0.24774133695E+01 -0.73591532163E+02 -0.93137991254E+01  0.74368595773E+02  0.47000000000E+01 0.  1.
         11    1    4    4    0    0 -0.69407105012E+01 -0.72886643505E+02 -0.12106532652E+03  0.14148303626E+03  0.00000000000E+00 0. -1.
        -12    1    4    4    0    0 -0.58800012489E+02 -0.11378159866E+02 -0.10858151991E+03  0.12400342921E+03  0.00000000000E+00 0.  1.
</event>
<event>
12    1  0.1050869E+000  0.2113097E+03  0.7818608E-02  0.1140666E+00
         21   -1    0    0  503  502  0.00000000000E+00  0.00000000000E+00  0.58675572910E+03  0.58675572910E+03  0.00000000000E+00 0. -1.
         21   -1    0    0  501  503 -0.00000000000E+00 -0.00000000000E+00 -0.76194991214E+02  0.76194991214E+02  0.00000000000E+00 0. -1.
          6    2    1    2  501    0  0.12155339922E+03  0.75530290233E+01  0.23357851062E+03  0.31497732582E+03  0.17268328828E+03 0.  0.
         24    2    3    3    0    0  0.56028206733E+02 -0.61418148605E+02  0.11372324203E+03  0.16188274851E+03  0.79760263034E+02 0.  0.
         -6    2    1    2    0  502 -0.12155339922E+03 -0.75530290233E+01  0.27698222727E+03  0.34797339450E+03  0.17185474082E+03 0.  0.
        -24    2    5    5    0    0 -0.75879766386E+02  0.90698223510E+01  0.28001950688E+03  0.29904778779E+03  0.71962869080E+02 0.  0.
          5    1    3    3  501    0  0.65525192490E+02  0.68971177629E+02  0.11985526859E+03  0.15309457731E+03  0.47000000000E+01 0. -1.
        -13    1    4    4    0    0  0.17901655609E+02 -0.48429414684E+02  0.12765480670E+02  0.53186793257E+02  0.00000000000E+00 0.  1.
         14    1    4    4    0    0  0.38126551124E+02 -0.12988733921E+02  0.10095776136E+03  0.10869595525E+03  0.00000000000E+00 0. -1.
         -5    1    5    5    0  502 -0.45673632838E+02 -0.16622851374E+02 -0.30372796010E+01  0.48925606708E+02  0.47000000000E+01 0.  1.
         13    1    6    6    0    0  0.13366177276E+01 -0.14290056561E+02  0.10917316840E+03  0.11011254680E+03  0.00000000000E+00 0. -1.
        -14    1    6    6    0    0 -0.77216384113E+02  0.23359878912E+02  0.17084633847E+03  0.18893524099E+03  0.00000000000E+00 0.  1.
</event>
<event>
12    1  0.1050869E+000  0.2078716E+03  0.7818608E-02  0.1145826E+00
         21   -1    0    0  503  502  0.00000000000E+00  0.00000000000E+00  0.60687659862E+02  0.60687659862E+02  0.00000000000E+00 0.  1.
         21   -1    0    0  501  503 -0.00000000000E+00 -0.00000000000E+00 -0.91959458351E+03  0.91959458351E+03  0.00000000000E+00 0. -1.
          6    2    1    2  501    0  0.76107603734E+02  0.83118561867E+02 -0.69416524226E+03  0.72462126339E+03  0.17466977164E+03 0.  0.
         24    2    3    3    0    0 -0.79618385921E+01  0.18544753506E+02 -0.16260017048E+03  0.18256871668E+03  0.80530876774E+02 0.  0.
         -6    2    1    2    0  502 -0.76107603734E+02 -0.83118561867E+02 -0.16474168139E+03  0.25566097999E+03  0.15975497622E+03 0.  0.
        -24    2    5    5    0    0 -0.27472099984E+02 -0.99854443617E+02 -0.69314831480E+02  0.14715348878E+03  0.78255844572E+02 0.  0.
          5    1    3    3  501    0  0.84069442326E+02  0.64573808361E+02 -0.53156507178E+03  0.54205254671E+03  0.47000000000E+01 0. -1.
        -11    1    4    4    0    0  0.26211928370E+02 -0.83759797912E+01 -0.21519586546E+02  0.34933004901E+02  0.00000000000E+00 0.  1.
         12    1    4    4    0    0 -0.34173766962E+02  0.26920733297E+02 -0.14108058393E+03  0.14763571178E+03  0.00000000000E+00 0. -1.
         -5    1    5    5    0  502 -0.48635503750E+02  0.16735881750E+02 -0.95426849914E+02  0.10850749120E+03  0.47000000000E+01 0.  1.
         13    1    6    6    0    0  0.20864224818E+02 -0.19644946418E+02 -0.39644584170E+02  0.48917612892E+02  0.00000000000E+00 0. -1.
        -14    1    6    6    0    0 -0.48336324802E+02 -0.80209497199E+02 -0.29670247310E+02  0.98235875889E+02  0.00000000000E+00 0.  1.
</event>
<event>
12    1  0.1050869E+000  0.2009044E+03  0.7818608E-02  0.1149813E+00
         21   -1    0    0  501  502  0.00000000000E+00  0.00000000000E+00  0.13332145419E+03  0.13332145419E+03  0.00000000000E+00 0.  1.
         21   -1    0    0  502  503 -0.00000000000E+00 -0.00000000000E+00 -0.98261591298E+03  0.98261591298E+03  0.00000000000E+00 0.  1.
         -6    2    1    2    0  503 -0.99728782051E+02  0.73073723935E+01  0.42749382636E+02  0.20154970885E+03  0.16969250944E+03 0.  0.
        -24    2    3    3    0    0 -0.73902919780E+02 -0.93266515598E+01 -0.36603558253E+02  0.11632855454E+03  0.81510024798E+02 0.  0.
          6    2    1    2  501    0  0.99728782051E+02 -0.73073723935E+01 -0.89204384142E+03  0.91438765832E+03  0.17425081637E+03 0.  0.
         24    2    5    5    0    0  0.14568959842E+02 -0.16766077397E+02 -0.68723659393E+03  0.69232964553E+03  0.80826023646E+02 0.  0.
          5    1    5    5  501    0  0.85159822209E+02  0.94587050035E+01 -0.20480724750E+03  0.22205801279E+03  0.47000000000E+01 0. -1.
        -13    1    6    6    0    0  0.11426201628E+01  0.24707018506E+02 -0.47598935034E+03  0.47663151803E+03  0.00000000000E+00 0.  1.
         14    1    6    6    0    0  0.13426339679E+02 -0.41473095903E+02 -0.21124724359E+03  0.21569812749E+03  0.00000000000E+00 0. -1.
         -5    1    3    3    0  503 -0.25825862271E+02  0.16634023953E+02  0.79352940889E+02  0.85221154314E+02  0.47000000000E+01 0.  1.
         13    1    4    4    0    0 -0.11642884284E+02 -0.35792686942E+02  0.33035309648E+01  0.37783415804E+02  0.00000000000E+00 0. -1.
        -14    1    4    4    0    0 -0.62260035496E+02  0.26466035382E+02 -0.39907089218E+02  0.78545138733E+02  0.00000000000E+00 0.  1.
</event>
<event>
12    1  0.1050869E+000  0.1913334E+03  0.7818608E-02  0.1157785E+00
         21   -1    0    0  501  502  0.00000000000E+00  0.00000000000E+00  0.36526882867E+02  0.36526882867E+02  0.00000000000E+00 0. -1.
         21   -1    0    0  502  503 -0.00000000000E+00 -0.00000000000E+00 -0.13490636751E+04  0.13490636751E+04  0.00000000000E+00 0. -1.
         -6    2    1    2    0  503  0.64480322626E+02 -0.50265153577E+02 -0.29599151825E+03  0.35119567563E+03  0.17042043903E+03 0.  0.
        -24    2    3    3    0    0  0.74083472420E+01  0.34303424307E+02 -0.13579085412E+03  0.16120778779E+03  0.79480728819E+02 0.  0.
          6    2    1    2  501    0 -0.64480322626E+02  0.50265153577E+02 -0.10165452739E+04  0.10343948823E+04  0.17298607130E+03 0.  0.
         24    2    5    5    0    0 -0.11060831936E+03  0.38061040648E+02 -0.78566475816E+03  0.79858853161E+03  0.82411694999E+02 0.  0.
          5    1    5    5  501    0  0.46127996733E+02  0.12204112928E+02 -0.23088051578E+03  0.23580635068E+03  0.47000000000E+01 0. -1.
        -11    1    6    6    0    0 -0.10806279767E+03  0.55734185586E+02 -0.73204489456E+03  0.74207384763E+03  0.00000000000E+00 0.  1.
         12    1    6    6    0    0 -0.25455216892E+01 -0.17673144937E+02 -0.53619863595E+02  0.56514683974E+02  0.00000000000E+00 0. -1.
         -5    1    3    3    0  503  0.57071975384E+02 -0.84568577884E+02 -0.16020066412E+03  0.18998788784E+03  0.47000000000E+01 0.  1.
         11    1    4    4    0    0  0.17056788531E+02  0.82351737097E+01  0.34216604719E+01  0.19247334397E+02  0.00000000000E+00 0. -1.
        -12    1    4    4    0    0 -0.96484412887E+01  0.26068250598E+02 -0.13921251460E+03  0.14196045340E+03  0.00000000000E+00 0.  1.
</event>
<event>
12    1  0.1050869E+000  0.3601812E+03  0.7818608E-02  0.1058590E+00
         21   -1    0    0  501  502  0.00000000000E+00  0.00000000000E+00  0.98369847040E+03  0.98369847040E+03  0.00000000000E+00 0. -1.
         21   -1    0    0  502  503 -0.00000000000E+00 -0.00000000000E+00 -0.20535876347E+03  0.20535876347E+03  0.00000000000E+00 0.  1.
         -6    2    1    2    0  503  0.12420008971E+03 -0.29036717310E+03  0.32576309169E+02  0.36087032316E+03  0.17154421214E+03 0.  0.
        -24    2    3    3    0    0  0.54995779425E+02 -0.19364919288E+03 -0.43253026692E+02  0.21974703509E+03  0.76768414423E+02 0.  0.
          6    2    1    2  501    0 -0.12420008971E+03  0.29036717310E+03  0.74576339775E+03  0.82818691071E+03  0.17318128114E+03 0.  0.
         24    2    5    5    0    0 -0.12222159360E+03  0.13955744530E+03  0.33498352287E+03  0.39056871632E+03  0.76912697879E+02 0.  0.
          5    1    5    5  501    0 -0.19784961138E+01  0.15080972780E+03  0.41077987488E+03  0.43761819439E+03  0.47000000000E+01 0. -1.
        -13    1    6    6    0    0 -0.85945234142E+02  0.13966677244E+03  0.28490852442E+03  0.32873432720E+03  0.00000000000E+00 0.  1.
         14    1    6    6    0    0 -0.36276359457E+02 -0.10932713913E+00  0.50074998449E+02  0.61834389118E+02  0.00000000000E+00 0. -1.
         -5    1    3    3    0  503  0.69204310287E+02 -0.96717980224E+02  0.75829335861E+02  0.14112328808E+03  0.47000000000E+01 0.  1.
         13    1    4    4    0    0  0.16010018927E+02  0.15674243377E+01 -0.62930864904E+01  0.17273692792E+02  0.00000000000E+00 0. -1.
        -14    1    4    4    0    0  0.38985760498E+02 -0.19521661722E+03 -0.36959940202E+02  0.20247334229E+03  0.00000000000E+00 0.  1.
</event>
<event>
12    1  0.1050869E+000  0.1816816E+03  0.7818608E-02  0.1168244E+00
         21   -1    0    0  501  502  0.00000000000E+00  0.00000000000E+00  0.10673209212E+03  0.10673209212E+03  0.00000000000E+00 0. -1.
         21   -1    0    0  502  503 -0.00000000000E+00 -0.00000000000E+00 -0.47242013152E+03  0.47242013152E+03  0.00000000000E+00 0. -1.
         -6    2    1    2    0  503 -0.21293250261E+02  0.34171867051E+01 -0.35750268197E+03  0.39728628571E+03  0.17193936583E+03 0.  0.
        -24    2    3    3    0    0  0.11717474479E+02 -0.53244604606E+02 -0.26723187208E+03  0.28561186760E+03  0.84787843034E+02 0.  0.
          6    2    1    2  501    0  0.21293250261E+02 -0.34171867051E+01 -0.81853574201E+01  0.18186593793E+03  0.18039717191E+03 0.  0.
         24    2    5    5    0    0  0.64830299544E+02 -0.35230466413E+02 -0.41311913577E+02  0.11840714698E+03  0.82881992923E+02 0.  0.
          5    1    5    5  501    0 -0.43537049283E+02  0.31813279707E+02  0.33126556157E+02  0.63458790950E+02  0.47000000000E+01 0. -1.
        -11    1    6    6    0    0  0.25010857871E+02  0.23841692134E+02 -0.31006207253E+02  0.46425792223E+02  0.00000000000E+00 0.  1.
         12    1    6    6    0    0  0.39819441673E+02 -0.59072158546E+02 -0.10305706323E+02  0.71981354762E+02  0.00000000000E+00 0. -1.
         -5    1    3    3    0  503 -0.33010724740E+02  0.56661791311E+02 -0.90270809887E+02  0.11167441811E+03  0.47000000000E+01 0.  1.
         11    1    4    4    0    0 -0.79563541090E+01  0.21467330208E+02 -0.75653381315E+02  0.79041659531E+02  0.00000000000E+00 0. -1.
        -12    1    4    4    0    0  0.19673828588E+02 -0.74711934813E+02 -0.19157849077E+03  0.20657020807E+03  0.00000000000E+00 0.  1.
</event>
<event>
12    1  0.1050869E+000  0.1760462E+03  0.7818608E-02  0.1172139E+00
         21   -1    0    0  501  502  0.00000000000E+00  0.00000000000E+00  0.12842158495E+02  0.12842158495E+02  0.00000000000E+00 0.  1.
         21   -1    0    0  502  503 -0.00000000000E+00 -0.00000000000E+00 -0.25740398510E+04  0.25740398510E+04  0.00000000000E+00 0.  1.
         -6    2    1    2    0  503  0.16932444348E+02  0.28392312443E+02 -0.93953572855E+03  0.95588684427E+03  0.17291455334E+03 0.  0.
        -24    2    3    3    0    0 -0.83686725839E+01 -0.27138328307E+02 -0.26836172678E+03  0.28192807014E+03  0.81602063628E+02 0.  0.
          6    2    1    2  501    0 -0.16932444348E+02 -0.28392312443E+02 -0.16216619640E+04  0.16309951652E+04  0.17106978856E+03 0.  0.
         24    2    5    5    0    0 -0.64399248483E+02  0.19378937634E+02 -0.11165367840E+04  0.11213789103E+04  0.79457309729E+02 0.  0.
          5    1    5    5  501    0  0.47466804135E+02 -0.47771250077E+02 -0.50512517996E+03  0.50961625490E+03  0.47000000000E+01 0. -1.
        -13    1    6    6    0    0 -0.21225835712E+02  0.83856627956E+01 -0.64845222997E+02  0.68744151662E+02  0.00000000000E+00 0.  1.
         14    1    6    6    0    0 -0.43173412771E+02  0.10993274839E+02 -0.10516915610E+04  0.10526347587E+04  0.00000000000E+00 0. -1.
         -5    1    3    3    0  503  0.25301116932E+02  0.55530640750E+02 -0.67117400177E+03  0.67395877413E+03  0.47000000000E+01 0.  1.
         11    1    4    4    0    0  0.18768958596E+02  0.10149749714E+02 -0.19749680484E+02  0.29074750304E+02  0.00000000000E+00 0. -1.
        -12    1    4    4    0    0 -0.27137631180E+02 -0.37288078021E+02 -0.24861204630E+03  0.25285331984E+03  0.00000000000E+00 0.  1.
</event>
<event>
12    1  0.1050869E+000  0.2687130E+03  0.7818608E-02  0.1102069E+00
         21   -1    0    0  503  502  0.00000000000E+00  0.00000000000E+00  0.22716087696E+03  0.22716087696E+03  0.00000000000E+00 0. -1.
         21   -1    0    0  501  503 -0.00000000000E+00 -0.00000000000E+00 -0.32240054105E+03  0.32240054105E+03  0.00000000000E+00 0. -1.
          6    2    1    2  501    0  0.17742731957E+03 -0.10580797911E+03 -0.13612245800E+02  0.26905754712E+03  0.17184553602E+03 0.  0.
         24    2    3    3    0    0  0.78958587102E+02 -0.28164493624E+02  0.52130097043E+02  0.12739333938E+03  0.80522162921E+02 0.  0.
         -6    2    1    2    0  502 -0.17742731957E+03  0.10580797911E+03 -0.81627418289E+02  0.28050387089E+03  0.17129974896E+03 0.  0.
        -24    2    5    5    0    0 -0.19927950582E+03  0.69270684988E+02 -0.64035652074E+02  0.23419996021E+03  0.78982956323E+02 0.  0.
          5    1    3    3  501    0  0.98468732468E+02 -0.77643485487E+02 -0.65742342843E+02  0.14166420774E+03  0.47000000000E+01 0. -1.
        -13    1    4    4    0    0  0.67843535967E+01 -0.13686015576E+02  0.51564032531E+02  0.53779028691E+02  0.00000000000E+00 0.  1.
         14    1    4    4    0    0  0.72174233506E+02 -0.14478478048E+02  0.56606451203E+00  0.73614310686E+02  0.00000000000E+00 0. -1.
         -5    1    5    5    0  502  0.21852186247E+02  0.36537294124E+02 -0.17591766215E+02  0.46303910680E+02  0.47000000000E+01 0.  1.
         11    1    6    6    0    0 -0.94874448321E+02  0.43758928063E+02  0.80469510255E+01  0.10478911275E+03  0.00000000000E+00 0. -1.
        -12    1    6    6    0    0 -0.10440505750E+03  0.25511756924E+02 -0.72082603100E+02  0.12941084746E+03  0.00000000000E+00 0.  1.
</event>
<event>
12    1  0.1050869E+000  0.2002889E+03  0.7818608E-02  0.1149751E+00
         21   -1    0    0  503  502  0.00000000000E+00  0.00000000000E+00  0.14912254260E+02  0.14912254260E+02  0.00000000000E+00 0. -1.
         21   -1    0    0  501  503 -0.00000000000E+00 -0.00000000000E+00 -0.27376825976E+04  0.27376825976E+04  0.00000000000E+00 0. -1.
          6    2    1    2  501    0  0.10231210697E+03 -0.17781411143E+00 -0.11553403270E+04  0.11725727753E+04  0.17218549083E+03 0.  0.
         24    2    3    3    0    0  0.11809421301E+03  0.19170609973E+02 -0.60461944057E+03  0.62126612635E+03  0.78058800954E+02 0.  0.
         -6    2    1    2    0  502 -0.10231210697E+03  0.17781411143E+00 -0.15674300163E+04  0.15800220766E+04  0.17077794807E+03 0.  0.
        -24    2    5    5    0    0 -0.11313850074E+03  0.87211845822E+00 -0.73747265385E+03  0.74998050751E+03  0.76182448916E+02 0.  0.
          5    1    3    3  501    0 -0.15782106034E+02 -0.19348424085E+02 -0.55072088648E+03  0.55130664896E+03  0.47000000000E+01 0. -1.
        -13    1    4    4    0    0  0.33529961015E+02  0.38154372703E+02 -0.31106980937E+03  0.31518953146E+03  0.00000000000E+00 0.  1.
         14    1    4    4    0    0  0.84564251991E+02 -0.18983762729E+02 -0.29354963119E+03  0.30607659489E+03  0.00000000000E+00 0. -1.
         -5    1    5    5    0  502  0.10826393769E+02 -0.69430434679E+00 -0.82995736248E+03  0.83004156907E+03  0.47000000000E+01 0.  1.
         11    1    6    6    0    0 -0.54071199565E+02  0.31453137336E+02 -0.23737195559E+03  0.24547594541E+03  0.00000000000E+00 0. -1.
        -12    1    6    6    0    0 -0.59067301176E+02 -0.30581018878E+02 -0.50010069826E+03  0.50450456210E+03  0.00000000000E+00 0.  1.
</event>
<event>
12    1  0.1050869E+000  0.1787961E+03  0.7818608E-02  0.1169175E+00
         21   -1    0    0  501  502  0.00000000000E+00  0.00000000000E+00  0.61484324900E+03  0.61484324900E+03  0.00000000000E+00 0. -1.
         21   -1    0    0  502  503 -0.00000000000E+00 -0.00000000000E+00 -0.60858824059E+02  0.60858824059E+02  0.00000000000E+00 0. -1.
         -6    2    1    2    0  503  0.45563132372E+02 -0.45604627697E+01  0.14577739997E+03  0.23005533145E+03  0.17198141858E+03 0.  0.
        -24    2    3    3    0    0  0.79087443059E+02  0.26354717667E+01  0.41269721148E+02  0.11996625019E+03  0.80168210280E+02 0.  0.
          6    2    1    2  501    0 -0.45563132372E+02  0.45604627697E+01  0.40820702497E+03  0.44564674161E+03  0.17283300095E+03 0.  0.
         24    2    5    5    0    0 -0.51167332130E+01  0.24663374466E+02  0.38608673109E+03  0.39513500371E+03  0.80213740954E+02 0.  0.
          5    1    5    5  501    0 -0.40446399159E+02 -0.20102911696E+02  0.22120293882E+02  0.50511737893E+02  0.47000000000E+01 0. -1.
        -13    1    6    6    0    0  0.30935465214E+02  0.34230163467E+02  0.18902813775E+03  0.19457734699E+03  0.00000000000E+00 0.  1.
         14    1    6    6    0    0 -0.36052198427E+02 -0.95667890011E+01  0.19705859334E+03  0.20055765672E+03  0.00000000000E+00 0. -1.
         -5    1    3    3    0  503 -0.33524310687E+02 -0.71959345364E+01  0.10450767882E+03  0.11008908127E+03  0.47000000000E+01 0.  1.
         13    1    4    4    0    0  0.67723810387E+02 -0.20588459572E+02 -0.56533017263E+00  0.70786430615E+02  0.00000000000E+00 0. -1.
        -14    1    4    4    0    0  0.11363632671E+02  0.23223931339E+02  0.41835051320E+02  0.49179819573E+02  0.00000000000E+00 0.  1.
</event>
<event>
12    1  0.1050869E+000  0.2541908E+03  0.7818608E-02  0.1111365E+00
         21   -1    0    0  503  502  0.00000000000E+00  0.00000000000E+00  0.40127417525E+03  0.40127417525E+03  0.00000000000E+00 0.  1.
         21   -1    0    0  501  503 -0.00000000000E+00 -0.00000000000E+00 -0.16664542916E+03  0.16664542916E+03  0.00000000000E+00 0.  1.
          6    2    1    2  501    0  0.17017969853E+03 -0.63623950815E+02  0.54614802810E+02  0.25999177048E+03  0.17777459640E+03 0.  0.
         24    2    3    3    0    0  0.87764301836E+02 -0.88432711285E+02  0.81362402220E+02  0.16974047530E+03  0.81664382433E+02 0.  0.
         -6    2    1    2    0  502 -0.17017969853E+03  0.63623950815E+02  0.18001394329E+03  0.30792783393E+03  0.17148001114E+03 0.  0.
        -24    2    5    5    0    0 -0.94338557775E+02 -0.18092659822E+02  0.50223223200E+02  0.13676357333E+03  0.83395413656E+02 0.  0.
          5    1    3    3  501    0  0.82415396693E+02  0.24808760470E+02 -0.26747599410E+02  0.90251295184E+02  0.47000000000E+01 0. -1.
        -11    1    4    4    0    0 -0.11251903641E+02 -0.11899278180E+02 -0.56428717542E+01  0.17321667309E+02  0.00000000000E+00 0.  1.
         12    1    4    4    0    0  0.99016205478E+02 -0.76533433105E+02  0.87005273974E+02  0.15241880799E+03  0.00000000000E+00 0. -1.
         -5    1    5    5    0  502 -0.75841140755E+02  0.81716610636E+02  0.12979072009E+03  0.17116426060E+03  0.47000000000E+01 0.  1.
         13    1    6    6    0    0 -0.53867410223E+02 -0.71249992540E+01 -0.17521774319E+02  0.57091821426E+02  0.00000000000E+00 0. -1.
        -14    1    6    6    0    0 -0.40471147552E+02 -0.10967660568E+02  0.67744997519E+02  0.79671751904E+02  0.00000000000E+00 0.  1.
</event>
<event>
12    1  0.1050869E+000  0.2334183E+03  0.7818608E-02  0.1124499E+00
         21   -1    0    0  503  502  0.00000000000E+00  0.00000000000E+00  0.61821322024E+03  0.61821322024E+03  0.00000000000E+00 0.  1.
         21   -1    0    0  501  503 -0.00000000000E+00 -0.00000000000E+00 -0.88527975525E+02  0.88527975525E+02  0.00000000000E+00 0.  1.
          6    2    1    2  501    0  0.13313319885E+03 -0.81332180196E+02  0.22796015098E+03  0.32526756270E+03  0.17173754610E+03 0.  0.
         24    2    3    3    0    0  0.13218056673E+03 -0.54529369674E+02  0.24388740838E+03  0.29372290090E+03  0.79667560315E+02 0.  0.
         -6    2    1    2    0  502 -0.13313319885E+03  0.81332180196E+02  0.30172509374E+03  0.38147363306E+03  0.17362237287E+03 0.  0.
        -24    2    5    5    0    0 -0.12927841255E+03  0.53648807238E+02  0.12590341804E+03  0.20338213928E+03  0.76951422548E+02 0.  0.
          5    1    3    3  501    0  0.95263212632E+00 -0.26802810522E+02 -0.15927257405E+02  0.31544661803E+02  0.47000000000E+01 0. -1.
        -11    1    4    4    0    0 -0.44918136812E+01  0.36026004772E+01 -0.23032239701E+01  0.62016095493E+01  0.00000000000E+00 0.  1.
         12    1    4    4    0    0  0.13667238041E+03 -0.58131970151E+02  0.24619063235E+03  0.28752129135E+03  0.00000000000E+00 0. -1.
         -5    1    5    5    0  502 -0.38547863033E+01  0.27683372958E+02  0.17582167569E+03  0.17809149379E+03  0.47000000000E+01 0.  1.
         13    1    6    6    0    0 -0.10553479209E+03  0.22752624911E+02  0.12394035082E+03  0.16436692137E+03  0.00000000000E+00 0. -1.
        -14    1    6    6    0    0 -0.23743620465E+02  0.30896182327E+02  0.19630672261E+01  0.39015217904E+02  0.00000000000E+00 0.  1.
</event>
<event>
12    1  0.1050869E+000  0.1971880E+03  0.7818608E-02  0.1152773E+00
         21   -1    0    0  501  502  0.00000000000E+00  0.00000000000E+00  0.53329136374E+02  0.53329136374E+02  0.00000000000E+00 0.  1.
         21   -1    0    0  502  503 -0.00000000000E+00 -0.00000000000E+00 -0.71865477174E+03  0.71865477174E+03  0.00000000000E+00 0.  1.
         -6    2    1    2    0  503  0.62051308348E+02  0.61862016285E+02 -0.34447876518E+03  0.39692407271E+03  0.17665170793E+03 0.  0.
        -24    2    3    3    0    0  0.21025380751E+02  0.10530950567E+03 -0.20390273543E+03  0.24410221169E+03  0.80482331068E+02 0.  0.
          6    2    1    2  501    0 -0.62051308348E+02 -0.61862016285E+02 -0.32084687019E+03  0.37505983540E+03  0.17334904700E+03 0.  0.
         24    2    5    5    0    0 -0.80868942204E+02 -0.14882551356E+02 -0.11044206993E+03  0.15860327292E+03  0.78716397420E+02 0.  0.
          5    1    5    5  501    0  0.18817633856E+02 -0.46979464929E+02 -0.21040480026E+03  0.21645656248E+03  0.47000000000E+01 0. -1.
        -11    1    6    6    0    0  0.13411630567E+02 -0.28020729104E+01 -0.33901458367E+02  0.36565452636E+02  0.00000000000E+00 0.  1.
         12    1    6    6    0    0 -0.94280572772E+02 -0.12080478446E+02 -0.76540611567E+02  0.12203782029E+03  0.00000000000E+00 0. -1.
         -5    1    3    3    0  503  0.41025927597E+02 -0.43447489380E+02 -0.14057602975E+03  0.15282186103E+03  0.47000000000E+01 0.  1.
         11    1    4    4    0    0  0.11981802289E+02  0.15675345321E+02  0.15245072231E+01  0.19788990861E+02  0.00000000000E+00 0. -1.
        -12    1    4    4    0    0  0.90435784622E+01  0.89634160344E+02 -0.20542724265E+03  0.22431322082E+03  0.00000000000E+00 0.  1.
</event>
<event>
12    1  0.1050869E+000  0.2267948E+03  0.7818608E-02  0.1128949E+00
         21   -1    0    0  503  502  0.00000000000E+00  0.00000000000E+00  0.36445671336E+03  0.36445671336E+03  0.00000000000E+00 0. -1.
         21   -1    0    0  501  503 -0.00000000000E+00 -0.00000000000E+00 -0.16820061988E+03  0.16820061988E+03  0.00000000000E+00 0. -1.
          6    2    1    2  501    0  0.34363669671E+02 -0.14352816452E+03 -0.89715293126E+01  0.22679090616E+03  0.17196636582E+03 0.  0.
         24    2    3    3    0    0  0.73912519739E+02 -0.95607877093E+02 -0.47640064133E+02  0.15345734580E+03  0.81704678777E+02 0.  0.
         -6    2    1    2    0  502 -0.34363669671E+02  0.14352816452E+03  0.20522762279E+03  0.30586642708E+03  0.17220539555E+03 0.  0.
        -24    2    5    5    0    0 -0.51182701919E+02  0.50000925805E+02  0.39148312553E+02  0.11446462062E+03  0.80310630936E+02 0.  0.
          5    1    3    3  501    0 -0.39548850068E+02 -0.47920287430E+02  0.38668534821E+02  0.73333560355E+02  0.47000000000E+01 0. -1.
        -13    1    4    4    0    0  0.90635388437E+02 -0.81908565137E+02 -0.30615657331E+02  0.12594087960E+03  0.00000000000E+00 0.  1.
         14    1    4    4    0    0 -0.16722868697E+02 -0.13699311956E+02 -0.17024406802E+02  0.27516466207E+02  0.00000000000E+00 0. -1.
         -5    1    5    5    0  502  0.16819032247E+02  0.93527238718E+02  0.16607931024E+03  0.19140180646E+03  0.47000000000E+01 0.  1.
         11    1    6    6    0    0 -0.34883464640E+02 -0.10005512585E+02 -0.70903782781E+01  0.36976206559E+02  0.00000000000E+00 0. -1.
        -12    1    6    6    0    0 -0.16299237278E+02  0.60006438391E+02  0.46238690831E+02  0.77488414063E+02  0.00000000000E+00 0.  1.
</event>
<event>
12    1  0.1050869E+000  0.2125951E+03  0.7818608E-02  0.1139755E+00
         21   -1    0    0  501  502  0.00000000000E+00  0.00000000000E+00  0.14597488714E+03  0.14597488714E+03  0.00000000000E+00 0.  1.
         21   -1    0    0  502  503 -0.00000000000E+00 -0.00000000000E+00 -0.36200450219E+03  0.36200450219E+03  0.00000000000E+00 0.  1.
         -6    2    1    2    0  503 -0.12175958467E+03  0.14003936260E+02 -0.20643939050E+03  0.29633412899E+03  0.17371006696E+03 0.  0.
        -24    2    3    3    0    0  0.89459472271E+00 -0.20964522253E+02 -0.57211669211E+02  0.99972616427E+02  0.79252996462E+02 0.  0.
          6    2    1    2  501    0  0.12175958467E+03 -0.14003936260E+02 -0.95902245452E+01  0.21164526034E+03  0.17227953194E+03 0.  0.
         24    2    5    5    0    0 -0.28403846861E+01  0.17102134612E+02  0.71736685103E+01  0.82046425007E+02  0.79872420416E+02 0.  0.
          5    1    5    5  501    0  0.12459996936E+03 -0.31106070871E+02 -0.16763893056E+02  0.12959883533E+03  0.47000000000E+01 0. -1.
        -11    1    6    6    0    0 -0.20903249502E+02 -0.45270291699E+01 -0.29099209598E+02  0.36113762364E+02  0.00000000000E+00 0.  1.
         12    1    6    6    0    0  0.18062864816E+02  0.21629163782E+02  0.36272878109E+02  0.45932662643E+02  0.00000000000E+00 0. -1.
         -5    1    3    3    0  503 -0.12265417939E+03  0.34968458513E+02 -0.14922772129E+03  0.19636151256E+03  0.47000000000E+01 0.  1.
         13    1    4    4    0    0  0.20988249466E+02  0.24450490083E+02 -0.24928355675E+02  0.40740103063E+02  0.00000000000E+00 0. -1.
        -14    1    4    4    0    0 -0.20093654743E+02 -0.45415012337E+02 -0.32283313536E+02  0.59232513363E+02  0.00000000000E+00 0.  1.
</event>
<event>
12    1  0.1050869E+000  0.3024189E+03  0.7818608E-02  0.1084049E+00
         21   -1    0    0  501  502  0.00000000000E+00  0.00000000000E+00  0.30004305895E+03  0.30004305895E+03  0.00000000000E+00 0.  1.
         21   -1    0    0  502  503 -0.00000000000E+00 -0.00000000000E+00 -0.44821447580E+03  0.44821447580E+03  0.00000000000E+00 0.  1.
         -6    2    1    2    0  503 -0.24867360422E+03  0.32839440623E+01 -0.28578317237E+03  0.41608799893E+03  0.17206933346E+03 0.  0.
        -24    2    3    3    0    0 -0.23204500213E+03 -0.41605169985E+01 -0.16809863644E+03  0.29690884637E+03  0.77688599964E+02 0.  0.
          6    2    1    2  501    0  0.24867360422E+03 -0.32839440623E+01  0.13761175552E+03  0.33216953582E+03  0.17190188929E+03 0.  0.
         24    2    5    5    0    0  0.80528460751E+02  0.32127480898E+02  0.19494377059E+02  0.12360164906E+03  0.85908840601E+02 0.  0.
          5    1    5    5  501    0  0.16814514347E+03 -0.35411424960E+02  0.11811737847E+03  0.20856788676E+03  0.47000000000E+01 0. -1.
        -13    1    6    6    0    0  0.36565825155E+02  0.55207840715E+02  0.30243357873E+02  0.72798529801E+02  0.00000000000E+00 0.  1.
         14    1    6    6    0    0  0.43962635595E+02 -0.23080359817E+02 -0.10748980815E+02  0.50803119258E+02  0.00000000000E+00 0. -1.
         -5    1    3    3    0  503 -0.16628602095E+02  0.74444610608E+01 -0.11768453593E+03  0.11917915257E+03  0.47000000000E+01 0.  1.
         13    1    4    4    0    0 -0.21518212829E+03  0.11058024127E+02 -0.16950760408E+03  0.27415042600E+03  0.00000000000E+00 0. -1.
        -14    1    4    4    0    0 -0.16862873836E+02 -0.15218541126E+02  0.14089676378E+01  0.22758420372E+02  0.00000000000E+00 0.  1.
</event>
<event>
12    1  0.1050869E+000  0.2008548E+03  0.7818608E-02  0.1149268E+00
         21   -1    0    0  503  502  0.00000000000E+00  0.00000000000E+00  0.39877345094E+02  0.39877345094E+02  0.00000000000E+00 0.  1.
         21   -1    0    0  501  503 -0.00000000000E+00 -0.00000000000E+00 -0.10141595319E+04  0.10141595319E+04  0.00000000000E+00 0.  1.
          6    2    1    2  501    0  0.63641601458E+02  0.79129595183E+02 -0.53659494836E+03  0.57295443602E+03  0.17329426094E+03 0.  0.
         24    2    3    3    0    0 -0.17934116342E+02  0.15718652278E+02 -0.36134347647E+03  0.36945821047E+03  0.73222624463E+02 0.  0.
         -6    2    1    2    0  502 -0.63641601458E+02 -0.79129595183E+02 -0.43768723844E+03  0.48108244097E+03  0.17192571084E+03 0.  0.
        -24    2    5    5    0    0 -0.78219275078E+02 -0.56550140264E+02 -0.17011535517E+03  0.21212307031E+03  0.82102311377E+02 0.  0.
          5    1    3    3  501    0  0.81575717800E+02  0.63410942905E+02 -0.17525147189E+03  0.20349622556E+03  0.47000000000E+01 0. -1.
        -11    1    4    4    0    0 -0.11716003157E+02 -0.18673536734E+02 -0.35792077862E+02  0.42036157553E+02  0.00000000000E+00 0.  1.
         12    1    4    4    0    0 -0.62181131856E+01  0.34392189012E+02 -0.32555139861E+03  0.32742205291E+03  0.00000000000E+00 0. -1.
         -5    1    5    5    0  502  0.14577673621E+02 -0.22579454919E+02 -0.26757188327E+03  0.26895937067E+03  0.47000000000E+01 0.  1.
         13    1    6    6    0    0  0.42638656245E+01 -0.42367495731E+02 -0.49194937091E+02  0.65064022931E+02  0.00000000000E+00 0. -1.
        -14    1    6    6    0    0 -0.82483140703E+02 -0.14182644533E+02 -0.12092041808E+03  0.14705904738E+03  0.00000000000E+00 0.  1.
</event>
<event>
12    1  0.1050869E+000  0.1762855E+03  0.7818608E-02  0.1171584E+00
         21   -1    0    0  501  502  0.00000000000E+00  0.00000000000E+00  0.64977229640E+02  0.64977229640E+02  0.00000000000E+00 0. -1.
         21   -1    0    0  502  503 -0.00000000000E+00 -0.00000000000E+00 -0.95962204489E+03  0.95962204489E+03  0.00000000000E+00 0. -1.
         -6    2    1    2    0  503 -0.77669924723E+01 -0.28223270021E+02 -0.84275625519E+02  0.19539436671E+03  0.17383813835E+03 0.  0.
        -24    2    3    3    0    0  0.68204888174E+01  0.87589995394E+01 -0.11805149929E+03  0.14301705749E+03  0.79965511987E+02 0.  0.
          6    2    1    2  501    0  0.77669924723E+01  0.28223270021E+02 -0.81036918973E+03  0.82920490781E+03  0.17327918611E+03 0.  0.
         24    2    5    5    0    0 -0.10220254408E+02 -0.50235848957E+01 -0.17642067823E+03  0.19411302498E+03  0.80161841010E+02 0.  0.
          5    1    5    5  501    0  0.17987246880E+02  0.33246854917E+02 -0.63394851150E+03  0.63509188284E+03  0.47000000000E+01 0. -1.
        -13    1    6    6    0    0  0.11371460205E+02 -0.15613404770E+02 -0.16727085998E+03  0.16838238956E+03  0.00000000000E+00 0.  1.
         14    1    6    6    0    0 -0.21591714612E+02  0.10589819875E+02 -0.91498182447E+01  0.25730635414E+02  0.00000000000E+00 0. -1.
         -5    1    3    3    0  503 -0.14587481290E+02 -0.36982269561E+02  0.33775873773E+02  0.52377309222E+02  0.47000000000E+01 0.  1.
         13    1    4    4    0    0  0.37743608297E+02  0.13623543487E+02 -0.31609749834E+02  0.51081867517E+02  0.00000000000E+00 0. -1.
        -14    1    4    4    0    0 -0.30923119479E+02 -0.48645439475E+01 -0.86441749457E+02  0.91935189973E+02  0.00000000000E+00 0.  1.
</event>
<event>
12    1  0.1050869E+000  0.3363985E+03  0.7818608E-02  0.1068459E+00
         21   -1    0    0  501  502  0.00000000000E+00  0.00000000000E+00  0.10858524175E+04  0.10858524175E+04  0.00000000000E+00 0. -1.
         21   -1    0    0  502  503 -0.00000000000E+00 -0.00000000000E+00 -0.10673731099E+03  0.10673731099E+03  0.00000000000E+00 0. -1.
         -6    2    1    2    0  503 -0.15347326426E+02 -0.28865846365E+03  0.39272164811E+03  0.51710177490E+03  0.17206017446E+03 0.  0.
        -24    2    3    3    0    0  0.24171850675E+02 -0.60074630977E+02  0.10182412201E+03  0.14500528927E+03  0.80406109478E+02 0.  0.
          6    2    1    2  501    0  0.15347326426E+02  0.28865846365E+03  0.58639345842E+03  0.67548795362E+03  0.16990420343E+03 0.  0.
         24    2    5    5    0    0 -0.80081834778E+01  0.79207857779E+02  0.13045152842E+03  0.17317314229E+03  0.81445197584E+02 0.  0.
          5    1    5    5  501    0  0.23355509904E+02  0.20945060588E+03  0.45594193000E+03  0.50231481133E+03  0.47000000000E+01 0. -1.
        -11    1    6    6    0    0  0.26403886969E+02  0.73571381762E+02  0.99630746414E+02  0.12663411504E+03  0.00000000000E+00 0.  1.
         12    1    6    6    0    0 -0.34412070447E+02  0.56364760165E+01  0.30820782003E+02  0.46539027252E+02  0.00000000000E+00 0. -1.
         -5    1    3    3    0  503 -0.39519177102E+02 -0.22858383268E+03  0.29089752611E+03  0.37209648562E+03  0.47000000000E+01 0.  1.
         11    1    4    4    0    0  0.40928726697E+02 -0.24981608812E+02  0.93730287079E+02  0.10528346577E+03  0.00000000000E+00 0. -1.
        -12    1    4    4    0    0 -0.16756876021E+02 -0.35093022164E+02  0.80938349305E+01  0.39721823504E+02  0.00000000000E+00 0.  1.
</event>
<event>
12    1  0.1050869E+000  0.1771363E+03  0.7818608E-02  0.1170642E+00
         21   -1    0    0  501  502  0.00000000000E+00  0.00000000000E+00  0.63917064950E+03  0.63917064950E+03  0.00000000000E+00 0.  1.
         21   -1    0    0  502  503 -0.00000000000E+00 -0.00000000000E+00 -0.55376490746E+02  0.55376490746E+02  0.00000000000E+00 0.  1.
         -6    2    1    2    0  503  0.39703406614E+02 -0.20983596276E+01  0.17461104148E+03  0.24872936764E+03  0.17261668202E+03 0.  0.
        -24    2    3    3    0    0  0.93339637499E+02 -0.40384932475E+01  0.11621231575E+03  0.16927428254E+03  0.80124172633E+02 0.  0.
          6    2    1    2  501    0 -0.39703406614E+02  0.20983596276E+01  0.40918311728E+03  0.44581777261E+03  0.17245839875E+03 0.  0.
         24    2    5    5    0    0  0.77574626068E+01  0.59337105305E+02  0.19164123653E+03  0.21587132668E+03  0.79328405087E+02 0.  0.
          5    1    5    5  501    0 -0.47460869221E+02 -0.57238745678E+02  0.21754188075E+03  0.22994644592E+03  0.47000000000E+01 0. -1.
        -11    1    6    6    0    0 -0.24712911160E+02  0.59857764416E+02  0.14733072222E+03  0.16093483665E+03  0.00000000000E+00 0.  1.
         12    1    6    6    0    0  0.32470373767E+02 -0.52065911100E+00  0.44310514310E+02  0.54936490031E+02  0.00000000000E+00 0. -1.
         -5    1    3    3    0  503 -0.53636230885E+02  0.19401336199E+01  0.58398725724E+02  0.79455085100E+02  0.47000000000E+01 0.  1.
         13    1    4    4    0    0  0.30344734558E+02 -0.27271253109E+01 -0.66618420144E+01  0.31186860485E+02  0.00000000000E+00 0. -1.
        -14    1    4    4    0    0  0.62994902941E+02 -0.13113679366E+01  0.12287415777E+03  0.13808742206E+03  0.00000000000E+00 0.  1.
</event>
<event>
12    1  0.1050869E+000  0.1060295E+04  0.7818608E-02  0.9245131E-01
         21   -1    0    0  503  502  0.00000000000E+00  0.00000000000E+00  0.78827785242E+03  0.78827785242E+03  0.00000000000E+00 0.  1.
         21   -1    0    0  501  503 -0.00000000000E+00 -0.00000000000E+00 -0.17539315193E+04  0.17539315193E+04  0.00000000000E+00 0.  1.
          6    2    1    2  501    0  0.10433128094E+04 -0.70464292076E+02  0.67946021072E+02  0.10624702552E+04  0.17538399783E+03 0.  0.
         24    2    3    3    0    0  0.36177843937E+03  0.29600847712E+02  0.19262743979E+02  0.37189492897E+03  0.78580757885E+02 0.  0.
         -6    2    1    2    0  502 -0.10433128094E+04  0.70464292076E+02 -0.10335996879E+04  0.14797391164E+04  0.16683136111E+03 0.  0.
        -24    2    5    5    0    0 -0.76106532551E+03  0.82240781005E+02 -0.67917679698E+03  0.10264842174E+04  0.80029689928E+02 0.  0.
          5    1    3    3  501    0  0.68153437008E+03 -0.10006513979E+03  0.48683277094E+02  0.69057532628E+03  0.47000000000E+01 0. -1.
        -11    1    4    4    0    0  0.23956026518E+03  0.54318057303E+02 -0.52746759803E+00  0.24564171108E+03  0.00000000000E+00 0.  1.
         12    1    4    4    0    0  0.12221817419E+03 -0.24717209591E+02  0.19790211577E+02  0.12625321789E+03  0.00000000000E+00 0. -1.
         -5    1    5    5    0  502 -0.28224748394E+03 -0.11776488928E+02 -0.35442289094E+03  0.45325489904E+03  0.47000000000E+01 0.  1.
         13    1    6    6    0    0 -0.28965050374E+03  0.45339633590E+01 -0.29448772254E+03  0.41308714561E+03  0.00000000000E+00 0. -1.
        -14    1    6    6    0    0 -0.47141482177E+03  0.77706817645E+02 -0.38468907444E+03  0.61339707180E+03  0.00000000000E+00 0.  1.
</event>
<event>
12    1  0.1050869E+000  0.4060469E+03  0.7818608E-02  0.1042031E+00
         21   -1    0    0  503  502  0.00000000000E+00  0.00000000000E+00  0.46628116379E+03  0.46628116379E+03  0.00000000000E+00 0.  1.
         21   -1    0    0  501  503 -0.00000000000E+00 -0.00000000000E+00 -0.50865928860E+03  0.50865928860E+03  0.00000000000E+00 0.  1.
          6    2    1    2  501    0 -0.11858375660E+03  0.34201497293E+03  0.25074461503E+03  0.47722839882E+03  0.18395035644E+03 0.  0.
         24    2    3    3    0    0 -0.55395756098E+02  0.63214913136E+02  0.35546998849E+02  0.11938164285E+03  0.76964748330E+02 0.  0.
         -6    2    1    2    0  502  0.11858375660E+03 -0.34201497293E+03 -0.29312273984E+03  0.49771205357E+03  0.17538528621E+03 0.  0.
        -24    2    5    5    0    0  0.14729009757E+03 -0.30580078847E+03 -0.28811837844E+03  0.45099316231E+03  0.71931476958E+02 0.  0.
          5    1    3    3  501    0 -0.63188000506E+02  0.27880005980E+03  0.21519761618E+03  0.35784675597E+03  0.47000000000E+01 0. -1.
        -11    1    4    4    0    0  0.13603756431E+02  0.16014301502E+02 -0.10978947197E+02  0.23707748167E+02  0.00000000000E+00 0.  1.
         12    1    4    4    0    0 -0.68999512528E+02  0.47200611634E+02  0.46525946047E+02  0.95673894680E+02  0.00000000000E+00 0. -1.
         -5    1    5    5    0  502 -0.28706340970E+02 -0.36214184461E+02 -0.50043613946E+01  0.46718891265E+02  0.47000000000E+01 0.  1.
         11    1    6    6    0    0  0.33916625438E+01 -0.65622855766E+02 -0.70550024669E+02  0.96411454477E+02  0.00000000000E+00 0. -1.
        -12    1    6    6    0    0  0.14389843503E+03 -0.24017793271E+03 -0.21756835377E+03  0.35458170783E+03  0.00000000000E+00 0.  1.
</event>
<event>
12    1  0.1050869E+000  0.2091322E+03  0.7818608E-02  0.1144084E+00
         21   -1    0    0  503  502  0.00000000000E+00  0.00000000000E+00  0.53305982593E+02  0.53305982593E+02  0.00000000000E+00 0. -1.
         21   -1    0    0  501  503 -0.00000000000E+00 -0.00000000000E+00 -0.78607530901E+03  0.78607530901E+03  0.00000000000E+00 0. -1.
          6    2    1    2  501    0  0.11249496434E+03 -0.35857729980E+02 -0.34839080160E+03  0.40179342307E+03  0.16161964726E+03 0.  0.
         24    2    3    3    0    0  0.77859449184E+02 -0.76982790862E+02 -0.18285907089E+03  0.22768502748E+03  0.80091123195E+02 0.  0.
         -6    2    1    2    0  502 -0.11249496434E+03  0.35857729980E+02 -0.38437852481E+03  0.43758786853E+03  0.17261343676E+03 0.  0.
        -24    2    5    5    0    0 -0.11404659287E+03  0.85085028241E+02 -0.25425310073E+03  0.29837418228E+03  0.64315053047E+02 0.  0.
          5    1    3    3  501    0  0.34635515151E+02  0.41125060882E+02 -0.16553173071E+03  0.17410839559E+03  0.47000000000E+01 0. -1.
        -13    1    4    4    0    0  0.74882555642E+02 -0.19932136904E+02 -0.11895497019E+03  0.14196820825E+03  0.00000000000E+00 0.  1.
         14    1    4    4    0    0  0.29768935426E+01 -0.57050653958E+02 -0.63904100707E+02  0.85716819233E+02  0.00000000000E+00 0. -1.
         -5    1    5    5    0  502  0.15516285383E+01 -0.49227298261E+02 -0.13012542409E+03  0.13921368625E+03  0.47000000000E+01 0.  1.
         11    1    6    6    0    0 -0.28839229217E+02  0.20181438352E+02 -0.19266288169E+02  0.40127066372E+02  0.00000000000E+00 0. -1.
        -12    1    6    6    0    0 -0.85207363657E+02  0.64903589889E+02 -0.23498681256E+03  0.25824711591E+03  0.00000000000E+00 0.  1.
</event>
<event>
12    1  0.1050869E+000  0.3668019E+03  0.7818608E-02  0.1055970E+00
         21   -1    0    0  501  502  0.00000000000E+00  0.00000000000E+00  0.14038558393E+04  0.14038558393E+04  0.00000000000E+00 0.  1.
         21   -1    0    0  502  503 -0.00000000000E+00 -0.00000000000E+00 -0.21619716733E+03  0.21619716733E+03  0.00000000000E+00 0. -1.
         -6    2    1    2    0  503  0.29176283068E+03 -0.14019556215E+03  0.11987085135E+04  0.12535731835E+04  0.17252037837E+03 0.  0.
        -24    2    3    3    0    0  0.14267356635E+03 -0.36688578789E+02  0.38198904707E+03  0.41691669410E+03  0.78753408770E+02 0.  0.
          6    2    1    2  501    0 -0.29176283068E+03  0.14019556215E+03 -0.11049841559E+02  0.36647982314E+03  0.17147891053E+03 0.  0.
         24    2    5    5    0    0 -0.15254088469E+03  0.84368761356E+02  0.60453834285E+02  0.20024430470E+03  0.77822272448E+02 0.  0.
          5    1    5    5  501    0 -0.13922194600E+03  0.55826800794E+02 -0.71503675844E+02  0.16623551845E+03  0.47000000000E+01 0. -1.
        -13    1    6    6    0    0 -0.11291951343E+03  0.93372253412E+02  0.30243204128E+02  0.14961231773E+03  0.00000000000E+00 0.  1.
         14    1    6    6    0    0 -0.39621371263E+02 -0.90034920563E+01  0.30210630157E+02  0.50631986969E+02  0.00000000000E+00 0. -1.
         -5    1    3    3    0  503  0.14908926433E+03 -0.10350698336E+03  0.81671946648E+03  0.83665648941E+03  0.47000000000E+01 0.  1.
         13    1    4    4    0    0  0.12392175294E+03 -0.43387982228E+02  0.37229618271E+03  0.39477026929E+03  0.00000000000E+00 0. -1.
        -14    1    4    4    0    0  0.18751813413E+02  0.66994034383E+01  0.96928643613E+01  0.22146424819E+02  0.00000000000E+00 0.  1.
</event>
<event>
12    1  0.1050869E+000  0.1876172E+03  0.7818608E-02  0.1160696E+00
         21   -1    0    0  501  502  0.00000000000E+00  0.00000000000E+00  0.33468079238E+03  0.33468079238E+03  0.00000000000E+00 0.  1.
         21   -1    0    0  502  503 -0.00000000000E+00 -0.00000000000E+00 -0.47997240982E+03  0.47997240982E+03  0.00000000000E+00 0.  1.
         -6    2    1    2    0  503  0.26466412817E+02 -0.70463489764E+02  0.28738878532E+03  0.34304684601E+03  0.17153206764E+03 0.  0.
        -24    2    3    3    0    0  0.11670669619E+02  0.16323847090E+02  0.21041350625E+03  0.22600736787E+03  0.80017586840E+02 0.  0.
          6    2    1    2  501    0 -0.26466412817E+02  0.70463489764E+02 -0.43268040277E+03  0.47160635619E+03  0.17185648042E+03 0.  0.
         24    2    5    5    0    0 -0.49961343833E+02  0.10735465158E+03 -0.31108355581E+03  0.34229721964E+03  0.79832642372E+02 0.  0.
          5    1    5    5  501    0  0.23494931016E+02 -0.36891161817E+02 -0.12159684696E+03  0.12930913655E+03  0.47000000000E+01 0. -1.
        -11    1    6    6    0    0 -0.63931372858E+02  0.75577260975E+02 -0.27478695808E+03  0.29207364678E+03  0.00000000000E+00 0.  1.
         12    1    6    6    0    0  0.13970029025E+02  0.31777390607E+02 -0.36296597731E+02  0.50223572867E+02  0.00000000000E+00 0. -1.
         -5    1    3    3    0  503  0.14795743198E+02 -0.86787336855E+02  0.76975279072E+02  0.11703947814E+03  0.47000000000E+01 0.  1.
         13    1    4    4    0    0 -0.27302439877E+02 -0.16152726019E+02  0.84471212062E+02  0.90231477038E+02  0.00000000000E+00 0. -1.
        -14    1    4    4    0    0  0.38973109496E+02  0.32476573110E+02  0.12594229419E+03  0.13577589083E+03  0.00000000000E+00 0.  1.
</event>
<event>
12    1  0.1050869E+000  0.2180473E+03  0.7818608E-02  0.1135654E+00
         21   -1    0    0  501  502  0.00000000000E+00  0.00000000000E+00  0.15119633658E+04  0.15119633658E+04  0.00000000000E+00 0. -1.
         21   -1    0    0  502  503 -0.00000000000E+00 -0.00000000000E+00 -0.68395252840E+02  0.68395252840E+02  0.00000000000E+00 0. -1.
         -6    2    1    2    0  503  0.13208911243E+03  0.20696754868E+02  0.13031717522E+04  0.13210214223E+04  0.17019134269E+03 0.  0.
        -24    2    3    3    0    0  0.66844801702E+02 -0.52386487888E+02  0.65099414436E+03  0.66150970698E+03  0.81173547517E+02 0.  0.
          6    2    1    2  501    0 -0.13208911243E+03 -0.20696754868E+02  0.14039636067E+03  0.25933719626E+03  0.17224620168E+03 0.  0.
         24    2    5    5    0    0 -0.40254199259E+02 -0.59366954895E+02  0.11263138565E+03  0.15579001144E+03  0.80248755383E+02 0.  0.
          5    1    5    5  501    0 -0.91834913167E+02  0.38670200027E+02  0.27764975022E+02  0.10354718482E+03  0.47000000000E+01 0. -1.
        -13    1    6    6    0    0 -0.36217325173E+02 -0.32099560171E+02  0.98639161002E+01  0.49390011608E+02  0.00000000000E+00 0.  1.
         14    1    6    6    0    0 -0.40368740860E+01 -0.27267394724E+02  0.10276746955E+03  0.10639999983E+03  0.00000000000E+00 0. -1.
         -5    1    3    3    0  503  0.65244310724E+02  0.73083242755E+02  0.65217760789E+03  0.65951171535E+03  0.47000000000E+01 0.  1.
         11    1    4    4    0    0 -0.14946050992E+02 -0.27920570570E+02  0.15183449387E+03  0.15510208325E+03  0.00000000000E+00 0. -1.
        -12    1    4    4    0    0  0.81790852694E+02 -0.24465917317E+02  0.49915965049E+03  0.50640762373E+03  0.00000000000E+00 0.  1.
</event>
<event>
12    1  0.1050869E+000  0.2956101E+03  0.7818608E-02  0.1087660E+00
         21   -1    0    0  503  502  0.00000000000E+00  0.00000000000E+00  0.47409007216E+02  0.47409007216E+02  0.00000000000E+00 0.  1.
         21   -1    0    0  501  503 -0.00000000000E+00 -0.00000000000E+00 -0.18357767644E+04  0.18357767644E+04  0.00000000000E+00 0. -1.
          6    2    1    2  501    0 -0.16934397239E+03  0.16806289440E+03 -0.85682793745E+03  0.90586710791E+03  0.17180973585E+03 0.  0.
         24    2    3    3    0    0 -0.97890420903E+02  0.22234667410E+02 -0.43211389497E+03  0.45114126777E+03  0.82031154572E+02 0.  0.
         -6    2    1    2    0  502  0.16934397239E+03 -0.16806289440E+03 -0.93153981976E+03  0.97731866374E+03  0.17453600553E+03 0.  0.
        -24    2    5    5    0    0  0.71652544339E+02 -0.54708463700E+02 -0.62216752129E+03  0.63362381196E+03  0.79117680877E+02 0.  0.
          5    1    3    3  501    0 -0.71453551491E+02  0.14582822699E+03 -0.42471404248E+03  0.45472584014E+03  0.47000000000E+01 0. -1.
        -13    1    4    4    0    0 -0.71501937401E+02  0.51271905370E+02 -0.33595620666E+03  0.34728649286E+03  0.00000000000E+00 0.  1.
         14    1    4    4    0    0 -0.26388483502E+02 -0.29037237960E+02 -0.96157688313E+02  0.10385477491E+03  0.00000000000E+00 0. -1.
         -5    1    5    5    0  502  0.97691428056E+02 -0.11335443070E+03 -0.30937229847E+03  0.34369485177E+03  0.47000000000E+01 0.  1.
         13    1    6    6    0    0 -0.17045041339E+02 -0.13619888912E+02 -0.13410897383E+03  0.13587218873E+03  0.00000000000E+00 0. -1.
        -14    1    6    6    0    0  0.88697585678E+02 -0.41088574788E+02 -0.48805854746E+03  0.49775162324E+03  0.00000000000E+00 0.  1.
</event>
<event>
12    1  0.1050869E+000  0.1763395E+03  0.7818608E-02  0.1171833E+00
         21   -1    0    0  501  502  0.00000000000E+00  0.00000000000E+00  0.23925836041E+03  0.23925836041E+03  0.00000000000E+00 0.  1.
         21   -1    0    0  502  503 -0.00000000000E+00 -0.00000000000E+00 -0.13702740895E+03  0.13702740895E+03  0.00000000000E+00 0.  1.
         -6    2    1    2    0  503 -0.32146411766E+02  0.37654558582E+01  0.97808629117E+02  0.20164860170E+03  0.17334376305E+03 0.  0.
        -24    2    3    3    0    0 -0.65440987682E+02 -0.44306668846E+02  0.84819564881E+02  0.14156313133E+03  0.81241355191E+02 0.  0.
          6    2    1    2  501    0  0.32146411766E+02 -0.37654558582E+01  0.44223223496E+01  0.17463716767E+03  0.17155469375E+03 0.  0.
         24    2    5    5    0    0 -0.16358158053E+02 -0.15918568209E+02 -0.53713526908E+02  0.97811010649E+02  0.78491150345E+02 0.  0.
          5    1    5    5  501    0  0.48504569819E+02  0.12153112350E+02  0.58135849258E+02  0.76826157018E+02  0.47000000000E+01 0. -1.
        -13    1    6    6    0    0  0.22668194752E+02  0.17358940589E+02 -0.29638620487E+02  0.41153708169E+02  0.00000000000E+00 0.  1.
         14    1    6    6    0    0 -0.39026352805E+02 -0.33277508798E+02 -0.24074906422E+02  0.56657302480E+02  0.00000000000E+00 0. -1.
         -5    1    3    3    0  503  0.33294575916E+02  0.48072124704E+02  0.12989064236E+02  0.60085470363E+02  0.47000000000E+01 0.  1.
         11    1    4    4    0    0 -0.50787512681E+02 -0.27730833959E+02  0.42610489339E+01  0.58021781551E+02  0.00000000000E+00 0. -1.
        -12    1    4    4    0    0 -0.14653475002E+02 -0.16575834887E+02  0.80558515947E+02  0.83541349782E+02  0.00000000000E+00 0.  1.
</event>
<event>
12    1  0.1050869E+000  0.2465900E+03  0.7818608E-02  0.1115545E+00
         21   -1    0    0  503  502  0.00000000000E+00  0.00000000000E+00  0.32406620920E+03  0.32406620920E+03  0.00000000000E+00 0.  1.
         21   -1    0    0  501  503 -0.00000000000E+00 -0.00000000000E+00 -0.18744037416E+03  0.18744037416E+03  0.00000000000E+00 0.  1.
          6    2    1    2  501    0  0.16529499744E+03  0.61075645228E+02  0.74760060192E+02  0.25767362023E+03  0.17249335450E+03 0.  0.
         24    2    3    3    0    0  0.48017605276E+02 -0.22425070804E+02  0.52881889761E+02  0.11197838822E+03  0.83271189174E+02 0.  0.
         -6    2    1    2    0  502 -0.16529499744E+03 -0.61075645228E+02  0.61865774851E+02  0.25383296313E+03  0.17190441663E+03 0.  0.
        -24    2    5    5    0    0 -0.36770156140E+02 -0.71510126593E+02  0.40083885531E+01  0.11242192969E+03  0.78465791958E+02 0.  0.
          5    1    3    3  501    0  0.11727739216E+03  0.83500716032E+02  0.21878170431E+02  0.14569523201E+03  0.47000000000E+01 0. -1.
        -11    1    4    4    0    0  0.17259886526E+02 -0.23527231777E+02  0.70651186004E+02  0.76439678190E+02  0.00000000000E+00 0.  1.
         12    1    4    4    0    0  0.30757718750E+02  0.11021609733E+01 -0.17769296243E+02  0.35538710029E+02  0.00000000000E+00 0. -1.
         -5    1    5    5    0  502 -0.12852484130E+03  0.10434481365E+02  0.57857386298E+02  0.14141103345E+03  0.47000000000E+01 0.  1.
         13    1    6    6    0    0 -0.59818434773E+01  0.13076588574E+02 -0.14611462879E+02  0.20500596761E+02  0.00000000000E+00 0. -1.
        -14    1    6    6    0    0 -0.30788312663E+02 -0.84586715167E+02  0.18619851432E+02  0.91921332925E+02  0.00000000000E+00 0.  1.
</event>
<event>
12    1  0.1050869E+000  0.2595614E+03  0.7818608E-02  0.1107653E+00
         21   -1    0    0  501  502  0.00000000000E+00  0.00000000000E+00  0.18841675453E+03  0.18841675453E+03  0.00000000000E+00 0. -1.
         21   -1    0    0  502  503 -0.00000000000E+00 -0.00000000000E+00 -0.52346995067E+03  0.52346995067E+03  0.00000000000E+00 0. -1.
         -6    2    1    2    0  503 -0.51899524817E+02  0.18607609651E+03  0.34564115522E+02  0.26023519021E+03  0.17090875278E+03 0.  0.
        -24    2    3    3    0    0  0.10247725358E+02  0.94502358428E+02 -0.37101801891E+02  0.12830291998E+03  0.77777785705E+02 0.  0.
          6    2    1    2  501    0  0.51899524817E+02 -0.18607609651E+03 -0.36961731166E+03  0.45165151498E+03  0.17336164379E+03 0.  0.
         24    2    5    5    0    0  0.98591530840E+01 -0.19166209308E+03 -0.34385087692E+03  0.40180579930E+03  0.79893140889E+02 0.  0.
          5    1    5    5  501    0  0.42040371733E+02  0.55859965773E+01 -0.25766434740E+02  0.49845715687E+02  0.47000000000E+01 0. -1.
        -13    1    6    6    0    0  0.22886807473E+02 -0.13710272425E+03 -0.17265463980E+03  0.22165420726E+03  0.00000000000E+00 0.  1.
         14    1    6    6    0    0 -0.13027654389E+02 -0.54559368836E+02 -0.17119623712E+03  0.18015159203E+03  0.00000000000E+00 0. -1.
         -5    1    3    3    0  503 -0.62147250175E+02  0.91573738079E+02  0.71665917412E+02  0.13193227023E+03  0.47000000000E+01 0.  1.
         11    1    4    4    0    0 -0.14586754797E+02 -0.82937920373E+01 -0.81713833901E+01  0.18663652064E+02  0.00000000000E+00 0. -1.
        -12    1    4    4    0    0  0.24834480155E+02  0.10279615046E+03 -0.28930418500E+02  0.10963926792E+03  0.00000000000E+00 0.  1.
</event>
<event>
12    1  0.1050869E+000  0.1978717E+03  0.7818608E-02  0.1151689E+00
         21   -1    0    0  501  502  0.00000000000E+00  0.00000000000E+00  0.22053417005E+04  0.22053417005E+04  0.00000000000E+00 0.  1.
         21   -1    0    0  502  503 -0.00000000000E+00 -0.00000000000E+00 -0.20982597436E+02  0.20982597436E+02  0.00000000000E+00 0.  1.
         -6    2    1    2    0  503 -0.69064845945E+02  0.69008389388E+02  0.15343964124E+04  0.15471023064E+04  0.17210777248E+03 0.  0.
        -24    2    3    3    0    0 -0.50037830804E+01  0.87742616517E+02  0.12144633345E+04  0.12202475139E+04  0.79743336819E+02 0.  0.
          6    2    1    2  501    0  0.69064845945E+02 -0.69008389388E+02  0.64996269063E+03  0.67922199150E+03  0.17134440105E+03 0.  0.
         24    2    5    5    0    0  0.47559703438E+02 -0.11177746255E+03  0.53911165149E+03  0.55838446566E+03  0.79973196688E+02 0.  0.
          5    1    5    5  501    0  0.21505142507E+02  0.42769073157E+02  0.11085103914E+03  0.12083752584E+03  0.47000000000E+01 0. -1.
        -11    1    6    6    0    0 -0.57749790053E+01 -0.54772988428E+02  0.11961314422E+03  0.13168422424E+03  0.00000000000E+00 0.  1.
         12    1    6    6    0    0  0.53334682443E+02 -0.57004474118E+02  0.41949850727E+03  0.42670024142E+03  0.00000000000E+00 0. -1.
         -5    1    3    3    0  503 -0.64061062865E+02 -0.18734227129E+02  0.31993307798E+03  0.32685479257E+03  0.47000000000E+01 0.  1.
         11    1    4    4    0    0 -0.11226377037E+02  0.53697725477E+02  0.29039291861E+03  0.29552922773E+03  0.00000000000E+00 0. -1.
        -12    1    4    4    0    0  0.62225939567E+01  0.34044891040E+02  0.92407041584E+03  0.92471828614E+03  0.00000000000E+00 0.  1.
</event>
<event>
12    1  0.1050869E+000  0.3026755E+03  0.7818608E-02  0.1084076E+00
         21   -1    0    0  503  502  0.00000000000E+00  0.00000000000E+00  0.62033372686E+03  0.62033372686E+03  0.00000000000E+00 0. -1.
         21   -1    0    0  501  503 -0.00000000000E+00 -0.00000000000E+00 -0.15364740431E+03  0.15364740431E+03  0.00000000000E+00 0. -1.
          6    2    1    2  501    0 -0.13443420208E+03 -0.20859018316E+03  0.15353845210E+03  0.33939134826E+03  0.17329169571E+03 0.  0.
         24    2    3    3    0    0 -0.80917540087E+02 -0.12508959560E+03  0.16164027900E+02  0.16989148497E+03  0.80042399045E+02 0.  0.
         -6    2    1    2    0  502  0.13443420208E+03  0.20859018316E+03  0.31314787045E+03  0.43458978291E+03  0.17095107911E+03 0.  0.
        -24    2    5    5    0    0  0.16147509861E+03  0.15511508875E+03  0.27466583538E+03  0.36321925097E+03  0.79699466275E+02 0.  0.
          5    1    3    3  501    0 -0.53516661994E+02 -0.83500587556E+02  0.13737442420E+03  0.16949986329E+03  0.47000000000E+01 0. -1.
        -13    1    4    4    0    0 -0.66275683221E+02 -0.56428845105E+02  0.39940198155E+02  0.95770037982E+02  0.00000000000E+00 0.  1.
         14    1    4    4    0    0 -0.14641856866E+02 -0.68660750495E+02 -0.23776170255E+02  0.74121446984E+02  0.00000000000E+00 0. -1.
         -5    1    5    5    0  502 -0.27040896525E+02  0.53475094406E+02  0.38482035072E+02  0.71370531943E+02  0.47000000000E+01 0.  1.
         13    1    6    6    0    0  0.83522385912E+02  0.12351687665E+03  0.14053493740E+03  0.20489625764E+03  0.00000000000E+00 0. -1.
        -14    1    6    6    0    0  0.77952712694E+02  0.31598212098E+02  0.13413089797E+03  0.15832299333E+03  0.00000000000E+00 0.  1.
</event>
<event>
12    1  0.1050869E+000  0.1849094E+03  0.7818608E-02  0.1163209E+00
         21   -1    0    0  503  502  0.00000000000E+00  0.00000000000E+00  0.72192906144E+02  0.72192906144E+02  0.00000000000E+00 0. -1.
         21   -1    0    0  501  503 -0.00000000000E+00 -0.00000000000E+00 -0.65263233292E+03  0.65263233292E+03  0.00000000000E+00 0. -1.
          6    2    1    2  501    0 -0.98251234592E+01  0.66459192206E+02 -0.48028168330E+03  0.51453240331E+03  0.17192946653E+03 0.  0.
         24    2    3    3    0    0  0.47696841084E+02  0.65181538206E+01 -0.32771783826E+03  0.34075230864E+03  0.79972991419E+02 0.  0.
         -6    2    1    2    0  502  0.98251234592E+01 -0.66459192206E+02 -0.10015774347E+03  0.21029283575E+03  0.17227346258E+03 0.  0.
        -24    2    5    5    0    0 -0.38061646169E+02  0.12081979995E+02 -0.66358433534E+02  0.11217891325E+03  0.81154197223E+02 0.  0.
          5    1    3    3  501    0 -0.57521964543E+02  0.59941038385E+02 -0.15256384505E+03  0.17378009467E+03  0.47000000000E+01 0. -1.
        -11    1    4    4    0    0  0.55822701772E+02 -0.50810627954E+01 -0.11885289207E+03  0.13140776683E+03  0.00000000000E+00 0.  1.
         12    1    4    4    0    0 -0.81258606882E+01  0.11599216616E+02 -0.20886494619E+03  0.20934454181E+03  0.00000000000E+00 0. -1.
         -5    1    5    5    0  502  0.47886769628E+02 -0.78541172200E+02 -0.33799309936E+02  0.98113922499E+02  0.47000000000E+01 0.  1.
         11    1    6    6    0    0  0.13678424195E+02  0.29792966165E+02 -0.39254764467E+02  0.51143490834E+02  0.00000000000E+00 0. -1.
        -12    1    6    6    0    0 -0.51740070364E+02 -0.17710986170E+02 -0.27103669067E+02  0.61035422414E+02  0.00000000000E+00 0.  1.
</event>
<event>
12    1  0.1050869E+000  0.3946005E+03  0.7818608E-02  0.1046109E+00
         21   -1    0    0  501  502  0.00000000000E+00  0.00000000000E+00  0.18415680580E+04  0.18415680580E+04  0.00000000000E+00 0. -1.
         21   -1    0    0  502  503 -0.00000000000E+00 -0.00000000000E+00 -0.92280994289E+02  0.92280994289E+02  0.00000000000E+00 0. -1.
         -6    2    1    2    0  503 -0.22793371940E+03 -0.27127275832E+03  0.11681307650E+04  0.12313874979E+04  0.16199690092E+03 0.  0.
        -24    2    3    3    0    0 -0.20303149704E+03 -0.23788620409E+03  0.82659482702E+03  0.88728915492E+03  0.78812445118E+02 0.  0.
          6    2    1    2  501    0  0.22793371940E+03  0.27127275832E+03  0.58115629869E+03  0.70246155440E+03  0.17368621723E+03 0.  0.
         24    2    5    5    0    0  0.59530548459E+02  0.17052828835E+03  0.31459366883E+03  0.37142258109E+03  0.79760729351E+02 0.  0.
          5    1    5    5  501    0  0.16840317095E+03  0.10074446997E+03  0.26656262985E+03  0.33103897331E+03  0.47000000000E+01 0. -1.
        -13    1    6    6    0    0  0.67143432758E+02  0.79546778369E+02  0.19403584928E+03  0.22019500747E+03  0.00000000000E+00 0.  1.
         14    1    6    6    0    0 -0.76128842996E+01  0.90981509986E+02  0.12055781956E+03  0.15122757362E+03  0.00000000000E+00 0. -1.
         -5    1    3    3    0  503 -0.24902222367E+02 -0.33386554238E+02  0.34153593797E+03  0.34409834293E+03  0.47000000000E+01 0.  1.
         11    1    4    4    0    0 -0.32867261018E+02 -0.53070644672E+02  0.26184555108E+03  0.26918365996E+03  0.00000000000E+00 0. -1.
        -12    1    4    4    0    0 -0.17016423602E+03 -0.18481555941E+03  0.56474927594E+03  0.61810549496E+03  0.00000000000E+00 0.  1.
</event>
<event>
12    1  0.1050869E+000  0.2318957E+03  0.7818608E-02  0.1125584E+00
         21   -1    0    0  501  502  0.00000000000E+00  0.00000000000E+00  0.10333235133E+04  0.10333235133E+04  0.00000000000E+00 0. -1.
         21   -1    0    0  502  503 -0.00000000000E+00 -0.00000000000E+00 -0.31186638631E+03  0.31186638631E+03  0.00000000000E+00 0.  1.
         -6    2    1    2    0  503 -0.10394013898E+03 -0.11505739603E+03  0.97485495118E+03  0.10016988896E+04  0.17034298550E+03 0.  0.
        -24    2    3    3    0    0 -0.50671825354E+02 -0.14193600362E+03  0.71357432054E+03  0.73365107534E+03  0.79637468598E+02 0.  0.
          6    2    1    2  501    0  0.10394013898E+03  0.11505739603E+03 -0.25339782422E+03  0.34349100999E+03  0.17243508851E+03 0.  0.
         24    2    5    5    0    0  0.32718130405E+02  0.95704292105E+02 -0.73541401731E+02  0.14902368665E+03  0.81055128330E+02 0.  0.
          5    1    5    5  501    0  0.71222008575E+02  0.19353103929E+02 -0.17985642249E+03  0.19446732334E+03  0.47000000000E+01 0. -1.
        -13    1    6    6    0    0 -0.35971773355E+01  0.31906550001E+02  0.13783535883E+02  0.34942144742E+02  0.00000000000E+00 0.  1.
         14    1    6    6    0    0  0.36315307741E+02  0.63797742104E+02 -0.87324937614E+02  0.11408154190E+03  0.00000000000E+00 0. -1.
         -5    1    3    3    0  503 -0.53268313626E+02  0.26878607581E+02  0.26128063064E+03  0.26804781426E+03  0.47000000000E+01 0.  1.
         13    1    4    4    0    0  0.49389888482E+01 -0.96511951094E+02  0.46377687128E+03  0.47373825753E+03  0.00000000000E+00 0. -1.
        -14    1    4    4    0    0 -0.55610814203E+02 -0.45424052521E+02  0.24979744926E+03  0.25991281781E+03  0.00000000000E+00 0.  1.
</event>
<event>
12    1  0.1050869E+000  0.2474303E+03  0.7818608E-02  0.1115241E+00
         21   -1    0    0  501  502  0.00000000000E+00  0.00000000000E+00  0.21126580362E+03  0.21126580362E+03  0.00000000000E+00 0.  1.
         21   -1    0    0  502  503 -0.00000000000E+00 -0.00000000000E+00 -0.53339173275E+03  0.53339173275E+03  0.00000000000E+00 0.  1.
         -6    2    1    2    0  503  0.85855009563E+02 -0.15315095461E+03 -0.41348312721E+03  0.48090031913E+03  0.17166980772E+03 0.  0.
        -24    2    3    3    0    0  0.74745230896E+02 -0.14125118957E+03 -0.42473159780E+03  0.46056193963E+03  0.78623291548E+02 0.  0.
          6    2    1    2  501    0 -0.85855009563E+02  0.15315095461E+03  0.91357198082E+02  0.26375721724E+03  0.17434286461E+03 0.  0.
         24    2    5    5    0    0 -0.12832517889E+02  0.15069751931E+03  0.64103480305E+02  0.18563450116E+03  0.86466733446E+02 0.  0.
          5    1    5    5  501    0 -0.73022491675E+02  0.24534352989E+01  0.27253717777E+02  0.78122716081E+02  0.47000000000E+01 0. -1.
        -13    1    6    6    0    0 -0.43656078924E+02  0.40795799068E+02  0.27422283603E+02  0.65742924233E+02  0.00000000000E+00 0.  1.
         14    1    6    6    0    0  0.30823561035E+02  0.10990172024E+03  0.36681196702E+02  0.11989157693E+03  0.00000000000E+00 0. -1.
         -5    1    3    3    0  503  0.11109778668E+02 -0.11899765038E+02  0.11248470584E+02  0.20338379495E+02  0.47000000000E+01 0.  1.
         11    1    4    4    0    0 -0.22086527350E+01 -0.16448674341E+02 -0.73029695390E+01  0.18132026875E+02  0.00000000000E+00 0. -1.
        -12    1    4    4    0    0  0.76953883631E+02 -0.12480251523E+03 -0.41742862826E+03  0.44242991276E+03  0.00000000000E+00 0.  1.
</event>
<event>
12    1  0.1050869E+000  0.2247927E+03  0.7818608E-02  0.1130618E+00
         21   -1    0    0  501  502  0.00000000000E+00  0.00000000000E+00  0.34875636240E+03  0.34875636240E+03  0.00000000000E+00 0.  1.
         21   -1    0    0  502  503 -0.00000000000E+00 -0.00000000000E+00 -0.16325938869E+03  0.16325938869E+03  0.00000000000E+00 0.  1.
         -6    2    1    2    0  503  0.64345954730E+02 -0.12839451689E+03  0.18098651283E+03  0.28859635521E+03  0.17293404683E+03 0.  0.
        -24    2    3    3    0    0  0.22586807850E+02 -0.14453108601E+03  0.96249736772E+02  0.19264518831E+03  0.80304159547E+02 0.  0.
          6    2    1    2  501    0 -0.64345954730E+02  0.12839451689E+03  0.45104608734E+01  0.22341939589E+03  0.17108573390E+03 0.  0.
         24    2    5    5    0    0 -0.71570992941E+02  0.11834823424E+03 -0.49975027429E+02  0.16734901683E+03  0.79871637569E+02 0.  0.
          5    1    5    5  501    0  0.72250382118E+01  0.10046282650E+02  0.54485488302E+02  0.56070379059E+02  0.47000000000E+01 0. -1.
        -11    1    6    6    0    0 -0.32774601007E+02  0.10556123171E+03 -0.59320514278E+02  0.12544429651E+03  0.00000000000E+00 0.  1.
         12    1    6    6    0    0 -0.38796391934E+02  0.12787002530E+02  0.93454868489E+01  0.41904720322E+02  0.00000000000E+00 0. -1.
         -5    1    3    3    0  503  0.41759146880E+02  0.16136569116E+02  0.84736776061E+02  0.95951166894E+02  0.47000000000E+01 0.  1.
         13    1    4    4    0    0  0.45868248459E+02 -0.78278442146E+02  0.79076615189E+02  0.12035165886E+03  0.00000000000E+00 0. -1.
        -14    1    4    4    0    0 -0.23281440610E+02 -0.66252643860E+02  0.17173121583E+02  0.72293529449E+02  0.00000000000E+00 0.  1.
</event>
<event>
12    1  0.1050869E+000  0.1883925E+03  0.7818608E-02  0.1160169E+00
         21   -1    0    0  503  502  0.00000000000E+00  0.00000000000E+00  0.22568849420E+03  0.22568849420E+03  0.00000000000E+00 0.  1.
         21   -1    0    0  501  503 -0.00000000000E+00 -0.00000000000E+00 -0.40534180019E+03  0.40534180019E+03  0.00000000000E+00 0.  1.
          6    2    1    2  501    0 -0.39193358334E+02  0.65754230111E+02  0.15735931898E+03  0.24546623166E+03  0.17213941298E+03 0.  0.
         24    2    3    3    0    0  0.88193228653E+01  0.79247243234E+02  0.39558293332E+02  0.11745665935E+03  0.76637472815E+02 0.  0.
         -6    2    1    2    0  502  0.39193358334E+02 -0.65754230111E+02 -0.33701262497E+03  0.38556406274E+03  0.17094560239E+03 0.  0.
        -24    2    5    5    0    0  0.79055111970E+02 -0.87140949840E+02 -0.24743280385E+03  0.28510021086E+03  0.78840864680E+02 0.  0.
          5    1    3    3  501    0 -0.48012681200E+02 -0.13493013123E+02  0.11780102564E+03  0.12800957230E+03  0.47000000000E+01 0. -1.
        -13    1    4    4    0    0 -0.77701300724E+01  0.37691101939E+02  0.57548660870E+02  0.69230357897E+02  0.00000000000E+00 0.  1.
         14    1    4    4    0    0  0.16589452938E+02  0.41556141295E+02 -0.17990367537E+02  0.48226301457E+02  0.00000000000E+00 0. -1.
         -5    1    5    5    0  502 -0.39861753636E+02  0.21386719729E+02 -0.89579821112E+02  0.10046385188E+03  0.47000000000E+01 0.  1.
         11    1    6    6    0    0  0.27484909686E+02  0.48849409518E+01 -0.99937913876E+02  0.10376352701E+03  0.00000000000E+00 0. -1.
        -12    1    6    6    0    0  0.51570202284E+02 -0.92025890791E+02 -0.14749488998E+03  0.18133668385E+03  0.00000000000E+00 0.  1.
</event>
<event>
12    1  0.1178532E+000  0.2158404E+03  0.7818608E-02  0.1137687E+00
         21   -1    0    0  503  502  0.00000000000E+00  0.00000000000E+00  0.12460507951E+03  0.12460507951E+03  0.00000000000E+00 0. -1.
         21   -1    0    0  501  503 -0.00000000000E+00 -0.00000000000E+00 -0.74711429583E+03  0.74711429583E+03  0.00000000000E+00 0. -1.
          6    2    1    2  501    0 -0.41082577942E+02  0.11848987559E+03  0.48806628557E+00  0.21239192751E+03  0.17141313786E+03 0.  0.
         24    2    3    3    0    0 -0.28386199529E+02 -0.70198689844E+01  0.80401727256E+00  0.86153724755E+02  0.81035566026E+02 0.  0.
         -6    2    1    2    0  502  0.41082577942E+02 -0.11848987559E+03 -0.62299728261E+03  0.65932744783E+03  0.17566855296E+03 0.  0.
        -24    2    5    5    0    0 -0.11395232231E+02  0.55803962605E+01 -0.20998344889E+03  0.22487391779E+03  0.79462179411E+02 0.  0.
          5    1    3    3  501    0 -0.12696378414E+02  0.12550974458E+03 -0.31595098699E+00  0.12623820275E+03  0.47000000000E+01 0. -1.
        -11    1    4    4    0    0  0.24759021195E+02 -0.14615420667E+01 -0.16727925933E+02  0.29916028176E+02  0.00000000000E+00 0.  1.
         12    1    4    4    0    0 -0.53145220724E+02 -0.55583269177E+01  0.17531943206E+02  0.56237696579E+02  0.00000000000E+00 0. -1.
         -5    1    5    5    0  502  0.52477810173E+02 -0.12407027185E+03 -0.41301383372E+03  0.43445353004E+03  0.47000000000E+01 0.  1.
         11    1    6    6    0    0 -0.32565081473E+01 -0.19019205515E+02 -0.19284454530E+03  0.19380751708E+03  0.00000000000E+00 0. -1.
        -12    1    6    6    0    0 -0.81387240836E+01  0.24599601775E+02 -0.17138903586E+02  0.31066400714E+02  0.00000000000E+00 0.  1.
</event>
<event>
12    1  0.1050869E+000  0.1881248E+03  0.7818608E-02  0.1164098E+00
         21   -1    0    0  501  502  0.00000000000E+00  0.00000000000E+00  0.28757649490E+02  0.28757649490E+02  0.00000000000E+00 0.  1.
         21   -1    0    0  502  503 -0.00000000000E+00 -0.00000000000E+00 -0.13895907191E+04  0.13895907191E+04  0.00000000000E+00 0.  1.
         -6    2    1    2    0  503 -0.19317397417E+02 -0.23379135742E+01 -0.34649809151E+03  0.38671549652E+03  0.17061453673E+03 0.  0.
        -24    2    3    3    0    0 -0.60618788353E+02 -0.37555770253E+02 -0.15026778728E+03  0.18306254510E+03  0.76461847642E+02 0.  0.
          6    2    1    2  501    0  0.19317397417E+02  0.23379135742E+01 -0.10143349781E+04  0.10316328721E+04  0.18711575899E+03 0.  0.
         24    2    5    5    0    0  0.64351014194E+02 -0.19435027479E+02 -0.90601430848E+03  0.91222790958E+03  0.82335038229E+02 0.  0.
          5    1    5    5  501    0 -0.45033616776E+02  0.21772941053E+02 -0.10832066964E+03  0.11940496252E+03  0.47000000000E+01 0. -1.
        -13    1    6    6    0    0  0.24259669610E+02 -0.88623085117E+00 -0.74116755211E+03  0.74156500543E+03  0.00000000000E+00 0.  1.
         14    1    6    6    0    0  0.40091344584E+02 -0.18548796628E+02 -0.16484675637E+03  0.17066290415E+03  0.00000000000E+00 0. -1.
         -5    1    3    3    0  503  0.41301390936E+02  0.35217856679E+02 -0.19623030423E+03  0.20365295142E+03  0.47000000000E+01 0.  1.
         13    1    4    4    0    0  0.15765629424E+02 -0.44057930003E+01 -0.80038493373E+01  0.18221626912E+02  0.00000000000E+00 0. -1.
        -14    1    4    4    0    0 -0.76384417777E+02 -0.33149977253E+02 -0.14226393794E+03  0.16484091819E+03  0.00000000000E+00 0.  1.
</event>
<event>
12    1  0.1290258E+000  0.1974061E+03  0.7818608E-02  0.1153884E+00
         21   -1    0    0  501  502  0.00000000000E+00  0.00000000000E+00  0.27293131012E+03  0.27293131012E+03  0.00000000000E+00 0. -1.
         21   -1    0    0  502  503 -0.00000000000E+00 -0.00000000000E+00 -0.30561446273E+03  0.30561446273E+03  0.00000000000E+00 0. -1.
         -6    2    1    2    0  503  0.20543554710E+02  0.76411527546E+02  0.19900019200E+03  0.27416718515E+03  0.17118939749E+03 0.  0.
        -24    2    3    3    0    0  0.45820913115E+02  0.40509017652E+02  0.20593633292E+03  0.22946668051E+03  0.80651395878E+02 0.  0.
          6    2    1    2  501    0 -0.20543554710E+02 -0.76411527546E+02 -0.23168334462E+03  0.30437858770E+03  0.18085461923E+03 0.  0.
         24    2    5    5    0    0 -0.28274402982E+02 -0.12017706543E+03 -0.15712083053E+03  0.21744846158E+03  0.85760766882E+02 0.  0.
          5    1    5    5  501    0  0.77308482726E+01  0.43765537883E+02 -0.74562514085E+02  0.86930126124E+02  0.47000000000E+01 0. -1.
        -11    1    6    6    0    0  0.19036855462E+02 -0.86489654717E+01 -0.25588506144E+01  0.21065473792E+02  0.00000000000E+00 0.  1.
         12    1    6    6    0    0 -0.47311258444E+02 -0.11152809996E+03 -0.15456197992E+03  0.19638298779E+03  0.00000000000E+00 0. -1.
         -5    1    3    3    0  503 -0.25277358405E+02  0.35902509894E+02 -0.69361409158E+01  0.44700504644E+02  0.47000000000E+01 0.  1.
         11    1    4    4    0    0  0.54076682893E+02  0.48881561719E+02  0.10485538194E+03  0.12770413396E+03  0.00000000000E+00 0. -1.
        -12    1    4    4    0    0 -0.82557697781E+01 -0.83725440673E+01  0.10108095098E+03  0.10176254655E+03  0.00000000000E+00 0.  1.
</event>
<event>
12    1  0.1050869E+000  0.1915100E+03  0.7818608E-02  0.1157275E+00
         21   -1    0    0  501  502  0.00000000000E+00  0.00000000000E+00  0.16781819129E+02  0.16781819129E+02  0.00000000000E+00 0.  1.
         21   -1    0    0  502  503 -0.00000000000E+00 -0.00000000000E+00 -0.21965710190E+04  0.21965710190E+04  0.00000000000E+00 0.  1.
         -6    2    1    2    0  503  0.81098281692E+02 -0.11083707366E+02 -0.98292011464E+03  0.10012589123E+04  0.17230112542E+03 0.  0.
        -24    2    3    3    0    0  0.10640969593E+03 -0.48683066251E+02 -0.65261262051E+03  0.66782299618E+03  0.79945340349E+02 0.  0.
          6    2    1    2  501    0 -0.81098281692E+02  0.11083707366E+02 -0.11968690852E+04  0.12120939258E+04  0.17313664547E+03 0.  0.
         24    2    5    5    0    0  0.14991912993E+01 -0.33812334139E+02 -0.39541558560E+03  0.40513184546E+03  0.81442036805E+02 0.  0.
          5    1    5    5  501    0 -0.82597472992E+02  0.44896041505E+02 -0.80145349960E+03  0.80696208034E+03  0.47000000000E+01 0. -1.
        -13    1    6    6    0    0  0.19569645545E+02 -0.36532980711E+02 -0.89051265815E+02  0.98222999596E+02  0.00000000000E+00 0.  1.
         14    1    6    6    0    0 -0.18070454245E+02  0.27206465730E+01 -0.30636431978E+03  0.30690884586E+03  0.00000000000E+00 0. -1.
         -5    1    3    3    0  503 -0.25311414240E+02  0.37599358885E+02 -0.33030749413E+03  0.33343591612E+03  0.47000000000E+01 0.  1.
         11    1    4    4    0    0  0.18808650602E+02  0.21870330202E+02 -0.11419944691E+03  0.11778620613E+03  0.00000000000E+00 0. -1.
        -12    1    4    4    0    0  0.87601045331E+02 -0.70553396454E+02 -0.53841317360E+03  0.55003679004E+03  0.00000000000E+00 0.  1.
</event>
<event>
12    1  0.1050869E+000  0.1897233E+03  0.7818608E-02  0.1158819E+00
         21   -1    0    0  503  502  0.00000000000E+00  0.00000000000E+00  0.60438861335E+02  0.60438861335E+02  0.00000000000E+00 0.  1.
         21   -1    0    0  501  503 -0.00000000000E+00 -0.00000000000E+00 -0.61101865716E+03  0.61101865716E+03  0.00000000000E+00 0. -1.
          6    2    1    2  501    0  0.68409444832E+02  0.40987338139E+02 -0.21903191364E+03  0.28946418106E+03  0.17162377136E+03 0.  0.
         24    2    3    3    0    0  0.24222702712E+02 -0.43177330356E+02 -0.11320637473E+03  0.14713605915E+03  0.79889395039E+02 0.  0.
         -6    2    1    2    0  502 -0.68409444832E+02 -0.40987338139E+02 -0.33154788219E+03  0.38199333743E+03  0.17214847554E+03 0.  0.
        -24    2    5    5    0    0 -0.28516120740E+02 -0.87022892184E+02 -0.16799780733E+03  0.20740391470E+03  0.80043536027E+02 0.  0.
          5    1    3    3  501    0  0.44186742120E+02  0.84164668495E+02 -0.10582553891E+03  0.14232812191E+03  0.47000000000E+01 0. -1.
        -11    1    4    4    0    0 -0.25079010494E+02  0.44185843673E+00 -0.16047626767E+02  0.29777144442E+02  0.00000000000E+00 0.  1.
         12    1    4    4    0    0  0.49301713206E+02 -0.43619188792E+02 -0.97158747963E+02  0.11735891471E+03  0.00000000000E+00 0. -1.
         -5    1    5    5    0  502 -0.39893324093E+02  0.46035554045E+02 -0.16355007486E+03  0.17458942273E+03  0.47000000000E+01 0.  1.
         13    1    6    6    0    0 -0.21429185645E+02 -0.50002546449E+02 -0.15983273152E+03  0.16883710111E+03  0.00000000000E+00 0. -1.
        -14    1    6    6    0    0 -0.70869350943E+01 -0.37020345735E+02 -0.81650758170E+01  0.38566813590E+02  0.00000000000E+00 0.  1.
</event>
<event>
12    1  0.1050869E+000  0.2133895E+03  0.7818608E-02  0.1138910E+00
         21   -1    0    0  503  502  0.00000000000E+00  0.00000000000E+00  0.50047106961E+02  0.50047106961E+02  0.00000000000E+00 0.  1.
         21   -1    0    0  501  503 -0.00000000000E+00 -0.00000000000E+00 -0.91828250090E+03  0.91828250090E+03  0.00000000000E+00 0.  1.
          6    2    1    2  501    0 -0.11063140454E+03 -0.60387024189E+02 -0.38769398463E+03  0.44254005285E+03  0.17218935012E+03 0.  0.
         24    2    3    3    0    0 -0.23532255271E+02 -0.74710600029E+02 -0.13854412430E+03  0.17817445462E+03  0.80101317741E+02 0.  0.
         -6    2    1    2    0  502  0.11063140454E+03  0.60387024189E+02 -0.48054140931E+03  0.52578955501E+03  0.17218800695E+03 0.  0.
        -24    2    5    5    0    0  0.65092157326E+02 -0.23979017822E+02 -0.15947199872E+03  0.19067896357E+03  0.78199530243E+02 0.  0.
          5    1    3    3  501    0 -0.87099149272E+02  0.14323575840E+02 -0.24914986033E+03  0.26436559823E+03  0.47000000000E+01 0. -1.
        -11    1    4    4    0    0  0.15202849195E+02  0.27405428467E+01 -0.79741940992E+00  0.15468454236E+02  0.00000000000E+00 0.  1.
         12    1    4    4    0    0 -0.38735104466E+02 -0.77451142876E+02 -0.13774670489E+03  0.16270600038E+03  0.00000000000E+00 0. -1.
         -5    1    5    5    0  502  0.45539247218E+02  0.84366042011E+02 -0.32106941059E+03  0.33511059144E+03  0.47000000000E+01 0.  1.
         13    1    6    6    0    0 -0.14013145661E+02 -0.76234381678E+01 -0.56261703507E+01  0.16915639321E+02  0.00000000000E+00 0. -1.
        -14    1    6    6    0    0  0.79105302987E+02 -0.16355579654E+02 -0.15384582837E+03  0.17376332425E+03  0.00000000000E+00 0.  1.
</event>
<event>
12    1  0.1510966E+000  0.1839283E+03  0.7818608E-02  0.1164290E+00
         21   -1    0    0  503  502  0.00000000000E+00  0.00000000000E+00  0.27561012102E+03  0.27561012102E+03  0.00000000000E+00 0.  1.
         21   -1    0    0  501  503 -0.00000000000E+00 -0.00000000000E+00 -0.33498528333E+03  0.33498528333E+03  0.00000000000E+00 0.  1.
          6    2    1    2  501    0  0.15207487831E+00  0.61734572882E+02  0.21373195482E+03  0.28132786006E+03  0.17219998756E+03 0.  0.
         24    2    3    3    0    0 -0.37144166260E+02  0.40610831242E+02  0.43901808184E+02  0.10610916593E+03  0.79390538680E+02 0.  0.
         -6    2    1    2    0  502 -0.15207487831E+00 -0.61734572882E+02 -0.27310711713E+03  0.32926754429E+03  0.17325829758E+03 0.  0.
        -24    2    5    5    0    0  0.27247683715E+02 -0.85133045730E+02 -0.26711712707E+03  0.29244085175E+03  0.78613106121E+02 0.  0.
          5    1    3    3  501    0  0.37296241138E+02  0.21123741641E+02  0.16983014664E+03  0.17521869412E+03  0.47000000000E+01 0. -1.
        -11    1    4    4    0    0 -0.17301707890E+01 -0.22706892886E+02  0.18167367853E+02  0.29131593335E+02  0.00000000000E+00 0.  1.
         12    1    4    4    0    0 -0.35413995471E+02  0.63317724128E+02  0.25734440331E+02  0.76977572599E+02  0.00000000000E+00 0. -1.
         -5    1    5    5    0  502 -0.27399758594E+02  0.23398472848E+02 -0.59899900615E+01  0.36826692541E+02  0.47000000000E+01 0.  1.
         13    1    6    6    0    0 -0.15805416022E+02 -0.72407678127E+02 -0.16308768112E+03  0.17913758612E+03  0.00000000000E+00 0. -1.
        -14    1    6    6    0    0  0.43053099737E+02 -0.12725367603E+02 -0.10402944595E+03  0.11330326563E+03  0.00000000000E+00 0.  1.
</event>
<event>
12    1  0.1050869E+000  0.2153184E+03  0.7818608E-02  0.1137637E+00
         21   -1    0    0  503  502  0.00000000000E+00  0.00000000000E+00  0.17016497371E+03  0.17016497371E+03  0.00000000000E+00 0.  1.
         21   -1    0    0  501  503 -0.00000000000E+00 -0.00000000000E+00 -0.30528745053E+03  0.30528745053E+03  0.00000000000E+00 0.  1.
          6    2    1    2  501    0  0.12570486865E+03 -0.25368228189E+02 -0.14702550926E+03  0.25980530534E+03  0.17157224515E+03 0.  0.
         24    2    3    3    0    0  0.10403231007E+03 -0.33357071342E+02 -0.24999976031E+02  0.13552400276E+03  0.76199348921E+02 0.  0.
         -6    2    1    2    0  502 -0.12570486865E+03  0.25368228189E+02  0.11903032450E+02  0.21564711890E+03  0.17296455332E+03 0.  0.
        -24    2    5    5    0    0 -0.72143519953E+02  0.34282895452E+02 -0.53908748495E+02  0.13019789492E+03  0.87551894821E+02 0.  0.
          5    1    3    3  501    0  0.21672558581E+02  0.79888431524E+01 -0.12202553323E+03  0.12428130258E+03  0.47000000000E+01 0. -1.
        -11    1    4    4    0    0  0.53721630225E+02 -0.53153633133E+02  0.89188633438E+00  0.75578553376E+02  0.00000000000E+00 0.  1.
         12    1    4    4    0    0  0.50310679844E+02  0.19796561791E+02 -0.25891862366E+02  0.59945449384E+02  0.00000000000E+00 0. -1.
         -5    1    5    5    0  502 -0.53561348696E+02 -0.89146672629E+01  0.65811780945E+02  0.85449223974E+02  0.47000000000E+01 0.  1.
         11    1    6    6    0    0 -0.52227400114E+02  0.98864410137E+01  0.14321145847E+02  0.55050324767E+02  0.00000000000E+00 0. -1.
        -12    1    6    6    0    0 -0.19916119839E+02  0.24396454438E+02 -0.68229894343E+02  0.75147570158E+02  0.00000000000E+00 0.  1.
</event>
<event>
12    1  0.1050869E+000  0.1871017E+03  0.7818608E-02  0.1161161E+00
         21   -1    0    0  503  502  0.00000000000E+00  0.00000000000E+00  0.25980168311E+03  0.25980168311E+03  0.00000000000E+00 0. -1.
         21   -1    0    0  501  503 -0.00000000000E+00 -0.00000000000E+00 -0.26081331921E+03  0.26081331921E+03  0.00000000000E+00 0. -1.
          6    2    1    2  501    0 -0.50919942272E+02  0.52501051263E+02  0.18060571488E+03  0.25986243994E+03  0.17193272678E+03 0.  0.
         24    2    3    3    0    0 -0.10852101320E+02  0.93331410090E+02  0.78704386292E+02  0.14290723121E+03  0.73481807940E+02 0.  0.
         -6    2    1    2    0  502  0.50919942272E+02 -0.52501051263E+02 -0.18161735098E+03  0.26075256238E+03  0.17221450492E+03 0.  0.
        -24    2    5    5    0    0 -0.10383441705E+02  0.39317539637E+01 -0.15207969104E+03  0.17222386789E+03  0.80059688325E+02 0.  0.
          5    1    3    3  501    0 -0.40067840952E+02 -0.40830358827E+02  0.10190132859E+03  0.11695520873E+03  0.47000000000E+01 0. -1.
        -13    1    4    4    0    0 -0.52874631641E+01  0.83585406293E+02  0.92724068457E+02  0.12494891069E+03  0.00000000000E+00 0.  1.
         14    1    4    4    0    0 -0.55646381557E+01  0.97460037968E+01 -0.14019682165E+02  0.17958320518E+02  0.00000000000E+00 0. -1.
         -5    1    5    5    0  502  0.61303383977E+02 -0.56432805226E+02 -0.29537659945E+02  0.88528694488E+02  0.47000000000E+01 0.  1.
         13    1    6    6    0    0 -0.28085115530E+02  0.59903740880E+01 -0.12179049297E+02  0.31192748161E+02  0.00000000000E+00 0. -1.
        -14    1    6    6    0    0  0.17701673826E+02 -0.20586201243E+01 -0.13990064174E+03  0.14103111973E+03  0.00000000000E+00 0.  1.
</event>
<event>
12    1  0.1050869E+000  0.2038024E+03  0.7818608E-02  0.1146582E+00
         21   -1    0    0  501  502  0.00000000000E+00  0.00000000000E+00  0.27052136503E+03  0.27052136503E+03  0.00000000000E+00 0.  1.
         21   -1    0    0  502  503 -0.00000000000E+00 -0.00000000000E+00 -0.21076559614E+03  0.21076559614E+03  0.00000000000E+00 0.  1.
         -6    2    1    2    0  503  0.10389659307E+03 -0.35001966572E+02  0.15532272703E+03  0.25624314488E+03  0.17180151354E+03 0.  0.
        -24    2    3    3    0    0  0.12044846712E+03 -0.67761910722E+02  0.14956827598E+03  0.21879475130E+03  0.80006026278E+02 0.  0.
          6    2    1    2  501    0 -0.10389659307E+03  0.35001966572E+02 -0.95566958139E+02  0.22504381628E+03  0.17173245484E+03 0.  0.
         24    2    5    5    0    0 -0.61957140469E+02  0.67985531592E+02 -0.74414521612E+01  0.12191754393E+03  0.79673035253E+02 0.  0.
          5    1    5    5  501    0 -0.41939452601E+02 -0.32983565021E+02 -0.88125505978E+02  0.10312627235E+03  0.47000000000E+01 0. -1.
        -13    1    6    6    0    0  0.17856404615E+02  0.25773654864E+02 -0.33955513202E+01  0.31538266275E+02  0.00000000000E+00 0.  1.
         14    1    6    6    0    0 -0.79813545084E+02  0.42211876728E+02 -0.40459008409E+01  0.90379277655E+02  0.00000000000E+00 0. -1.
         -5    1    3    3    0  503 -0.16551874049E+02  0.32759944151E+02  0.57544510510E+01  0.37448393586E+02  0.47000000000E+01 0.  1.
         11    1    4    4    0    0  0.94592688407E+02 -0.18676172174E+02  0.12564630628E+03  0.15837793530E+03  0.00000000000E+00 0. -1.
        -12    1    4    4    0    0  0.25855778712E+02 -0.49085738548E+02  0.23921969698E+02  0.60416816002E+02  0.00000000000E+00 0.  1.
</event>
<event>
12    1  0.1165791E+000  0.3567074E+03  0.7818608E-02  0.1061029E+00
         21   -1    0    0  503  502  0.00000000000E+00  0.00000000000E+00  0.28440089531E+03  0.28440089531E+03  0.00000000000E+00 0.  1.
         21   -1    0    0  501  503 -0.00000000000E+00 -0.00000000000E+00 -0.56532906817E+03  0.56532906817E+03  0.00000000000E+00 0. -1.
          6    2    1    2  501    0  0.57684431084E+02 -0.29433722010E+03  0.62941869570E+02  0.36221791574E+03  0.19307575408E+03 0.  0.
         24    2    3    3    0    0  0.54060745769E+02 -0.62357344283E+02 -0.16277683732E+02  0.11701265172E+03  0.81338767236E+02 0.  0.
         -6    2    1    2    0  502 -0.57684431084E+02  0.29433722010E+03 -0.34387004244E+03  0.48751204773E+03  0.17163769362E+03 0.  0.
        -24    2    5    5    0    0  0.11086229615E+02  0.12351963983E+03 -0.87221315953E+02  0.17160271215E+03  0.80373670746E+02 0.  0.
          5    1    3    3  501    0  0.36236853150E+01 -0.23197987582E+03  0.79219553302E+02  0.24520526403E+03  0.47000000000E+01 0. -1.
        -13    1    4    4    0    0  0.90804724057E+01 -0.37954150550E+01  0.28843053194E+02  0.30475922826E+02  0.00000000000E+00 0.  1.
         14    1    4    4    0    0  0.44980273363E+02 -0.58561929228E+02 -0.45120736926E+02  0.86536728892E+02  0.00000000000E+00 0. -1.
         -5    1    5    5    0  502 -0.68770660699E+02  0.17081758027E+03 -0.25664872648E+03  0.31590933558E+03  0.47000000000E+01 0.  1.
         13    1    6    6    0    0  0.10697958160E+02  0.10229068724E+03 -0.10268629495E+03  0.14533515120E+03  0.00000000000E+00 0. -1.
        -14    1    6    6    0    0  0.38827145502E+00  0.21228952588E+02  0.15464978994E+02  0.26267560945E+02  0.00000000000E+00 0.  1.
</event>
<event>
12    1  0.1050869E+000  0.2071900E+03  0.7818608E-02  0.1143850E+00
         21   -1    0    0  501  502  0.00000000000E+00  0.00000000000E+00  0.35378072562E+03  0.35378072562E+03  0.00000000000E+00 0.  1.
         21   -1    0    0  502  503 -0.00000000000E+00 -0.00000000000E+00 -0.15855532811E+03  0.15855532811E+03  0.00000000000E+00 0.  1.
         -6    2    1    2    0  503 -0.75608338647E+02  0.85642425195E+02 -0.26716872374E+02  0.20871444647E+03  0.17261715741E+03 0.  0.
        -24    2    3    3    0    0 -0.47411837236E+02  0.75134514588E+02 -0.83837899211E+02  0.14398145192E+03  0.76215402379E+02 0.  0.
          6    2    1    2  501    0  0.75608338647E+02 -0.85642425195E+02  0.22194226988E+03  0.30362160725E+03  0.17284809332E+03 0.  0.
         24    2    5    5    0    0 -0.22437578484E+02 -0.96648123263E+01  0.93698821729E+02  0.12514451764E+03  0.79276904427E+02 0.  0.
          5    1    5    5  501    0  0.98045917131E+02 -0.75977612869E+02  0.12824344815E+03  0.17847708962E+03  0.47000000000E+01 0. -1.
        -13    1    6    6    0    0 -0.20306373164E+02  0.30240261928E+02  0.20630253121E+02  0.41862030247E+02  0.00000000000E+00 0.  1.
         14    1    6    6    0    0 -0.21312053192E+01 -0.39905074254E+02  0.73068568608E+02  0.83282487389E+02  0.00000000000E+00 0. -1.
         -5    1    3    3    0  503 -0.28196501412E+02  0.10507910607E+02  0.57121026838E+02  0.64732994556E+02  0.47000000000E+01 0.  1.
         13    1    4    4    0    0 -0.65305750103E+02  0.59772653619E+02 -0.81413488242E+02  0.12027371776E+03  0.00000000000E+00 0. -1.
        -14    1    4    4    0    0  0.17893912867E+02  0.15361860970E+02 -0.24244109693E+01  0.23707734154E+02  0.00000000000E+00 0.  1.
</event>
<event>
12    1  0.1050869E+000  0.1947911E+03  0.7818608E-02  0.1154431E+00
         21   -1    0    0  501  502  0.00000000000E+00  0.00000000000E+00  0.79171276628E+02  0.79171276628E+02  0.00000000000E+00 0. -1.
         21   -1    0    0  502  503 -0.00000000000E+00 -0.00000000000E+00 -0.47677872439E+03  0.47677872439E+03  0.00000000000E+00 0. -1.
         -6    2    1    2    0  503  0.76757633406E+02  0.46979095778E+02 -0.19825234196E+03  0.27722783946E+03  0.17161734805E+03 0.  0.
        -24    2    3    3    0    0  0.76216755005E+02  0.31189783196E+01 -0.48866144340E+02  0.12146414506E+03  0.80913019364E+02 0.  0.
          6    2    1    2  501    0 -0.76757633406E+02 -0.46979095778E+02 -0.19935510580E+03  0.27872216156E+03  0.17275652060E+03 0.  0.
         24    2    5    5    0    0 -0.78767266926E+02 -0.47001430694E+02 -0.22324628738E+03  0.25429026268E+03  0.80070069536E+02 0.  0.
          5    1    5    5  501    0  0.20096335198E+01  0.22334915878E-01  0.23891181583E+02  0.24431898886E+02  0.47000000000E+01 0. -1.
        -13    1    6    6    0    0 -0.56854065660E+02 -0.22010478455E+02 -0.52855529372E+02  0.80687997428E+02  0.00000000000E+00 0.  1.
         14    1    6    6    0    0 -0.21913201266E+02 -0.24990952240E+02 -0.17039075801E+03  0.17360226525E+03  0.00000000000E+00 0. -1.
         -5    1    3    3    0  503  0.54087840148E+00  0.43860117459E+02 -0.14938619762E+03  0.15576369440E+03  0.47000000000E+01 0.  1.
         11    1    4    4    0    0 -0.21452870150E+01  0.28618553891E+02 -0.10439028524E+02  0.30538454442E+02  0.00000000000E+00 0. -1.
        -12    1    4    4    0    0  0.78362042020E+02 -0.25499575572E+02 -0.38427115816E+02  0.90925690615E+02  0.00000000000E+00 0.  1.
</event>
<event>
12    1  0.1050869E+000  0.3079101E+03  0.7818608E-02  0.1081820E+00
         21   -1    0    0  501  502  0.00000000000E+00  0.00000000000E+00  0.22219585515E+03  0.22219585515E+03  0.00000000000E+00 0. -1.
         21   -1    0    0  502  503 -0.00000000000E+00 -0.00000000000E+00 -0.91028821779E+03  0.91028821779E+03  0.00000000000E+00 0. -1.
         -6    2    1    2    0  503 -0.11083398361E+03  0.23078686167E+03  0.69930705137E+02  0.31575139618E+03  0.17106108039E+03 0.  0.
        -24    2    3    3    0    0 -0.53954871731E+02  0.88107744356E+02 -0.26320579806E+02  0.13442582231E+03  0.81874452567E+02 0.  0.
          6    2    1    2  501    0  0.11083398361E+03 -0.23078686167E+03 -0.75802306778E+03  0.81673267677E+03  0.16403215103E+03 0.  0.
         24    2    5    5    0    0  0.65806156406E+02 -0.16059497483E+03 -0.33395791584E+03  0.38452005630E+03  0.78781901370E+02 0.  0.
          5    1    5    5  501    0  0.45027827201E+02 -0.70191886841E+02 -0.42406515195E+03  0.43221262047E+03  0.47000000000E+01 0. -1.
        -11    1    6    6    0    0  0.10481456699E+01 -0.10554609928E+03 -0.18949920215E+03  0.21691248303E+03  0.00000000000E+00 0.  1.
         12    1    6    6    0    0  0.64758010736E+02 -0.55048875553E+02 -0.14445871369E+03  0.16760757326E+03  0.00000000000E+00 0. -1.
         -5    1    3    3    0  503 -0.56879111876E+02  0.14267911731E+03  0.96251284944E+02  0.18132557387E+03  0.47000000000E+01 0.  1.
         11    1    4    4    0    0  0.21254818369E+02  0.27269186181E+02 -0.17508461853E+01  0.34618510673E+02  0.00000000000E+00 0. -1.
        -12    1    4    4    0    0 -0.75209690100E+02  0.60838558175E+02 -0.24569733621E+02  0.99807311636E+02  0.00000000000E+00 0.  1.
</event>
<event>
12    1  0.1050869E+000  0.1937513E+03  0.7818608E-02  0.1156199E+00
         21   -1    0    0  501  502  0.00000000000E+00  0.00000000000E+00  0.22439292651E+03  0.22439292651E+03  0.00000000000E+00 0.  1.
         21   -1    0    0  502  503 -0.00000000000E+00 -0.00000000000E+00 -0.24940300475E+03  0.24940300475E+03  0.00000000000E+00 0.  1.
         -6    2    1    2    0  503 -0.76660018312E+01  0.77003675507E+02 -0.15192174393E+03  0.24621082951E+03  0.17762663838E+03 0.  0.
        -24    2    3    3    0    0 -0.45226518586E+02  0.67015284255E+02 -0.16834026578E+03  0.20375828849E+03  0.81501587351E+02 0.  0.
          6    2    1    2  501    0  0.76660018312E+01 -0.77003675507E+02  0.12691166569E+03  0.22758510176E+03  0.17233709417E+03 0.  0.
         24    2    5    5    0    0  0.20205892815E+02 -0.99942391648E+02  0.14561020658E+03  0.19510189077E+03  0.80409301509E+02 0.  0.
          5    1    5    5  501    0 -0.12539890984E+02  0.22938716141E+02 -0.18698540895E+02  0.32483210982E+02  0.47000000000E+01 0. -1.
        -11    1    6    6    0    0  0.33801142958E+02 -0.29164602815E+02  0.10077844591E+03  0.11022425541E+03  0.00000000000E+00 0.  1.
         12    1    6    6    0    0 -0.13595250143E+02 -0.70777788833E+02  0.44831760679E+02  0.84877635359E+02  0.00000000000E+00 0. -1.
         -5    1    3    3    0  503  0.37560516755E+02  0.99883912518E+01  0.16418521850E+02  0.42452541013E+02  0.47000000000E+01 0.  1.
         13    1    4    4    0    0  0.21934595208E+02  0.30457178386E+02 -0.44529757868E+02  0.58238007503E+02  0.00000000000E+00 0. -1.
        -14    1    4    4    0    0 -0.67161113794E+02  0.36558105869E+02 -0.12381050791E+03  0.14552028099E+03  0.00000000000E+00 0.  1.
</event>
<event>
12    1  0.1050869E+000  0.2256722E+03  0.7818608E-02  0.1129792E+00
         21   -1    0    0  501  502  0.00000000000E+00  0.00000000000E+00  0.10955834696E+04  0.10955834696E+04  0.00000000000E+00 0.  1.
         21   -1    0    0  502  503 -0.00000000000E+00 -0.00000000000E+00 -0.46966352223E+02  0.46966352223E+02  0.00000000000E+00 0.  1.
         -6    2    1    2    0  503  0.14247498023E+03 -0.33306711776E+02  0.58621100002E+03  0.62801376671E+03  0.17131695069E+03 0.  0.
        -24    2    3    3    0    0  0.11749542481E+03 -0.80943439714E+02  0.35262855323E+03  0.38827206093E+03  0.77789983084E+02 0.  0.
          6    2    1    2  501    0 -0.14247498023E+03  0.33306711776E+02  0.46240611738E+03  0.51453605514E+03  0.17181233252E+03 0.  0.
         24    2    5    5    0    0 -0.17153047553E+02  0.83392553247E+01  0.28170784591E+03  0.29317003245E+03  0.78902390687E+02 0.  0.
          5    1    5    5  501    0 -0.12532193267E+03  0.24967456451E+02  0.18069827147E+03  0.22136602269E+03  0.47000000000E+01 0. -1.
        -11    1    6    6    0    0 -0.12904994804E+02 -0.73420449258E+01  0.45393498155E+01  0.15525791810E+02  0.00000000000E+00 0.  1.
         12    1    6    6    0    0 -0.42480527491E+01  0.15681300251E+02  0.27716849610E+03  0.27764424064E+03  0.00000000000E+00 0. -1.
         -5    1    3    3    0  503  0.24979555415E+02  0.47636727938E+02  0.23358244679E+03  0.23974170577E+03  0.47000000000E+01 0.  1.
         13    1    4    4    0    0  0.99066336433E+02 -0.23931312755E+02  0.20463409798E+03  0.22860875049E+03  0.00000000000E+00 0. -1.
        -14    1    4    4    0    0  0.18429088378E+02 -0.57012126958E+02  0.14799445524E+03  0.15966331044E+03  0.00000000000E+00 0.  1.
</event>
<event>
12    1  0.1050869E+000  0.2344532E+03  0.7818608E-02  0.1123819E+00
         21   -1    0    0  501  502  0.00000000000E+00  0.00000000000E+00  0.26877174067E+03  0.26877174067E+03  0.00000000000E+00 0.  1.
         21   -1    0    0  502  503 -0.00000000000E+00 -0.00000000000E+00 -0.21646180081E+03  0.21646180081E+03  0.00000000000E+00 0.  1.
         -6    2    1    2    0  503 -0.11429177053E+03 -0.10835688466E+03  0.86290719975E+02  0.24833066178E+03  0.17151736345E+03 0.  0.
        -24    2    3    3    0    0 -0.81530104330E+02 -0.14326704465E+03  0.76846388408E+02  0.19930687733E+03  0.81518463815E+02 0.  0.
          6    2    1    2  501    0  0.11429177053E+03  0.10835688466E+03 -0.33980780113E+02  0.23690287970E+03  0.17367918047E+03 0.  0.
         24    2    5    5    0    0  0.28351128338E+02  0.80781470078E+02 -0.72767286843E+02  0.13855309284E+03  0.81070642751E+02 0.  0.
          5    1    5    5  501    0  0.85940642197E+02  0.27575414578E+02  0.38786506730E+02  0.98349786857E+02  0.47000000000E+01 0. -1.
        -11    1    6    6    0    0  0.15703738760E+02  0.78935432572E+02 -0.18207513134E+02  0.82516201203E+02  0.00000000000E+00 0.  1.
         12    1    6    6    0    0  0.12647389578E+02  0.18460375058E+01 -0.54559773709E+02  0.56036891641E+02  0.00000000000E+00 0. -1.
         -5    1    3    3    0  503 -0.32761666205E+02  0.34910159999E+02  0.94443315670E+01  0.49023784457E+02  0.47000000000E+01 0.  1.
         13    1    4    4    0    0 -0.41272027945E+01 -0.52936510714E+02 -0.73002359818E+01  0.53596654885E+02  0.00000000000E+00 0. -1.
        -14    1    4    4    0    0 -0.77402901536E+02 -0.90330533941E+02  0.84146624390E+02  0.14571022244E+03  0.00000000000E+00 0.  1.
</event>
<event>
12    1  0.1050869E+000  0.3607372E+03  0.7818608E-02  0.1058333E+00
         21   -1    0    0  503  502  0.00000000000E+00  0.00000000000E+00  0.27245391784E+03  0.27245391784E+03  0.00000000000E+00 0. -1.
         21   -1    0    0  501  503 -0.00000000000E+00 -0.00000000000E+00 -0.47877284786E+03  0.47877284786E+03  0.00000000000E+00 0. -1.
          6    2    1    2  501    0  0.42737538200E+02  0.31393193808E+03 -0.12556134403E+03  0.38196464564E+03  0.17248646463E+03 0.  0.
         24    2    3    3    0    0  0.55015480824E+02  0.15633111246E+03 -0.60832136946E+01  0.18375798142E+03  0.79144616954E+02 0.  0.
         -6    2    1    2    0  502 -0.42737538200E+02 -0.31393193808E+03 -0.80757585997E+02  0.36926212006E+03  0.17161866652E+03 0.  0.
        -24    2    5    5    0    0  0.38593505558E+02 -0.11338655576E+03 -0.28345090044E+02  0.14654627244E+03  0.79538645565E+02 0.  0.
          5    1    3    3  501    0 -0.12277942625E+02  0.15760082563E+03 -0.11947813033E+03  0.19820666422E+03  0.47000000000E+01 0. -1.
        -11    1    4    4    0    0  0.29629901280E+02  0.13889158017E+03  0.19974644112E+02  0.14341474297E+03  0.00000000000E+00 0.  1.
         12    1    4    4    0    0  0.25385579544E+02  0.17439532284E+02 -0.26057857807E+02  0.40343238449E+02  0.00000000000E+00 0. -1.
         -5    1    5    5    0  502 -0.81331043758E+02 -0.20054538233E+03 -0.52412495954E+02  0.22271584763E+03  0.47000000000E+01 0.  1.
         13    1    6    6    0    0  0.37440456557E+02 -0.11925878678E+03 -0.79042664908E+01  0.12524744884E+03  0.00000000000E+00 0. -1.
        -14    1    6    6    0    0  0.11530490014E+01  0.58722310251E+01 -0.20440823553E+02  0.21298823600E+02  0.00000000000E+00 0.  1.
</event>
<event>
12    1  0.1050869E+000  0.1848653E+03  0.7818608E-02  0.1164538E+00
         21   -1    0    0  503  502  0.00000000000E+00  0.00000000000E+00  0.31301448286E+02  0.31301448286E+02  0.00000000000E+00 0.  1.
         21   -1    0    0  501  503 -0.00000000000E+00 -0.00000000000E+00 -0.10639923683E+04  0.10639923683E+04  0.00000000000E+00 0.  1.
          6    2    1    2  501    0 -0.12042259103E+02 -0.62553641990E+02 -0.56473209447E+03  0.59422009020E+03  0.17354308669E+03 0.  0.
         24    2    3    3    0    0  0.44090585910E+02 -0.26158207035E+02 -0.18338592974E+03  0.20702180594E+03  0.81236674897E+02 0.  0.
         -6    2    1    2    0  502  0.12042259103E+02  0.62553641990E+02 -0.46795882555E+03  0.50107372639E+03  0.16742593211E+03 0.  0.
        -24    2    5    5    0    0 -0.26562146185E+02  0.93203402526E+02 -0.28192548898E+03  0.30856346630E+03  0.79605336143E+02 0.  0.
          5    1    3    3  501    0 -0.56132845013E+02 -0.36395434954E+02 -0.38134616473E+03  0.38719828426E+03  0.47000000000E+01 0. -1.
        -13    1    4    4    0    0  0.32652242490E+02 -0.38971511871E+02 -0.18290407304E+03  0.18983900446E+03  0.00000000000E+00 0.  1.
         14    1    4    4    0    0  0.11438343420E+02  0.12813304836E+02 -0.48185669461E+00  0.17182801485E+02  0.00000000000E+00 0. -1.
         -5    1    5    5    0  502  0.38604405288E+02 -0.30649760536E+02 -0.18603333657E+03  0.19251026010E+03  0.47000000000E+01 0.  1.
         11    1    6    6    0    0 -0.10763388824E+02  0.83307640171E+02 -0.27674873825E+03  0.28921597047E+03  0.00000000000E+00 0. -1.
        -12    1    6    6    0    0 -0.15798757361E+02  0.98957623549E+01 -0.51767507323E+01  0.19347495830E+02  0.00000000000E+00 0.  1.
</event>
<event>
12    1  0.1050869E+000  0.2153932E+03  0.7818608E-02  0.1138195E+00
         21   -1    0    0  501  502  0.00000000000E+00  0.00000000000E+00  0.36071053088E+03  0.36071053088E+03  0.00000000000E+00 0. -1.
         21   -1    0    0  502  503 -0.00000000000E+00 -0.00000000000E+00 -0.18036540903E+03  0.18036540903E+03  0.00000000000E+00 0. -1.
         -6    2    1    2    0  503  0.51434599866E+02  0.11203514465E+03 -0.57619897063E+02  0.22296696722E+03  0.17662622748E+03 0.  0.
        -24    2    3    3    0    0 -0.14732166559E+02  0.15990959355E+02 -0.65910489701E+02  0.10594837709E+03  0.80050724193E+02 0.  0.
          6    2    1    2  501    0 -0.51434599866E+02 -0.11203514465E+03  0.23796501891E+03  0.31810897270E+03  0.17137262496E+03 0.  0.
         24    2    5    5    0    0 -0.70468980358E+02 -0.19821301610E+02  0.17221849818E+03  0.20317248816E+03  0.79127034825E+02 0.  0.
          5    1    5    5  501    0  0.19034380493E+02 -0.92213843039E+02  0.65746520733E+02  0.11493648453E+03  0.47000000000E+01 0. -1.
        -13    1    6    6    0    0 -0.12765098996E+02 -0.98543500188E+01 -0.47142147986E+01  0.16801184120E+02  0.00000000000E+00 0.  1.
         14    1    6    6    0    0 -0.57703881363E+02 -0.99669515912E+01  0.17693271298E+03  0.18637130404E+03  0.00000000000E+00 0. -1.
         -5    1    3    3    0  503  0.66166766424E+02  0.96044185294E+02  0.82905926385E+01  0.11701859012E+03  0.47000000000E+01 0.  1.
         13    1    4    4    0    0 -0.36663799809E+02  0.36168335028E+02 -0.31262945722E+02  0.60247443517E+02  0.00000000000E+00 0. -1.
        -14    1    4    4    0    0  0.21931633250E+02 -0.20177375673E+02 -0.34647543979E+02  0.45700933577E+02  0.00000000000E+00 0.  1.
</event>
<event>
12    1  0.1050869E+000  0.2414912E+03  0.7818608E-02  0.1119064E+00
         21   -1    0    0  503  502  0.00000000000E+00  0.00000000000E+00  0.16199499784E+04  0.16199499784E+04  0.00000000000E+00 0. -1.
         21   -1    0    0  501  503 -0.00000000000E+00 -0.00000000000E+00 -0.48068610273E+02  0.48068610273E+02  0.00000000000E+00 0. -1.
          6    2    1    2  501    0 -0.13316186657E+03 -0.10394978394E+03  0.12097846454E+04  0.12336518427E+04  0.17256981369E+03 0.  0.
         24    2    3    3    0    0 -0.15505427778E+03 -0.10991011151E+03  0.11666988451E+04  0.11847306882E+04  0.79237281609E+02 0.  0.
         -6    2    1    2    0  502  0.13316186657E+03  0.10394978394E+03  0.36209672278E+03  0.43436674597E+03  0.17036077326E+03 0.  0.
        -24    2    5    5    0    0  0.10237849715E+03  0.44898971789E+02  0.33523045632E+03  0.36240494692E+03  0.80377934523E+02 0.  0.
          5    1    3    3  501    0  0.21892411207E+02  0.59603275689E+01  0.43085800316E+02  0.48921154546E+02  0.47000000000E+01 0. -1.
        -13    1    4    4    0    0 -0.16690880186E+02 -0.54265150214E+02  0.32593447641E+03  0.33084222059E+03  0.00000000000E+00 0.  1.
         14    1    4    4    0    0 -0.13836339759E+03 -0.55644961299E+02  0.84076436866E+03  0.85388846761E+03  0.00000000000E+00 0. -1.
         -5    1    5    5    0  502  0.30783369422E+02  0.59050812154E+02  0.26866266454E+02  0.71961799048E+02  0.47000000000E+01 0.  1.
         13    1    6    6    0    0  0.57673571808E+02 -0.99409224143E+01  0.21575309735E+03  0.22354968539E+03  0.00000000000E+00 0. -1.
        -14    1    6    6    0    0  0.44704925343E+02  0.54839894203E+02  0.11947735898E+03  0.13885526153E+03  0.00000000000E+00 0.  1.
</event>
<event>
12    1  0.1050869E+000  0.3496896E+03  0.7818608E-02  0.1062776E+00
         21   -1    0    0  503  502  0.00000000000E+00  0.00000000000E+00  0.13813079143E+03  0.13813079143E+03  0.00000000000E+00 0. -1.
         21   -1    0    0  501  503 -0.00000000000E+00 -0.00000000000E+00 -0.88950327289E+03  0.88950327289E+03  0.00000000000E+00 0. -1.
          6    2    1    2  501    0  0.12517060925E+03  0.27591164157E+03 -0.33678892113E+03  0.48526668161E+03  0.17395993652E+03 0.  0.
         24    2    3    3    0    0 -0.18774817080E+01  0.14236257011E+03 -0.17930086069E+03  0.24277719507E+03  0.80754823347E+02 0.  0.
         -6    2    1    2    0  502 -0.12517060925E+03 -0.27591164157E+03 -0.41458356032E+03  0.54236738271E+03  0.17460794358E+03 0.  0.
        -24    2    5    5    0    0 -0.64305893016E+02 -0.42678068179E+02 -0.11305666143E+03  0.15630654010E+03  0.75453697088E+02 0.  0.
          5    1    3    3  501    0  0.12704809096E+03  0.13354907146E+03 -0.15748806044E+03  0.24248948655E+03  0.47000000000E+01 0. -1.
        -13    1    4    4    0    0 -0.39450378830E+02  0.62037878121E+02 -0.65175307855E+02  0.98248926027E+02  0.00000000000E+00 0.  1.
         14    1    4    4    0    0  0.37572897122E+02  0.80324691991E+02 -0.11412555283E+03  0.14452826904E+03  0.00000000000E+00 0. -1.
         -5    1    5    5    0  502 -0.60864716238E+02 -0.23323357339E+03 -0.30152689889E+03  0.38606084261E+03  0.47000000000E+01 0.  1.
         11    1    6    6    0    0  0.14652824835E+02 -0.19121624969E+02 -0.15668109517E+02  0.28737283674E+02  0.00000000000E+00 0. -1.
        -12    1    6    6    0    0 -0.78958717851E+02 -0.23556443210E+02 -0.97388551915E+02  0.12756925643E+03  0.00000000000E+00 0.  1.
</event>
<event>
12    1  0.1050869E+000  0.2071165E+03  0.7818608E-02  0.1144203E+00
         21   -1    0    0  501  502  0.00000000000E+00  0.00000000000E+00  0.87080025630E+02  0.87080025630E+02  0.00000000000E+00 0.  1.
         21   -1    0    0  502  503 -0.00000000000E+00 -0.00000000000E+00 -0.54750973188E+03  0.54750973188E+03  0.00000000000E+00 0.  1.
         -6    2    1    2    0  503  0.32978891731E+02  0.10791071926E+03 -0.33501010755E+03  0.39386420413E+03  0.17368047818E+03 0.  0.
        -24    2    3    3    0    0 -0.94935994319E+01  0.13247681467E+03 -0.28115730213E+03  0.32085995630E+03  0.79129312896E+02 0.  0.
          6    2    1    2  501    0 -0.32978891731E+02 -0.10791071926E+03 -0.12541959870E+03  0.24072555338E+03  0.17171600299E+03 0.  0.
         24    2    5    5    0    0  0.45184996028E+02 -0.65694762334E+02 -0.93567407671E+02  0.14623517058E+03  0.79198356495E+02 0.  0.
          5    1    5    5  501    0 -0.78163887759E+02 -0.42215956928E+02 -0.31852191025E+02  0.94490382802E+02  0.47000000000E+01 0. -1.
        -13    1    6    6    0    0  0.48432310152E+02 -0.24668846684E+02 -0.13183724465E+02  0.55928984025E+02  0.00000000000E+00 0.  1.
         14    1    6    6    0    0 -0.32473141232E+01 -0.41025915650E+02 -0.80383683206E+02  0.90306186553E+02  0.00000000000E+00 0. -1.
         -5    1    3    3    0  503  0.42472491163E+02 -0.24566095411E+02 -0.53852805417E+02  0.73004247826E+02  0.47000000000E+01 0.  1.
         13    1    4    4    0    0 -0.31005920691E+02  0.22784088227E+02 -0.42552711713E+02  0.57369112494E+02  0.00000000000E+00 0. -1.
        -14    1    4    4    0    0  0.21512321259E+02  0.10969272645E+03 -0.23860459042E+03  0.26349084381E+03  0.00000000000E+00 0.  1.
</event>
<event>
12    1  0.1050869E+000  0.1914788E+03  0.7818608E-02  0.1157164E+00
         21   -1    0    0  501  502  0.00000000000E+00  0.00000000000E+00  0.24668369570E+02  0.24668369570E+02  0.00000000000E+00 0. -1.
         21   -1    0    0  502  503 -0.00000000000E+00 -0.00000000000E+00 -0.15805222452E+04  0.15805222452E+04  0.00000000000E+00 0. -1.
         -6    2    1    2    0  503 -0.67835114202E+02 -0.50815157680E+02 -0.97472725031E+03  0.99333092310E+03  0.17154978086E+03 0.  0.
        -24    2    3    3    0    0 -0.61080453227E+01 -0.44798592356E+02 -0.83812742349E+03  0.84323750959E+03  0.80917844009E+02 0.  0.
          6    2    1    2  501    0  0.67835114202E+02  0.50815157680E+02 -0.58112662533E+03  0.61185969168E+03  0.17169841197E+03 0.  0.
         24    2    5    5    0    0  0.53434260136E+02 -0.27989332691E+02 -0.21775162697E+03  0.23972932241E+03  0.80098402456E+02 0.  0.
          5    1    5    5  501    0  0.14400854066E+02  0.78804490371E+02 -0.36337499836E+03  0.37213036927E+03  0.47000000000E+01 0. -1.
        -11    1    6    6    0    0  0.14384222857E+02  0.84396321692E+01 -0.16077491452E+03  0.16163757731E+03  0.00000000000E+00 0.  1.
         12    1    6    6    0    0  0.39050037279E+02 -0.36428964861E+02 -0.56976712448E+02  0.78091745106E+02  0.00000000000E+00 0. -1.
         -5    1    3    3    0  503 -0.61727068879E+02 -0.60165653240E+01 -0.13659982682E+03  0.15009341351E+03  0.47000000000E+01 0.  1.
         13    1    4    4    0    0  0.28410674522E+02 -0.32827932410E+02 -0.23313653605E+03  0.23714443703E+03  0.00000000000E+00 0. -1.
        -14    1    4    4    0    0 -0.34518719845E+02 -0.11970659945E+02 -0.60499088745E+03  0.60609307256E+03  0.00000000000E+00 0.  1.
</event>
<event>
12    1  0.1050869E+000  0.1752287E+03  0.7818608E-02  0.1172823E+00
         21   -1    0    0  503  502  0.00000000000E+00  0.00000000000E+00  0.43710380679E+03  0.43710380679E+03  0.00000000000E+00 0.  1.
         21   -1    0    0  501  503 -0.00000000000E+00 -0.00000000000E+00 -0.76120758621E+02  0.76120758621E+02  0.00000000000E+00 0.  1.
          6    2    1    2  501    0  0.25169978977E+02  0.10693403212E+02  0.10678332033E+03  0.20520181798E+03  0.17308157582E+03 0.  0.
         24    2    3    3    0    0 -0.28832216132E+02  0.16239931699E+02  0.12048894490E+03  0.14901520748E+03  0.81196761930E+02 0.  0.
         -6    2    1    2    0  502 -0.25169978977E+02 -0.10693403212E+02  0.25419972783E+03  0.30802274743E+03  0.17179241715E+03 0.  0.
        -24    2    5    5    0    0 -0.29408559991E+01 -0.69500746874E+02  0.19403068367E+03  0.22087435988E+03  0.79363557103E+02 0.  0.
          5    1    3    3  501    0  0.54002195109E+02 -0.55465284876E+01 -0.13705624568E+02  0.56186610501E+02  0.47000000000E+01 0. -1.
        -13    1    4    4    0    0 -0.27666393993E+02 -0.23846515102E+02  0.21913761835E+02  0.42594584126E+02  0.00000000000E+00 0.  1.
         14    1    4    4    0    0 -0.11658221389E+01  0.40086446801E+02  0.98575183065E+02  0.10642062335E+03  0.00000000000E+00 0. -1.
         -5    1    5    5    0  502 -0.22229122978E+02  0.58807343662E+02  0.60169044159E+02  0.87148387547E+02  0.47000000000E+01 0.  1.
         11    1    6    6    0    0 -0.60802013645E+01 -0.13271152388E+01  0.12009577964E+03  0.12025691818E+03  0.00000000000E+00 0. -1.
        -12    1    6    6    0    0  0.31393453654E+01 -0.68173631635E+02  0.73934904037E+02  0.10061744170E+03  0.00000000000E+00 0.  1.
</event>
<event>
12    1  0.1050869E+000  0.1741306E+03  0.7818608E-02  0.1173977E+00
         21   -1    0    0  501  502  0.00000000000E+00  0.00000000000E+00  0.85019678961E+02  0.85019678961E+02  0.00000000000E+00 0.  1.
         21   -1    0    0  502  503 -0.00000000000E+00 -0.00000000000E+00 -0.41218569947E+03  0.41218569947E+03  0.00000000000E+00 0.  1.
         -6    2    1    2    0  503 -0.12213861981E+02  0.18006555497E+02 -0.70499758586E+02  0.18786084493E+03  0.17276593018E+03 0.  0.
        -24    2    3    3    0    0 -0.39876203592E+02 -0.36105646055E+02 -0.20449336580E+01  0.96201210649E+02  0.79729303814E+02 0.  0.
          6    2    1    2  501    0  0.12213861981E+02 -0.18006555497E+02 -0.25666626192E+03  0.30934453350E+03  0.17129814924E+03 0.  0.
         24    2    5    5    0    0  0.56174659640E+02 -0.48218106739E+02 -0.21498750609E+03  0.24148808026E+03  0.81340561388E+02 0.  0.
          5    1    5    5  501    0 -0.43960797659E+02  0.30211551241E+02 -0.41678755826E+02  0.67856453241E+02  0.47000000000E+01 0. -1.
        -13    1    6    6    0    0 -0.25089591385E+01 -0.51022622741E+02 -0.10631843424E+03  0.11795428083E+03  0.00000000000E+00 0.  1.
         14    1    6    6    0    0  0.58683618778E+02  0.28045160027E+01 -0.10866907185E+03  0.12353379942E+03  0.00000000000E+00 0. -1.
         -5    1    3    3    0  503  0.27662341611E+02  0.54112201552E+02 -0.68454824928E+02  0.91659634279E+02  0.47000000000E+01 0.  1.
         11    1    4    4    0    0 -0.25552850316E+01 -0.53712033166E+02  0.61713757449E+01  0.54125759736E+02  0.00000000000E+00 0. -1.
        -12    1    4    4    0    0 -0.37320918560E+02  0.17606387111E+02 -0.82163094029E+01  0.42075450913E+02  0.00000000000E+00 0.  1.
</event>
<event>
12    1  0.1050869E+000  0.1957054E+03  0.7818608E-02  0.1153541E+00
         21   -1    0    0  501  502  0.00000000000E+00  0.00000000000E+00  0.42126365576E+03  0.42126365576E+03  0.00000000000E+00 0.  1.
         21   -1    0    0  502  503 -0.00000000000E+00 -0.00000000000E+00 -0.22652842962E+03  0.22652842962E+03  0.00000000000E+00 0.  1.
         -6    2    1    2    0  503  0.40513092599E+02  0.83440078403E+02  0.34816589102E+03  0.39911244170E+03  0.17166157431E+03 0.  0.
        -24    2    3    3    0    0  0.71098383787E+02  0.10138572377E+03  0.21386924112E+03  0.26013335551E+03  0.81211238076E+02 0.  0.
          6    2    1    2  501    0 -0.40513092599E+02 -0.83440078403E+02 -0.15343066488E+03  0.24867964367E+03  0.17232828815E+03 0.  0.
         24    2    5    5    0    0 -0.36016944461E+00  0.15666115705E+02 -0.12660283996E+03  0.13833419910E+03  0.53502473314E+02 0.  0.
          5    1    5    5  501    0 -0.40152923154E+02 -0.99106194108E+02 -0.26827824913E+02  0.11034544457E+03  0.47000000000E+01 0. -1.
        -11    1    6    6    0    0  0.39039262793E+01  0.31101022113E+02 -0.43002043650E+02  0.53213625839E+02  0.00000000000E+00 0.  1.
         12    1    6    6    0    0 -0.42640957239E+01 -0.15434906408E+02 -0.83600796315E+02  0.85120573263E+02  0.00000000000E+00 0. -1.
         -5    1    3    3    0  503 -0.30585291188E+02 -0.17945645365E+02  0.13429664990E+03  0.13897908619E+03  0.47000000000E+01 0. -1.
         11    1    4    4    0    0  0.31663256732E+02  0.29426499405E+01  0.15908965697E+02  0.35557224373E+02  0.00000000000E+00 0. -1.
        -12    1    4    4    0    0  0.39435127055E+02  0.98443073828E+02  0.19796027542E+03  0.22457613113E+03  0.00000000000E+00 0.  1.
</event>
<event>
12    1  0.1050869E+000  0.1953201E+03  0.7818608E-02  0.1154086E+00
         21   -1    0    0  503  502  0.00000000000E+00  0.00000000000E+00  0.14606866242E+03  0.14606866242E+03  0.00000000000E+00 0. -1.
         21   -1    0    0  501  503 -0.00000000000E+00 -0.00000000000E+00 -0.30803516895E+03  0.30803516895E+03  0.00000000000E+00 0. -1.
          6    2    1    2  501    0 -0.10077258888E+03  0.20988687917E+02  0.97651800318E+01  0.19402365342E+03  0.16417728119E+03 0.  0.
         24    2    3    3    0    0 -0.50223490865E+02  0.15381790409E+02 -0.54008827486E+02  0.11231770111E+03  0.83302545125E+02 0.  0.
         -6    2    1    2    0  502  0.10077258888E+03 -0.20988687917E+02 -0.17173168656E+03  0.26008017794E+03  0.16599484058E+03 0.  0.
        -24    2    5    5    0    0 -0.12251903443E+02 -0.11639317885E+02 -0.75221975380E+02  0.11108970530E+03  0.79981211455E+02 0.  0.
          5    1    3    3  501    0 -0.50549098010E+02  0.56068975086E+01  0.63774007518E+02  0.81705952318E+02  0.47000000000E+01 0. -1.
        -13    1    4    4    0    0 -0.62242610067E+02  0.33000579299E+02 -0.21908201101E+02  0.73777706779E+02  0.00000000000E+00 0.  1.
         14    1    4    4    0    0  0.12019119202E+02 -0.17618788891E+02 -0.32100626384E+02  0.38539994326E+02  0.00000000000E+00 0. -1.
         -5    1    5    5    0  502  0.11302449232E+03 -0.93493700326E+01 -0.96509711182E+02  0.14899047264E+03  0.47000000000E+01 0.  1.
         13    1    6    6    0    0 -0.39442760255E+01  0.32174932807E+02 -0.50756263393E+02  0.60224429330E+02  0.00000000000E+00 0. -1.
        -14    1    6    6    0    0 -0.83076274172E+01 -0.43814250692E+02 -0.24465711986E+02  0.50865275974E+02  0.00000000000E+00 0.  1.
</event>
<event>
12    1  0.1050869E+000  0.2358816E+03  0.7818608E-02  0.1122618E+00
         21   -1    0    0  503  502  0.00000000000E+00  0.00000000000E+00  0.43719790723E+03  0.43719790723E+03  0.00000000000E+00 0. -1.
         21   -1    0    0  501  503 -0.00000000000E+00 -0.00000000000E+00 -0.19466984796E+03  0.19466984796E+03  0.00000000000E+00 0.  1.
          6    2    1    2  501    0 -0.51220397918E+02  0.15277247025E+03 -0.64914553330E+02  0.24436149707E+03  0.17185949256E+03 0.  0.
         24    2    3    3    0    0 -0.78933501771E+02  0.12207763225E+03  0.29978683044E-01  0.16722479087E+03  0.82647950873E+02 0.  0.
         -6    2    1    2    0  502  0.51220397918E+02 -0.15277247025E+03  0.30744261260E+03  0.38750625812E+03  0.17227066847E+03 0.  0.
        -24    2    5    5    0    0 -0.26577752514E+02 -0.11378805330E+03  0.24413964552E+03  0.27979510449E+03  0.70901593647E+02 0.  0.
          5    1    3    3  501    0  0.27713103852E+02  0.30694837998E+02 -0.64944532013E+02  0.77136706199E+02  0.47000000000E+01 0. -1.
        -11    1    4    4    0    0 -0.75116543487E+02  0.81455844222E+02 -0.32023766660E+02  0.11533894093E+03  0.00000000000E+00 0.  1.
         12    1    4    4    0    0 -0.38169582840E+01  0.40621788031E+02  0.32053745343E+02  0.51885849939E+02  0.00000000000E+00 0. -1.
         -5    1    5    5    0  502  0.77798150432E+02 -0.38984416947E+02  0.63302967081E+02  0.10771115363E+03  0.47000000000E+01 0.  1.
         13    1    6    6    0    0  0.24245554348E+02 -0.30981559140E+02  0.64016995912E+02  0.75139068919E+02  0.00000000000E+00 0. -1.
        -14    1    6    6    0    0 -0.50823306862E+02 -0.82806494163E+02  0.18012264960E+03  0.20465603557E+03  0.00000000000E+00 0.  1.
</event>
<event>
12    1  0.1050869E+000  0.1775488E+03  0.7818608E-02  0.1170308E+00
         21   -1    0    0  503  502  0.00000000000E+00  0.00000000000E+00  0.62370617333E+03  0.62370617333E+03  0.00000000000E+00 0.  1.
         21   -1    0    0  501  503 -0.00000000000E+00 -0.00000000000E+00 -0.50947901624E+02  0.50947901624E+02  0.00000000000E+00 0.  1.
          6    2    1    2  501    0  0.34646940772E+02 -0.94013269286E+01  0.25147285948E+03  0.30757386263E+03  0.17341939473E+03 0.  0.
         24    2    3    3    0    0  0.80865756168E+02  0.15900053214E+01  0.22726091610E+03  0.25404539840E+03  0.79685267283E+02 0.  0.
         -6    2    1    2    0  502 -0.34646940772E+02  0.94013269286E+01  0.32128541222E+03  0.36708021232E+03  0.17388148468E+03 0.  0.
        -24    2    5    5    0    0 -0.68077203934E+02  0.12084917243E+02  0.31580415290E+03  0.33277396863E+03  0.78903106966E+02 0.  0.
          5    1    3    3  501    0 -0.46218815395E+02 -0.10991332250E+02  0.24211943377E+02  0.53528464234E+02  0.47000000000E+01 0. -1.
        -13    1    4    4    0    0  0.43586481082E+02 -0.20727392106E+02  0.19233826282E+03  0.19830131987E+03  0.00000000000E+00 0.  1.
         14    1    4    4    0    0  0.37279275085E+02  0.22317397427E+02  0.34922653281E+02  0.55744078528E+02  0.00000000000E+00 0. -1.
         -5    1    5    5    0  502  0.33430263162E+02 -0.26835903149E+01  0.54812593194E+01  0.34306243685E+02  0.47000000000E+01 0.  1.
         11    1    6    6    0    0  0.35664779735E+01  0.48662477599E+01  0.17049987983E+03  0.17060659177E+03  0.00000000000E+00 0. -1.
        -12    1    6    6    0    0 -0.71643681907E+02  0.72186694836E+01  0.14530427308E+03  0.16216737687E+03  0.00000000000E+00 0.  1.
</event>
<event>
12    1  0.1050869E+000  0.2576581E+03  0.7818608E-02  0.1108680E+00
         21   -1    0    0  503  502  0.00000000000E+00  0.00000000000E+00  0.61654315059E+02  0.61654315059E+02  0.00000000000E+00 0.  1.
         21   -1    0    0  501  503 -0.00000000000E+00 -0.00000000000E+00 -0.11954314248E+04  0.11954314248E+04  0.00000000000E+00 0.  1.
          6    2    1    2  501    0 -0.30229010076E+02 -0.18909976016E+03 -0.36688306476E+03  0.44832008924E+03  0.17238099334E+03 0.  0.
         24    2    3    3    0    0  0.81530023639E+01 -0.17043758984E+02 -0.98249528241E+02  0.12697523809E+03  0.78184270284E+02 0.  0.
         -6    2    1    2    0  502  0.30229010076E+02  0.18909976016E+03 -0.76689404496E+03  0.80876565059E+03  0.17118086648E+03 0.  0.
        -24    2    5    5    0    0  0.60940150304E+02  0.19156490093E+03 -0.72755919761E+03  0.75858028152E+03  0.75437684856E+02 0.  0.
          5    1    3    3  501    0 -0.38382012439E+02 -0.17205600118E+03 -0.26863353652E+03  0.32134485115E+03  0.47000000000E+01 0. -1.
        -11    1    4    4    0    0  0.68823835555E+00 -0.45700311274E+02 -0.80159028413E+02  0.92273842224E+02  0.00000000000E+00 0.  1.
         12    1    4    4    0    0  0.74647640083E+01  0.28656552290E+02 -0.18090499828E+02  0.34701395864E+02  0.00000000000E+00 0. -1.
         -5    1    5    5    0  502 -0.30711140228E+02 -0.24651407724E+01 -0.39334847341E+02  0.50185369068E+02  0.47000000000E+01 0.  1.
         11    1    6    6    0    0  0.62371466035E+02  0.14716546476E+03 -0.45122155877E+03  0.47869485990E+03  0.00000000000E+00 0. -1.
        -12    1    6    6    0    0 -0.14313157311E+01  0.44399436169E+02 -0.27633763884E+03  0.27988542162E+03  0.00000000000E+00 0.  1.
</event>
<event>
12    1  0.1050869E+000  0.3132894E+03  0.7818608E-02  0.1079271E+00
         21   -1    0    0  503  502  0.00000000000E+00  0.00000000000E+00  0.21085379875E+03  0.21085379875E+03  0.00000000000E+00 0.  1.
         21   -1    0    0  501  503 -0.00000000000E+00 -0.00000000000E+00 -0.71069023827E+03  0.71069023827E+03  0.00000000000E+00 0. -1.
          6    2    1    2  501    0 -0.80913932716E+02  0.24911581989E+03 -0.52284576671E+03  0.60741077601E+03  0.16423884686E+03 0.  0.
         24    2    3    3    0    0 -0.10224811768E+03  0.11829437409E+03 -0.27343096448E+03  0.32492319805E+03  0.79764376665E+02 0.  0.
         -6    2    1    2    0  502  0.80913932716E+02 -0.24911581989E+03  0.23009327187E+02  0.31413326100E+03  0.17188519513E+03 0.  0.
        -24    2    5    5    0    0  0.48477553645E+02 -0.17138951102E+03 -0.50462072183E+02  0.20226890429E+03  0.81497553445E+02 0.  0.
          5    1    3    3  501    0  0.21334184963E+02  0.13082144580E+03 -0.24941480223E+03  0.28248757796E+03  0.47000000000E+01 0. -1.
        -13    1    4    4    0    0 -0.42312928296E+02  0.28368946318E+02 -0.31351922197E+02  0.59817422559E+02  0.00000000000E+00 0.  1.
         14    1    4    4    0    0 -0.59935189383E+02  0.89925427774E+02 -0.24207904228E+03  0.26510577549E+03  0.00000000000E+00 0. -1.
         -5    1    5    5    0  502  0.32436379071E+02 -0.77726308872E+02  0.73471399370E+02  0.11186435672E+03  0.47000000000E+01 0.  1.
         11    1    6    6    0    0  0.57317633436E+02 -0.12320659412E+03 -0.58507845673E+01  0.13601252743E+03  0.00000000000E+00 0. -1.
        -12    1    6    6    0    0 -0.88400797910E+01 -0.48182916897E+02 -0.44611287616E+02  0.66256376856E+02  0.00000000000E+00 0.  1.
</event>
<event>
12    1  0.1050869E+000  0.2067445E+03  0.7818608E-02  0.1144289E+00
         21   -1    0    0  501  502  0.00000000000E+00  0.00000000000E+00  0.49795668048E+02  0.49795668048E+02  0.00000000000E+00 0.  1.
         21   -1    0    0  502  503 -0.00000000000E+00 -0.00000000000E+00 -0.91789209670E+03  0.91789209670E+03  0.00000000000E+00 0.  1.
         -6    2    1    2    0  503 -0.18983914541E+02  0.11213987909E+03 -0.30776403465E+03  0.37043097325E+03  0.17194377982E+03 0.  0.
        -24    2    3    3    0    0  0.54042404939E+02  0.38700600273E+02 -0.15987909098E+03  0.18982583053E+03  0.77808766927E+02 0.  0.
          6    2    1    2  501    0  0.18983914541E+02 -0.11213987909E+03 -0.56033239399E+03  0.59725679150E+03  0.17264860769E+03 0.  0.
         24    2    5    5    0    0 -0.21945744994E+02 -0.33210229726E+02 -0.12366118388E+03  0.15160113707E+03  0.78142698196E+02 0.  0.
          5    1    5    5  501    0  0.40929659535E+02 -0.78929649367E+02 -0.43667121012E+03  0.44565565443E+03  0.47000000000E+01 0. -1.
        -13    1    6    6    0    0 -0.31755769210E+02 -0.29508694576E+02 -0.20577677133E+02  0.47985755489E+02  0.00000000000E+00 0.  1.
         14    1    6    6    0    0  0.98100242156E+01 -0.37015351499E+01 -0.10308350674E+03  0.10361538158E+03  0.00000000000E+00 0. -1.
         -5    1    3    3    0  503 -0.73026319479E+02  0.73439278820E+02 -0.14788494368E+03  0.18060514272E+03  0.47000000000E+01 0.  1.
         11    1    4    4    0    0 -0.20854794177E+01  0.45592843539E+02 -0.76458273840E+02  0.89044507102E+02  0.00000000000E+00 0. -1.
        -12    1    4    4    0    0  0.56127884356E+02 -0.68922432665E+01 -0.83420817138E+02  0.10078132343E+03  0.00000000000E+00 0.  1.
</event>
<event>
12    1  0.1050869E+000  0.2421911E+03  0.7818608E-02  0.1118353E+00
         21   -1    0    0  501  502  0.00000000000E+00  0.00000000000E+00  0.46488601656E+02  0.46488601656E+02  0.00000000000E+00 0.  1.
         21   -1    0    0  502  503 -0.00000000000E+00 -0.00000000000E+00 -0.12613859041E+04  0.12613859041E+04  0.00000000000E+00 0.  1.
         -6    2    1    2    0  503  0.80669647857E+02 -0.15031769246E+03 -0.60754806200E+03  0.65401702268E+03  0.17181564993E+03 0.  0.
        -24    2    3    3    0    0  0.37891641563E+02 -0.38884928667E+01 -0.24663367124E+03  0.26215894151E+03  0.80300971034E+02 0.  0.
          6    2    1    2  501    0 -0.80669647857E+02  0.15031769246E+03 -0.60734924044E+03  0.65385748307E+03  0.17191133633E+03 0.  0.
         24    2    5    5    0    0 -0.63635841061E+02  0.12242882290E+03 -0.25785022653E+03  0.30280251538E+03  0.78512973796E+02 0.  0.
          5    1    5    5  501    0 -0.17033806797E+02  0.27888869554E+02 -0.34949901391E+03  0.35105496769E+03  0.47000000000E+01 0. -1.
        -13    1    6    6    0    0 -0.54877552628E+02  0.11262988927E+03 -0.26079985560E+03  0.28933303030E+03  0.00000000000E+00 0.  1.
         14    1    6    6    0    0 -0.87582884330E+01  0.97989336360E+01  0.29496290747E+01  0.13469485081E+02  0.00000000000E+00 0. -1.
         -5    1    3    3    0  503  0.42778006294E+02 -0.14642919959E+03 -0.36091439076E+03  0.39185808116E+03  0.47000000000E+01 0.  1.
         13    1    4    4    0    0  0.42263119125E+02 -0.35427987862E+02 -0.18090226994E+03  0.18912150811E+03  0.00000000000E+00 0. -1.
        -14    1    4    4    0    0 -0.43714775623E+01  0.31539494995E+02 -0.65731401304E+02  0.73037433403E+02  0.00000000000E+00 0.  1.
</event>
<event>
12    1  0.1050869E+000  0.1829581E+03  0.7818608E-02  0.1165370E+00
         21   -1    0    0  501  502  0.00000000000E+00  0.00000000000E+00  0.16463812637E+03  0.16463812637E+03  0.00000000000E+00 0.  1.
         21   -1    0    0  502  503 -0.00000000000E+00 -0.00000000000E+00 -0.31015152361E+03  0.31015152361E+03  0.00000000000E+00 0.  1.
         -6    2    1    2    0  503  0.57185810004E+02 -0.23115231094E+02  0.67560925976E+02  0.19503373340E+03  0.17224734445E+03 0.  0.
        -24    2    3    3    0    0 -0.19195593150E+02 -0.57180128834E+02  0.28993409714E+02  0.10281616828E+03  0.78054524035E+02 0.  0.
          6    2    1    2  501    0 -0.57185810004E+02  0.23115231094E+02 -0.21307432321E+03  0.27975591659E+03  0.17046458541E+03 0.  0.
         24    2    5    5    0    0  0.16255645163E+02  0.42695129768E+02 -0.16810638179E+03  0.19131822370E+03  0.79093533317E+02 0.  0.
          5    1    5    5  501    0 -0.73441455166E+02 -0.19579898674E+02 -0.44967941418E+02  0.88437692894E+02  0.47000000000E+01 0. -1.
        -11    1    6    6    0    0  0.61688688258E+01  0.59519589707E+02 -0.73887441492E+02  0.95078864695E+02  0.00000000000E+00 0.  1.
         12    1    6    6    0    0  0.10086776337E+02 -0.16824459939E+02 -0.94218940302E+02  0.96239359000E+02  0.00000000000E+00 0. -1.
         -5    1    3    3    0  503  0.76381403154E+02  0.34064897740E+02  0.38567516262E+02  0.92217565119E+02  0.47000000000E+01 0.  1.
         13    1    4    4    0    0  0.23507642931E+02 -0.46532022417E+02  0.41990453334E+01  0.52301724332E+02  0.00000000000E+00 0. -1.
        -14    1    4    4    0    0 -0.42703236081E+02 -0.10648106417E+02  0.24794364380E+02  0.50514443945E+02  0.00000000000E+00 0.  1.
</event>
<event>
12    1  0.1050869E+000  0.2642081E+03  0.7818608E-02  0.1104955E+00
         21   -1    0    0  501  502  0.00000000000E+00  0.00000000000E+00  0.47718989952E+03  0.47718989952E+03  0.00000000000E+00 0. -1.
         21   -1    0    0  502  503 -0.00000000000E+00 -0.00000000000E+00 -0.23908412922E+03  0.23908412922E+03  0.00000000000E+00 0. -1.
         -6    2    1    2    0  503 -0.18717742152E+03 -0.63937164413E+02 -0.10576756997E+03  0.28262119408E+03  0.17194363136E+03 0.  0.
        -24    2    3    3    0    0 -0.30652050236E+02  0.12398746297E+02 -0.26760719348E+02  0.91332052814E+02  0.80821597843E+02 0.  0.
          6    2    1    2  501    0  0.18717742152E+03  0.63937164413E+02  0.34387334028E+03  0.43365283466E+03  0.17516437632E+03 0.  0.
         24    2    5    5    0    0  0.11875212343E+02  0.24094103897E+02  0.12972235801E+03  0.15400829739E+03  0.78543739328E+02 0.  0.
          5    1    5    5  501    0  0.17530220918E+03  0.39843060516E+02  0.21415098227E+03  0.27964453727E+03  0.47000000000E+01 0. -1.
        -11    1    6    6    0    0  0.33267195967E+02  0.36513000993E+02  0.11515501193E+03  0.12530196464E+03  0.00000000000E+00 0.  1.
         12    1    6    6    0    0 -0.21391983625E+02 -0.12418897097E+02  0.14567346077E+02  0.28706332755E+02  0.00000000000E+00 0. -1.
         -5    1    3    3    0  503 -0.15652537129E+03 -0.76335910710E+02 -0.79006850625E+02  0.19128914127E+03  0.47000000000E+01 0.  1.
         13    1    4    4    0    0  0.16455455352E+02  0.13509899058E+01 -0.38197473947E+02  0.41613149370E+02  0.00000000000E+00 0. -1.
        -14    1    4    4    0    0 -0.47107505588E+02  0.11047756391E+02  0.11436754599E+02  0.49718903445E+02  0.00000000000E+00 0.  1.
</event>
<event>
12    1  0.1050869E+000  0.2401897E+03  0.7818608E-02  0.1120666E+00
         21   -1    0    0  501  502  0.00000000000E+00  0.00000000000E+00  0.65182889902E+03  0.65182889902E+03  0.00000000000E+00 0.  1.
         21   -1    0    0  502  503 -0.00000000000E+00 -0.00000000000E+00 -0.14021272726E+03  0.14021272726E+03  0.00000000000E+00 0.  1.
         -6    2    1    2    0  503 -0.16513331358E+03 -0.25362382497E+02  0.12302437243E+02  0.24050458509E+03  0.17256547682E+03 0.  0.
        -24    2    3    3    0    0 -0.17571239603E+03 -0.18558855012E+01 -0.24943406901E+02  0.19496542291E+03  0.80691090904E+02 0.  0.
          6    2    1    2  501    0  0.16513331358E+03  0.25362382497E+02  0.49931373452E+03  0.55153704119E+03  0.16421522654E+03 0.  0.
         24    2    5    5    0    0  0.64654119177E+02  0.65457731744E+02  0.21624681222E+03  0.24846497379E+03  0.80667773206E+02 0.  0.
          5    1    5    5  501    0  0.10047919440E+03 -0.40095349247E+02  0.28306692230E+03  0.30307206740E+03  0.47000000000E+01 0. -1.
        -13    1    6    6    0    0  0.77774298197E+02  0.64039857664E+02  0.21179821637E+03  0.23453875861E+03  0.00000000000E+00 0.  1.
         14    1    6    6    0    0 -0.13120179020E+02  0.14178740808E+01  0.44485958500E+01  0.13926215188E+02  0.00000000000E+00 0. -1.
         -5    1    3    3    0  503  0.10579082453E+02 -0.23506496996E+02  0.37245844145E+02  0.45539162186E+02  0.47000000000E+01 0.  1.
         13    1    4    4    0    0 -0.10438344260E+03 -0.36317742738E+02 -0.32991394850E+02  0.11533999159E+03  0.00000000000E+00 0. -1.
        -14    1    4    4    0    0 -0.71328953435E+02  0.34461857237E+02  0.80479879487E+01  0.79625431316E+02  0.00000000000E+00 0.  1.
</event>
<event>
12    1  0.1050869E+000  0.2215834E+03  0.7818608E-02  0.1133685E+00
         21   -1    0    0  501  502  0.00000000000E+00  0.00000000000E+00  0.92904294760E+03  0.92904294760E+03  0.00000000000E+00 0.  1.
         21   -1    0    0  502  503 -0.00000000000E+00 -0.00000000000E+00 -0.81777585905E+02  0.81777585905E+02  0.00000000000E+00 0.  1.
         -6    2    1    2    0  503 -0.10851227191E+03 -0.75258644021E+02  0.72739596894E+03  0.75889220886E+03  0.17138760864E+03 0.  0.
        -24    2    3    3    0    0 -0.84836494031E+02 -0.99310686508E+02  0.69620237689E+03  0.71269509433E+03  0.78592014425E+02 0.  0.
          6    2    1    2  501    0  0.10851227191E+03  0.75258644021E+02  0.11986939275E+03  0.25192832464E+03  0.17793378763E+03 0.  0.
         24    2    5    5    0    0  0.13306145738E+03  0.30260725707E+02  0.50626143980E+02  0.16564858970E+03  0.79090997302E+02 0.  0.
          5    1    5    5  501    0 -0.24549185472E+02  0.44997918315E+02  0.69243248773E+02  0.86279734936E+02  0.47000000000E+01 0. -1.
        -11    1    6    6    0    0  0.11014082751E+02  0.22787327471E+02 -0.12289781276E+02  0.28135583092E+02  0.00000000000E+00 0.  1.
         12    1    6    6    0    0  0.12204737463E+03  0.74733982354E+01  0.62915925255E+02  0.13751300661E+03  0.00000000000E+00 0. -1.
         -5    1    3    3    0  503 -0.23675777879E+02  0.24052042486E+02  0.31193592050E+02  0.46197114530E+02  0.47000000000E+01 0.  1.
         11    1    4    4    0    0 -0.11683913329E+02  0.11876052106E+02  0.12984928648E+03  0.13091368013E+03  0.00000000000E+00 0. -1.
        -12    1    4    4    0    0 -0.73152580702E+02 -0.11118673861E+03  0.56635309040E+03  0.58178141421E+03  0.00000000000E+00 0.  1.
</event>
<event>
12    1  0.1050869E+000  0.1949685E+03  0.7818608E-02  0.1154110E+00
         21   -1    0    0  501  502  0.00000000000E+00  0.00000000000E+00  0.56171822022E+02  0.56171822022E+02  0.00000000000E+00 0.  1.
         21   -1    0    0  502  503 -0.00000000000E+00 -0.00000000000E+00 -0.69078629022E+03  0.69078629022E+03  0.00000000000E+00 0.  1.
         -6    2    1    2    0  503  0.91821768561E+02  0.10746675789E+02 -0.37242461356E+03  0.42037224779E+03  0.17165665062E+03 0.  0.
        -24    2    3    3    0    0  0.94871996849E+02  0.49837217711E+02 -0.18299336787E+03  0.22686860130E+03  0.80612316152E+02 0.  0.
          6    2    1    2  501    0 -0.91821768561E+02 -0.10746675789E+02 -0.26218985463E+03  0.32658586445E+03  0.17137117250E+03 0.  0.
         24    2    5    5    0    0  0.15418396465E+02 -0.27823273541E+01 -0.12080368037E+03  0.14888942635E+03  0.85609951484E+02 0.  0.
          5    1    5    5  501    0 -0.10724016503E+03 -0.79643484348E+01 -0.14138617426E+03  0.17769643810E+03  0.47000000000E+01 0. -1.
        -13    1    6    6    0    0  0.72099323989E+01  0.39482000800E+02 -0.36600714358E+02  0.54317803747E+02  0.00000000000E+00 0.  1.
         14    1    6    6    0    0  0.82084640661E+01 -0.42264328154E+02 -0.84202966015E+02  0.94571622606E+02  0.00000000000E+00 0. -1.
         -5    1    3    3    0  503 -0.30502282879E+01 -0.39090541922E+02 -0.18943124569E+03  0.19350364649E+03  0.47000000000E+01 0.  1.
         13    1    4    4    0    0  0.10653942828E+03  0.33416129147E+02 -0.16815300017E+03  0.20184825719E+03  0.00000000000E+00 0. -1.
        -14    1    4    4    0    0 -0.11667431429E+02  0.16421088564E+02 -0.14840367702E+02  0.25020344108E+02  0.00000000000E+00 0.  1.
</event>
<event>
12    1  0.1050869E+000  0.2450577E+03  0.7818608E-02  0.1116552E+00
         21   -1    0    0  503  502  0.00000000000E+00  0.00000000000E+00  0.58425495590E+02  0.58425495590E+02  0.00000000000E+00 0. -1.
         21   -1    0    0  501  503 -0.00000000000E+00 -0.00000000000E+00 -0.14378743208E+04  0.14378743208E+04  0.00000000000E+00 0. -1.
          6    2    1    2  501    0  0.15744033312E+03  0.76911115149E+02 -0.28865117477E+03  0.37831376535E+03  0.17058436690E+03 0.  0.
         24    2    3    3    0    0  0.16580489317E+03  0.35283549850E+02 -0.27237924399E+03  0.33260068419E+03  0.87730103593E+02 0.  0.
         -6    2    1    2    0  502 -0.15744033312E+03 -0.76911115149E+02 -0.10907976505E+04  0.11179860511E+04  0.17131992879E+03 0.  0.
        -24    2    5    5    0    0 -0.15719988447E+02 -0.53454036651E+02 -0.50130337284E+03  0.51122375496E+03  0.83307886455E+02 0.  0.
          5    1    3    3  501    0 -0.83645600564E+01  0.41627565299E+02 -0.16271930781E+02  0.45713081159E+02  0.47000000000E+01 0. -1.
        -13    1    4    4    0    0  0.80011000279E+02  0.50118796336E+02 -0.19266427495E+03  0.21455343566E+03  0.00000000000E+00 0.  1.
         14    1    4    4    0    0  0.85793892893E+02 -0.14835246485E+02 -0.79714969041E+02  0.11804724853E+03  0.00000000000E+00 0. -1.
         -5    1    5    5    0  502 -0.14172034467E+03 -0.23457078499E+02 -0.58949427762E+03  0.60676229610E+03  0.47000000000E+01 0.  1.
         11    1    6    6    0    0  0.25683297336E+02  0.67665156943E+01 -0.11059956853E+03  0.11374393195E+03  0.00000000000E+00 0. -1.
        -12    1    6    6    0    0 -0.41403285783E+02 -0.60220552345E+02 -0.39070380431E+03  0.39747982301E+03  0.00000000000E+00 0.  1.
</event>
<event>
12    1  0.1050869E+000  0.2482656E+03  0.7818608E-02  0.1114488E+00
         21   -1    0    0  503  502  0.00000000000E+00  0.00000000000E+00  0.35840218617E+02  0.35840218617E+02  0.00000000000E+00 0. -1.
         21   -1    0    0  501  503 -0.00000000000E+00 -0.00000000000E+00 -0.17919068933E+04  0.17919068933E+04  0.00000000000E+00 0. -1.
          6    2    1    2  501    0 -0.21047813093E+02 -0.17693987721E+03 -0.69102796541E+03  0.73427205006E+03  0.17287297052E+03 0.  0.
         24    2    3    3    0    0  0.13337947234E+02 -0.32749005625E+02 -0.12535233323E+03  0.14947772826E+03  0.73348385087E+02 0.  0.
         -6    2    1    2    0  502  0.21047813093E+02  0.17693987721E+03 -0.10650387093E+04  0.10934750618E+04  0.17213229815E+03 0.  0.
        -24    2    5    5    0    0  0.59766446146E+02  0.12885754966E+03 -0.52776686033E+03  0.55264775815E+03  0.81886442931E+02 0.  0.
          5    1    3    3  501    0 -0.34385760327E+02 -0.14419087159E+03 -0.56567563218E+03  0.58479432180E+03  0.47000000000E+01 0. -1.
        -13    1    4    4    0    0 -0.13769665443E+02 -0.44713457386E+02 -0.49833867082E+02  0.68354306859E+02  0.00000000000E+00 0.  1.
         14    1    4    4    0    0  0.27107612678E+02  0.11964451762E+02 -0.75518466147E+02  0.81123421403E+02  0.00000000000E+00 0. -1.
         -5    1    5    5    0  502 -0.38718633053E+02  0.48082327558E+02 -0.53727184894E+03  0.54082730370E+03  0.47000000000E+01 0.  1.
         11    1    6    6    0    0  0.34821258969E+02  0.46776722088E+01 -0.81410050248E+02  0.88667902732E+02  0.00000000000E+00 0. -1.
        -12    1    6    6    0    0  0.24945187178E+02  0.12417987745E+03 -0.44635681008E+03  0.46397985542E+03  0.00000000000E+00 0.  1.
</event>
<event>
12    1  0.1050869E+000  0.1852639E+03  0.7818608E-02  0.1163233E+00
         21   -1    0    0  503  502  0.00000000000E+00  0.00000000000E+00  0.94792786285E+03  0.94792786285E+03  0.00000000000E+00 0. -1.
         21   -1    0    0  501  503 -0.00000000000E+00 -0.00000000000E+00 -0.38970073612E+02  0.38970073612E+02  0.00000000000E+00 0. -1.
          6    2    1    2  501    0 -0.70147459842E+02 -0.65604453229E+01  0.31279844727E+03  0.36261541492E+03  0.16936163957E+03 0.  0.
         24    2    3    3    0    0 -0.15265911373E+02 -0.42891207862E+02  0.82075041921E+02  0.12264189879E+03  0.78943138210E+02 0.  0.
         -6    2    1    2    0  502  0.70147459842E+02  0.65604453229E+01  0.59615934196E+03  0.62428252154E+03  0.17134468221E+03 0.  0.
        -24    2    5    5    0    0  0.76703260363E+02  0.34709195423E+02  0.23408719335E+03  0.26102825596E+03  0.79062114350E+02 0.  0.
          5    1    3    3  501    0 -0.54881548469E+02  0.36330762540E+02  0.23072340535E+03  0.23997351614E+03  0.47000000000E+01 0. -1.
        -13    1    4    4    0    0 -0.66751914796E+01  0.22488534681E+01  0.75960750957E+02  0.76286638471E+02  0.00000000000E+00 0.  1.
         14    1    4    4    0    0 -0.85907198937E+01 -0.45140061331E+02  0.61142909636E+01  0.46355260319E+02  0.00000000000E+00 0. -1.
         -5    1    5    5    0  502 -0.65558005212E+01 -0.28148750100E+02  0.36207214862E+03  0.36325426557E+03  0.47000000000E+01 0.  1.
         13    1    6    6    0    0 -0.50298495050E+00 -0.14412347871E+02  0.84118854131E+02  0.85346062506E+02  0.00000000000E+00 0. -1.
        -14    1    6    6    0    0  0.77206245314E+02  0.49121543295E+02  0.14996833922E+03  0.17568219346E+03  0.00000000000E+00 0.  1.
</event>
<event>
12    1  0.1050869E+000  0.2646149E+03  0.7818608E-02  0.1104495E+00
         21   -1    0    0  503  502  0.00000000000E+00  0.00000000000E+00  0.57333044687E+03  0.57333044687E+03  0.00000000000E+00 0. -1.
         21   -1    0    0  501  503 -0.00000000000E+00 -0.00000000000E+00 -0.17842726730E+03  0.17842726730E+03  0.00000000000E+00 0. -1.
          6    2    1    2  501    0 -0.18981533700E+03 -0.64903188964E+02  0.40897302404E+03  0.48676902164E+03  0.17158921860E+03 0.  0.
         24    2    3    3    0    0 -0.10374746539E+03 -0.31075066356E+02  0.35351924382E+03  0.37883741300E+03  0.82539284065E+02 0.  0.
         -6    2    1    2    0  502  0.18981533700E+03  0.64903188964E+02 -0.14069844469E+02  0.26498869252E+03  0.17256523561E+03 0.  0.
        -24    2    5    5    0    0  0.26381766648E+02  0.41526411973E+02 -0.19872342882E+01  0.99383483999E+02  0.86328948151E+02 0.  0.
          5    1    3    3  501    0 -0.86067871615E+02 -0.33828122608E+02  0.55453780219E+02  0.10793160864E+03  0.47000000000E+01 0. -1.
        -11    1    4    4    0    0 -0.38333469587E+02 -0.54474196966E+02  0.17976154763E+03  0.19170578247E+03  0.00000000000E+00 0.  1.
         12    1    4    4    0    0 -0.65413995801E+02  0.23399130610E+02  0.17375769619E+03  0.18713163053E+03  0.00000000000E+00 0. -1.
         -5    1    5    5    0  502  0.16343357035E+03  0.23376776990E+02 -0.12082610181E+02  0.16560520852E+03  0.47000000000E+01 0.  1.
         11    1    6    6    0    0  0.41530438841E+02  0.15370904197E+02  0.31445848733E+02  0.54312829504E+02  0.00000000000E+00 0. -1.
        -12    1    6    6    0    0 -0.15148672194E+02  0.26155507776E+02 -0.33433083022E+02  0.45070654495E+02  0.00000000000E+00 0.  1.
</event>
<event>
12    1  0.1050869E+000  0.2253791E+03  0.7818608E-02  0.1130189E+00
         21   -1    0    0  501  502  0.00000000000E+00  0.00000000000E+00  0.56964149927E+03  0.56964149927E+03  0.00000000000E+00 0. -1.
         21   -1    0    0  502  503 -0.00000000000E+00 -0.00000000000E+00 -0.10708828282E+03  0.10708828282E+03  0.00000000000E+00 0. -1.
         -6    2    1    2    0  503  0.13995737637E+03 -0.35588350160E+02  0.37239857299E+03  0.43528890599E+03  0.17303507344E+03 0.  0.
        -24    2    3    3    0    0  0.44443912562E+02 -0.22302015368E+02  0.70558173705E+02  0.11838345463E+03  0.81015709583E+02 0.  0.
          6    2    1    2  501    0 -0.13995737637E+03  0.35588350160E+02  0.90154643455E+02  0.24144087609E+03  0.17120525414E+03 0.  0.
         24    2    5    5    0    0 -0.86975603270E+02  0.85249099120E+02  0.85147546509E+02  0.16849967177E+03  0.79434691698E+02 0.  0.
          5    1    5    5  501    0 -0.52981773104E+02 -0.49660748960E+02  0.50070969461E+01  0.72941204324E+02  0.47000000000E+01 0. -1.
        -13    1    6    6    0    0 -0.40838228931E+01  0.57268493179E+02  0.26954172319E+02  0.63426219545E+02  0.00000000000E+00 0.  1.
         14    1    6    6    0    0 -0.82891780377E+02  0.27980605942E+02  0.58193374190E+02  0.10507345223E+03  0.00000000000E+00 0. -1.
         -5    1    3    3    0  503  0.95513463812E+02 -0.13286334792E+02  0.30184039929E+03  0.31690545136E+03  0.47000000000E+01 0.  1.
         13    1    4    4    0    0  0.59926885363E+02 -0.21262643674E+02  0.78442134423E+02  0.10097772060E+03  0.00000000000E+00 0. -1.
        -14    1    4    4    0    0 -0.15482972800E+02 -0.10393716942E+01 -0.78839607188E+01  0.17405734023E+02  0.00000000000E+00 0.  1.
</event>
<event>
12    1  0.1050869E+000  0.2723725E+03  0.7818608E-02  0.1100350E+00
         21   -1    0    0  501  502  0.00000000000E+00  0.00000000000E+00  0.35468705789E+03  0.35468705789E+03  0.00000000000E+00 0.  1.
         21   -1    0    0  502  503 -0.00000000000E+00 -0.00000000000E+00 -0.23466823437E+03  0.23466823437E+03  0.00000000000E+00 0. -1.
         -6    2    1    2    0  503  0.89509904683E+02 -0.18944030684E+03 -0.41075690511E+02  0.27545232563E+03  0.17403194663E+03 0.  0.
        -24    2    3    3    0    0  0.86875031293E+02 -0.51594039766E+02 -0.23063650879E+02  0.13632986347E+03  0.88570218923E+02 0.  0.
          6    2    1    2  501    0 -0.89509904683E+02  0.18944030684E+03  0.16109451403E+03  0.31390296663E+03  0.16936344681E+03 0.  0.
         24    2    5    5    0    0 -0.11833321948E+03  0.13043887390E+03  0.15551426545E+03  0.24783344461E+03  0.78864940591E+02 0.  0.
          5    1    5    5  501    0  0.28823314794E+02  0.59001432948E+02  0.55802485757E+01  0.66069522019E+02  0.47000000000E+01 0. -1.
        -13    1    6    6    0    0 -0.40282825161E+02  0.49035697183E+02  0.10840495844E+03  0.12561385519E+03  0.00000000000E+00 0.  1.
         14    1    6    6    0    0 -0.78050394316E+02  0.81403176714E+02  0.47109307013E+02  0.12221958943E+03  0.00000000000E+00 0. -1.
         -5    1    3    3    0  503  0.26348733907E+01 -0.13784626708E+03 -0.18012039632E+02  0.13912246216E+03  0.47000000000E+01 0.  1.
         11    1    4    4    0    0  0.70146926082E+02 -0.56525849266E+02  0.17863776961E+02  0.91841588626E+02  0.00000000000E+00 0. -1.
        -12    1    4    4    0    0  0.16728105211E+02  0.49318095008E+01 -0.40927427840E+02  0.44488274843E+02  0.00000000000E+00 0.  1.
</event>
<event>
12    1  0.1050869E+000  0.2005135E+03  0.7818608E-02  0.1150961E+00
         21   -1    0    0  503  502  0.00000000000E+00  0.00000000000E+00  0.78106484691E+02  0.78106484691E+02  0.00000000000E+00 0. -1.
         21   -1    0    0  501  503 -0.00000000000E+00 -0.00000000000E+00 -0.53808042421E+03  0.53808042421E+03  0.00000000000E+00 0. -1.
          6    2    1    2  501    0 -0.58410214396E+02 -0.62613477380E+02 -0.14713578973E+03  0.24870586958E+03  0.18131041958E+03 0.  0.
         24    2    3    3    0    0  0.52187915049E+01 -0.73309201877E+02 -0.27271398676E+02  0.11249789934E+03  0.80688123689E+02 0.  0.
         -6    2    1    2    0  502  0.58410214396E+02  0.62613477380E+02 -0.31283814979E+03  0.36748103932E+03  0.17274954589E+03 0.  0.
        -24    2    5    5    0    0 -0.21877496840E+02  0.51787154779E+02 -0.23793085100E+03  0.25704318690E+03  0.79369867111E+02 0.  0.
          5    1    3    3  501    0 -0.63629005901E+02  0.10695724497E+02 -0.11986439105E+03  0.13620797024E+03  0.47000000000E+01 0. -1.
        -13    1    4    4    0    0 -0.17880168737E+02  0.11376851384E+02 -0.28446054775E+01  0.21382819314E+02  0.00000000000E+00 0.  1.
         14    1    4    4    0    0  0.23098960242E+02 -0.84686053262E+02 -0.24426793199E+02  0.91115080021E+02  0.00000000000E+00 0. -1.
         -5    1    5    5    0  502  0.80287711236E+02  0.10826322602E+02 -0.74907298787E+02  0.11043785242E+03  0.47000000000E+01 0.  1.
         13    1    6    6    0    0 -0.20782034027E+02  0.63319515219E+02 -0.11017003632E+03  0.12875826517E+03  0.00000000000E+00 0. -1.
        -14    1    6    6    0    0 -0.10954628131E+01 -0.11532360441E+02 -0.12776081468E+03  0.12828492173E+03  0.00000000000E+00 0.  1.
</event>
<event>
12    1  0.1050869E+000  0.1911168E+03  0.7818608E-02  0.1157873E+00
         21   -1    0    0  501  502  0.00000000000E+00  0.00000000000E+00  0.75420583434E+02  0.75420583434E+02  0.00000000000E+00 0. -1.
         21   -1    0    0  502  503 -0.00000000000E+00 -0.00000000000E+00 -0.54976377466E+03  0.54976377466E+03  0.00000000000E+00 0.  1.
         -6    2    1    2    0  503 -0.83231244521E+02  0.65560241161E+01 -0.12452131833E+03  0.22656050066E+03  0.16986371073E+03 0.  0.
        -24    2    3    3    0    0 -0.72182918068E+02  0.50960295714E+02 -0.30988756610E+02  0.12232885981E+03  0.78719257523E+02 0.  0.
          6    2    1    2  501    0  0.83231244521E+02 -0.65560241161E+01 -0.34982187290E+03  0.39862385743E+03  0.17191630359E+03 0.  0.
         24    2    5    5    0    0  0.26776354475E+02 -0.18521949952E+02 -0.32408038295E+03  0.33525941712E+03  0.79440206242E+02 0.  0.
          5    1    5    5  501    0  0.56454890046E+02  0.11965925836E+02 -0.25741489948E+02  0.63364440311E+02  0.47000000000E+01 0. -1.
        -11    1    6    6    0    0  0.10343184552E+02  0.28604657509E+02 -0.69992914046E+02  0.76316550725E+02  0.00000000000E+00 0.  1.
         12    1    6    6    0    0  0.16433169923E+02 -0.47126607461E+02 -0.25408746890E+03  0.25894286640E+03  0.00000000000E+00 0. -1.
         -5    1    3    3    0  503 -0.11048326453E+02 -0.44404271598E+02 -0.93532561716E+02  0.10423164085E+03  0.47000000000E+01 0.  1.
         11    1    4    4    0    0 -0.65351775226E+02  0.75128230683E+01 -0.40609935682E+02  0.77307592847E+02  0.00000000000E+00 0. -1.
        -12    1    4    4    0    0 -0.68311428413E+01  0.43447472645E+02  0.96211790723E+01  0.45021266958E+02  0.00000000000E+00 0.  1.
</event>
<event>
12    1  0.1050869E+000  0.1831370E+03  0.7818608E-02  0.1165060E+00
         21   -1    0    0  503  502  0.00000000000E+00  0.00000000000E+00  0.25823158807E+03  0.25823158807E+03  0.00000000000E+00 0.  1.
         21   -1    0    0  501  503 -0.00000000000E+00 -0.00000000000E+00 -0.21307694852E+03  0.21307694852E+03  0.00000000000E+00 0.  1.
          6    2    1    2  501    0  0.12144017596E+02 -0.59906482149E+02  0.17055153963E+03  0.25025383917E+03  0.17263514296E+03 0.  0.
         24    2    3    3    0    0  0.53385093694E+02 -0.41829125086E+02  0.17504280935E+03  0.20475791958E+03  0.81769044217E+02 0.  0.
         -6    2    1    2    0  502 -0.12144017596E+02  0.59906482149E+02 -0.12539690008E+03  0.22105469741E+03  0.17147749978E+03 0.  0.
        -24    2    5    5    0    0  0.35404328176E+02 -0.38603090268E+01 -0.10880586190E+03  0.13966427174E+03  0.79993904627E+02 0.  0.
          5    1    3    3  501    0 -0.41241076098E+02 -0.18077357063E+02 -0.44912697178E+01  0.45495919595E+02  0.47000000000E+01 0. -1.
        -13    1    4    4    0    0  0.12071134818E+02  0.40800868719E+01  0.12394654521E+03  0.12459978119E+03  0.00000000000E+00 0.  1.
         14    1    4    4    0    0  0.41313958876E+02 -0.45909211958E+02  0.51096264143E+02  0.80158138388E+02  0.00000000000E+00 0. -1.
         -5    1    5    5    0  502 -0.47548345772E+02  0.63766791175E+02 -0.16591038179E+02  0.81390425667E+02  0.47000000000E+01 0.  1.
         11    1    6    6    0    0  0.16608626034E+02  0.24466839019E+02 -0.10037274350E+03  0.10463823541E+03  0.00000000000E+00 0. -1.
        -12    1    6    6    0    0  0.18795702142E+02 -0.28327148046E+02 -0.84331183962E+01  0.35026036334E+02  0.00000000000E+00 0.  1.
</event>
<event>
12    1  0.1050869E+000  0.4036861E+03  0.7818608E-02  0.1042578E+00
         21   -1    0    0  501  502  0.00000000000E+00  0.00000000000E+00  0.19617604049E+04  0.19617604049E+04  0.00000000000E+00 0. -1.
         21   -1    0    0  502  503 -0.00000000000E+00 -0.00000000000E+00 -0.87452797431E+02  0.87452797431E+02  0.00000000000E+00 0.  1.
         -6    2    1    2    0  503 -0.35624291333E+03  0.78026847110E+02  0.70269589193E+03  0.81000519791E+03  0.17125916598E+03 0.  0.
        -24    2    3    3    0    0 -0.17326826903E+03  0.71634213851E+02  0.47991078638E+03  0.52160291035E+03  0.81251951046E+02 0.  0.
          6    2    1    2  501    0  0.35624291333E+03 -0.78026847110E+02  0.11716117155E+04  0.12392080044E+04  0.17310477774E+03 0.  0.
         24    2    5    5    0    0  0.36690795794E+03 -0.59401854992E+02  0.10835103567E+04  0.11484083737E+04  0.81835626515E+02 0.  0.
          5    1    5    5  501    0 -0.10665044610E+02 -0.18624992118E+02  0.88101358805E+02  0.90799630677E+02  0.47000000000E+01 0. -1.
        -13    1    6    6    0    0  0.10703885431E+03 -0.34554812014E+02  0.23286448328E+03  0.25860630104E+03  0.00000000000E+00 0.  1.
         14    1    6    6    0    0  0.25986910363E+03 -0.24847042978E+02  0.85064587343E+03  0.88980207268E+03  0.00000000000E+00 0. -1.
         -5    1    3    3    0  503 -0.18297464430E+03  0.63926332592E+01  0.22278510555E+03  0.28840228756E+03  0.47000000000E+01 0.  1.
         13    1    4    4    0    0 -0.13915385656E+02 -0.15621605040E+02  0.73768478072E+02  0.76677642498E+02  0.00000000000E+00 0. -1.
        -14    1    4    4    0    0 -0.15935288338E+03  0.87255818892E+02  0.40614230831E+03  0.44492526785E+03  0.00000000000E+00 0.  1.
</event>
<event>
12    1  0.1050869E+000  0.3923612E+03  0.7818608E-02  0.1046457E+00
         21   -1    0    0  501  502  0.00000000000E+00  0.00000000000E+00  0.12844462095E+03  0.12844462095E+03  0.00000000000E+00 0.  1.
         21   -1    0    0  502  503 -0.00000000000E+00 -0.00000000000E+00 -0.13159972356E+04  0.13159972356E+04  0.00000000000E+00 0.  1.
         -6    2    1    2    0  503  0.23990380606E+03  0.25835710894E+03 -0.37801632698E+03  0.54483288883E+03  0.17217520550E+03 0.  0.
        -24    2    3    3    0    0  0.18707168805E+03  0.12464624558E+03 -0.29325955617E+03  0.37787292995E+03  0.79084011621E+02 0.  0.
          6    2    1    2  501    0 -0.23990380606E+03 -0.25835710894E+03 -0.80953628772E+03  0.89960896777E+03  0.17217741391E+03 0.  0.
         24    2    5    5    0    0 -0.61553941810E+02 -0.94803785977E+02 -0.40708184898E+03  0.42998142515E+03  0.79948412217E+02 0.  0.
          5    1    5    5  501    0 -0.17834986425E+03 -0.16355332296E+03 -0.40245443873E+03  0.46962754261E+03  0.47000000000E+01 0. -1.
        -11    1    6    6    0    0  0.38417288162E+01 -0.64853442257E+02 -0.16133195192E+03  0.17392161040E+03  0.00000000000E+00 0.  1.
         12    1    6    6    0    0 -0.65395670626E+02 -0.29950343721E+02 -0.24574989706E+03  0.25605981475E+03  0.00000000000E+00 0. -1.
         -5    1    3    3    0  503  0.52832118013E+02  0.13371086335E+03 -0.84756770810E+02  0.16695995888E+03  0.47000000000E+01 0.  1.
         11    1    4    4    0    0  0.67589414694E+02  0.92253408384E+02 -0.13434082537E+03  0.17642697554E+03  0.00000000000E+00 0. -1.
        -12    1    4    4    0    0  0.11948227335E+03  0.32392837198E+02 -0.15891873080E+03  0.20144595440E+03  0.00000000000E+00 0.  1.
</event>
<event>
12    1  0.1050869E+000  0.1878606E+03  0.7818608E-02  0.1162608E+00
         21   -1    0    0  501  502  0.00000000000E+00  0.00000000000E+00  0.84308567944E+02  0.84308567944E+02  0.00000000000E+00 0. -1.
         21   -1    0    0  502  503 -0.00000000000E+00 -0.00000000000E+00 -0.40126612976E+03  0.40126612976E+03  0.00000000000E+00 0. -1.
         -6    2    1    2    0  503  0.45627236351E+02 -0.13730958683E+02 -0.14057690219E+03  0.23463474108E+03  0.18171739698E+03 0.  0.
        -24    2    3    3    0    0  0.22234945680E+02 -0.15419862125E+02  0.83131211534E+01  0.83835600795E+02  0.78912198170E+02 0.  0.
          6    2    1    2  501    0 -0.45627236351E+02  0.13730958683E+02 -0.17638065962E+03  0.25093995663E+03  0.17201843163E+03 0.  0.
         24    2    5    5    0    0  0.23276234291E+01 -0.51839744710E+02 -0.85628410984E+02  0.12904965204E+03  0.81417510162E+02 0.  0.
          5    1    5    5  501    0 -0.47954859780E+02  0.65570703393E+02 -0.90752248637E+02  0.12189030459E+03  0.47000000000E+01 0. -1.
        -11    1    6    6    0    0 -0.91398432416E+01 -0.43655423058E+02 -0.99647838046E+02  0.10917428417E+03  0.00000000000E+00 0.  1.
         12    1    6    6    0    0  0.11467466671E+02 -0.81843216517E+01  0.14019427062E+02  0.19875367868E+02  0.00000000000E+00 0. -1.
         -5    1    3    3    0  503  0.23392290671E+02  0.16889034423E+01 -0.14889002335E+03  0.15079914028E+03  0.47000000000E+01 0.  1.
         11    1    4    4    0    0  0.40036946170E+02 -0.34603091889E+02 -0.72105264487E+01  0.53407141082E+02  0.00000000000E+00 0. -1.
        -12    1    4    4    0    0 -0.17802000490E+02  0.19183229764E+02  0.15523647602E+02  0.30428459713E+02  0.00000000000E+00 0.  1.
</event>
<event>
12    1  0.1050869E+000  0.1806538E+03  0.7818608E-02  0.1168002E+00
         21   -1    0    0  501  502  0.00000000000E+00  0.00000000000E+00  0.94703062001E+02  0.94703062001E+02  0.00000000000E+00 0.  1.
         21   -1    0    0  502  503 -0.00000000000E+00 -0.00000000000E+00 -0.14784301721E+04  0.14784301721E+04  0.00000000000E+00 0.  1.
         -6    2    1    2    0  503  0.89311289458E+01 -0.41111643854E+02  0.42656281748E+00  0.17724026932E+03  0.17217432674E+03 0.  0.
        -24    2    3    3    0    0  0.25027745758E+02 -0.85579620688E+01  0.65042316229E+02  0.10296962331E+03  0.75316755449E+02 0.  0.
          6    2    1    2  501    0 -0.89311289458E+01  0.41111643854E+02 -0.13841536729E+04  0.13958929648E+04  0.17568678534E+03 0.  0.
         24    2    5    5    0    0  0.39799114047E+00  0.82152136900E+01 -0.13234119451E+04  0.13260298479E+04  0.82875406643E+02 0.  0.
          5    1    5    5  501    0 -0.93291200863E+01  0.32896430164E+02 -0.60741727878E+02  0.69863116912E+02  0.47000000000E+01 0. -1.
        -11    1    6    6    0    0  0.61146593279E+01  0.85540487436E+01 -0.13183343510E+04  0.13183762823E+04  0.00000000000E+00 0.  1.
         12    1    6    6    0    0 -0.57166681875E+01 -0.33883505357E+00 -0.50775941008E+01  0.76535655881E+01  0.00000000000E+00 0. -1.
         -5    1    3    3    0  503 -0.16096616813E+02 -0.32553681786E+02 -0.64615753412E+02  0.74270646016E+02  0.47000000000E+01 0.  1.
         11    1    4    4    0    0 -0.36770931449E+01  0.14022076937E+02 -0.11274299033E+02  0.18364353360E+02  0.00000000000E+00 0. -1.
        -12    1    4    4    0    0  0.28704838903E+02 -0.22580039006E+02  0.76316615262E+02  0.84605269949E+02  0.00000000000E+00 0.  1.
</event>
<event>
12    1  0.1050869E+000  0.1844454E+03  0.7818608E-02  0.1163883E+00
         21   -1    0    0  501  502  0.00000000000E+00  0.00000000000E+00  0.61164220656E+03  0.61164220656E+03  0.00000000000E+00 0.  1.
         21   -1    0    0  502  503 -0.00000000000E+00 -0.00000000000E+00 -0.55742102718E+02  0.55742102718E+02  0.00000000000E+00 0.  1.
         -6    2    1    2    0  503  0.35195717865E+02  0.56933835457E+02  0.31128000777E+03  0.36182224058E+03  0.17187172649E+03 0.  0.
        -24    2    3    3    0    0  0.26593913410E+02 -0.15347587598E+01  0.60779508413E+02  0.10440204377E+03  0.80598054474E+02 0.  0.
          6    2    1    2  501    0 -0.35195717865E+02 -0.56933835457E+02  0.24462009607E+03  0.30556206870E+03  0.17043763155E+03 0.  0.
         24    2    5    5    0    0  0.32785244941E+01 -0.70309528704E+02  0.78690911640E+02  0.13464173421E+03  0.83558114309E+02 0.  0.
          5    1    5    5  501    0 -0.38474242359E+02  0.13375693247E+02  0.16592918443E+03  0.17092033449E+03  0.47000000000E+01 0. -1.
        -11    1    6    6    0    0  0.42929191388E+02 -0.32537187846E+02  0.46208275608E+02  0.70970337471E+02  0.00000000000E+00 0.  1.
         12    1    6    6    0    0 -0.39650666894E+02 -0.37772340858E+02  0.32482636032E+02  0.63671396738E+02  0.00000000000E+00 0. -1.
         -5    1    3    3    0  503  0.86018044550E+01  0.58468594217E+02  0.25050049936E+03  0.25742019682E+03  0.47000000000E+01 0.  1.
         13    1    4    4    0    0 -0.87383840733E+01  0.30942091430E+02  0.41938780363E+02  0.52845375168E+02  0.00000000000E+00 0. -1.
        -14    1    4    4    0    0  0.35332297483E+02 -0.32476850190E+02  0.18840728050E+02  0.51556668600E+02  0.00000000000E+00 0.  1.
</event>
<event>
12    1  0.1050869E+000  0.2476977E+03  0.7818608E-02  0.1114896E+00
         21   -1    0    0  501  502  0.00000000000E+00  0.00000000000E+00  0.70005786740E+03  0.70005786740E+03  0.00000000000E+00 0. -1.
         21   -1    0    0  502  503 -0.00000000000E+00 -0.00000000000E+00 -0.10898666213E+03  0.10898666213E+03  0.00000000000E+00 0. -1.
         -6    2    1    2    0  503  0.13789043171E+03  0.11325472523E+03  0.11571959187E+03  0.27339562094E+03  0.17179562760E+03 0.  0.
        -24    2    3    3    0    0  0.15463041255E+03  0.49990613854E+02  0.96051903220E+02  0.20490122172E+03  0.79680089060E+02 0.  0.
          6    2    1    2  501    0 -0.13789043171E+03 -0.11325472523E+03  0.47535161340E+03  0.53564890860E+03  0.17064639748E+03 0.  0.
         24    2    5    5    0    0 -0.11771047133E+03 -0.14501583597E+03  0.43608475363E+03  0.48105975919E+03  0.79769867889E+02 0.  0.
          5    1    5    5  501    0 -0.20179960372E+02  0.31761110742E+02  0.39266859773E+02  0.54589149403E+02  0.47000000000E+01 0. -1.
        -11    1    6    6    0    0 -0.11583476826E+03 -0.86628363593E+02  0.30656172512E+03  0.33897235614E+03  0.00000000000E+00 0.  1.
         12    1    6    6    0    0 -0.18757030706E+01 -0.58387472377E+02  0.12952302851E+03  0.14208740305E+03  0.00000000000E+00 0. -1.
         -5    1    3    3    0  503 -0.16739980847E+02  0.63264111374E+02  0.19667688647E+02  0.68494399212E+02  0.47000000000E+01 0.  1.
         13    1    4    4    0    0  0.58856724741E+02 -0.18888911735E+02  0.44465024370E+02  0.76144884437E+02  0.00000000000E+00 0. -1.
        -14    1    4    4    0    0  0.95773687811E+02  0.68879525588E+02  0.51586878850E+02  0.12875633729E+03  0.00000000000E+00 0.  1.
</event>
<event>
12    1  0.1050869E+000  0.1875186E+03  0.7818608E-02  0.1160794E+00
         21   -1    0    0  503  502  0.00000000000E+00  0.00000000000E+00  0.53136758474E+03  0.53136758474E+03  0.00000000000E+00 0.  1.
         21   -1    0    0  501  503 -0.00000000000E+00 -0.00000000000E+00 -0.66083383779E+02  0.66083383779E+02  0.00000000000E+00 0.  1.
          6    2    1    2  501    0 -0.43517790094E+02  0.60327353457E+02  0.22678783711E+03  0.29406382905E+03  0.17177783577E+03 0.  0.
         24    2    3    3    0    0 -0.86669478677E+02  0.69218014545E+02  0.19758365935E+03  0.24099702133E+03  0.82082457192E+02 0.  0.
         -6    2    1    2    0  502  0.43517790094E+02 -0.60327353457E+02  0.23849636384E+03  0.30338713947E+03  0.17213382352E+03 0.  0.
        -24    2    5    5    0    0  0.78745834534E+02 -0.84437584316E+02  0.15337921493E+03  0.20804912299E+03  0.80178812053E+02 0.  0.
          5    1    3    3  501    0  0.43151688582E+02 -0.88906610873E+01  0.29204177765E+02  0.53066807715E+02  0.47000000000E+01 0. -1.
        -11    1    4    4    0    0 -0.88353409618E+02  0.22505450404E+02  0.12698286972E+03  0.15632488442E+03  0.00000000000E+00 0.  1.
         12    1    4    4    0    0  0.16839309417E+01  0.46712564141E+02  0.70600789634E+02  0.84672136910E+02  0.00000000000E+00 0. -1.
         -5    1    5    5    0  502 -0.35228044439E+02  0.24110230859E+02  0.85117148908E+02  0.95338016475E+02  0.47000000000E+01 0.  1.
         13    1    6    6    0    0  0.19414243171E+02 -0.99902668632E+00  0.79374708560E+02  0.81720592577E+02  0.00000000000E+00 0. -1.
        -14    1    6    6    0    0  0.59331591363E+02 -0.83438557630E+02  0.74004506374E+02  0.12632853041E+03  0.00000000000E+00 0.  1.
</event>
<event>
12    1  0.1050869E+000  0.2447433E+03  0.7818608E-02  0.1117021E+00
         21   -1    0    0  501  502  0.00000000000E+00  0.00000000000E+00  0.43508373338E+03  0.43508373338E+03  0.00000000000E+00 0.  1.
         21   -1    0    0  502  503 -0.00000000000E+00 -0.00000000000E+00 -0.13902000601E+03  0.13902000601E+03  0.00000000000E+00 0.  1.
         -6    2    1    2    0  503  0.15575464483E+03  0.74308318111E+02  0.10855535272E+03  0.26578785132E+03  0.17052179268E+03 0.  0.
        -24    2    3    3    0    0  0.13543694138E+03  0.90232943168E+02  0.29707240181E+02  0.18268840723E+03  0.77507321558E+02 0.  0.
          6    2    1    2  501    0 -0.15575464483E+03 -0.74308318111E+02  0.18750837465E+03  0.30831588807E+03  0.17354555812E+03 0.  0.
         24    2    5    5    0    0 -0.55497375605E+02  0.21854822410E+02  0.11291798458E+03  0.15056708167E+03  0.79764546515E+02 0.  0.
          5    1    5    5  501    0 -0.10025726923E+03 -0.96163140521E+02  0.74590390075E+02  0.15774880640E+03  0.47000000000E+01 0. -1.
        -11    1    6    6    0    0 -0.25172477429E+02 -0.16696190366E+02  0.31883713037E+01  0.30374036680E+02  0.00000000000E+00 0.  1.
         12    1    6    6    0    0 -0.30324898176E+02  0.38551012776E+02  0.10972961327E+03  0.12019304499E+03  0.00000000000E+00 0. -1.
         -5    1    3    3    0  503  0.20317703453E+02 -0.15924625057E+02  0.78848112537E+02  0.83099444087E+02  0.47000000000E+01 0.  1.
         11    1    4    4    0    0  0.52863276724E+02  0.57672158815E+02  0.48378742675E+02  0.91984274043E+02  0.00000000000E+00 0. -1.
        -12    1    4    4    0    0  0.82573664654E+02  0.32560784352E+02 -0.18671502494E+02  0.90704133189E+02  0.00000000000E+00 0.  1.
</event>
<event>
12    1  0.1050869E+000  0.2354852E+03  0.7818608E-02  0.1123276E+00
         21   -1    0    0  503  502  0.00000000000E+00  0.00000000000E+00  0.14950865781E+03  0.14950865781E+03  0.00000000000E+00 0.  1.
         21   -1    0    0  501  503 -0.00000000000E+00 -0.00000000000E+00 -0.36965166546E+03  0.36965166546E+03  0.00000000000E+00 0.  1.
          6    2    1    2  501    0  0.15057388665E+03  0.48438770050E+02 -0.88247026049E+02  0.25147726713E+03  0.17445477492E+03 0.  0.
         24    2    3    3    0    0  0.90132688016E+02 -0.16662647780E+02  0.78257552410E+01  0.12054445077E+03  0.77898503749E+02 0.  0.
         -6    2    1    2    0  502 -0.15057388665E+03 -0.48438770050E+02 -0.13189598161E+03  0.26768305614E+03  0.17099373905E+03 0.  0.
        -24    2    5    5    0    0 -0.62262225480E+02  0.37347184320E+02 -0.64348497202E+02  0.12717351157E+03  0.82225154628E+02 0.  0.
          5    1    3    3  501    0  0.60441198637E+02  0.65101417830E+02 -0.96072781290E+02  0.13093281636E+03  0.47000000000E+01 0. -1.
        -11    1    4    4    0    0  0.94391687032E+02  0.82937578192E+01  0.91264361288E+01  0.95193848730E+02  0.00000000000E+00 0.  1.
         12    1    4    4    0    0 -0.42589990159E+01 -0.24956405599E+02 -0.13006808878E+01  0.25350602041E+02  0.00000000000E+00 0. -1.
         -5    1    5    5    0  502 -0.88311661174E+02 -0.85785954370E+02 -0.67547484405E+02  0.14050954457E+03  0.47000000000E+01 0.  1.
         11    1    6    6    0    0 -0.21979540837E+02  0.69118394964E+01  0.18907380888E+02  0.29805415493E+02  0.00000000000E+00 0. -1.
        -12    1    6    6    0    0 -0.40282684642E+02  0.30435344823E+02 -0.83255878090E+02  0.97368096074E+02  0.00000000000E+00 0.  1.
</event>
<event>
12    1  0.1050869E+000  0.2109446E+03  0.7818608E-02  0.1142539E+00
         21   -1    0    0  501  502  0.00000000000E+00  0.00000000000E+00  0.12961909118E+04  0.12961909118E+04  0.00000000000E+00 0.  1.
         21   -1    0    0  502  503 -0.00000000000E+00 -0.00000000000E+00 -0.61221001208E+02  0.61221001208E+02  0.00000000000E+00 0.  1.
         -6    2    1    2    0  503  0.10635599869E+03 -0.10473108013E+02  0.16322102658E+03  0.26671845510E+03  0.18186903619E+03 0.  0.
        -24    2    3    3    0    0  0.13356353191E+03  0.31946256628E+02  0.11592715134E+03  0.19744758825E+03  0.81772032601E+02 0.  0.
          6    2    1    2  501    0 -0.10635599869E+03  0.10473108013E+02  0.10717488840E+04  0.10906934579E+04  0.17188735927E+03 0.  0.
         24    2    5    5    0    0 -0.12306454755E+03 -0.12942065970E+02  0.55865759513E+03  0.57677497535E+03  0.72516781939E+02 0.  0.
          5    1    5    5  501    0  0.16708548857E+02  0.23415173984E+02  0.51309128884E+03  0.51391848251E+03  0.47000000000E+01 0. -1.
        -11    1    6    6    0    0 -0.25318774174E+02 -0.66566047094E+01  0.33268445569E+02  0.42333676695E+02  0.00000000000E+00 0.  1.
         12    1    6    6    0    0 -0.97745773377E+02 -0.62854612610E+01  0.52538914956E+03  0.53444129866E+03  0.00000000000E+00 0. -1.
         -5    1    3    3    0  503 -0.27207533220E+02 -0.42419364641E+02  0.47293875234E+02  0.69270866857E+02  0.47000000000E+01 0.  1.
         13    1    4    4    0    0  0.14981206366E+02  0.37483584506E+02  0.21334488061E+02  0.45657595561E+02  0.00000000000E+00 0. -1.
        -14    1    4    4    0    0  0.11858232555E+03 -0.55373278784E+01  0.94592663282E+02  0.15178999268E+03  0.00000000000E+00 0.  1.
</event>
<event>
12    1  0.1050869E+000  0.2613178E+03  0.7818608E-02  0.1106405E+00
         21   -1    0    0  503  502  0.00000000000E+00  0.00000000000E+00  0.16446479174E+03  0.16446479174E+03  0.00000000000E+00 0.  1.
         21   -1    0    0  501  503 -0.00000000000E+00 -0.00000000000E+00 -0.58681829729E+03  0.58681829729E+03  0.00000000000E+00 0.  1.
          6    2    1    2  501    0  0.12968292073E+02  0.19660405299E+03 -0.41454032510E+03  0.48984848692E+03  0.17113307324E+03 0.  0.
         24    2    3    3    0    0  0.57081155293E+02  0.11121568952E+03 -0.32899724050E+03  0.36109746114E+03  0.80777498710E+02 0.  0.
         -6    2    1    2    0  502 -0.12968292073E+02 -0.19660405299E+03 -0.78131804468E+01  0.26143460210E+03  0.17165568774E+03 0.  0.
        -24    2    5    5    0    0 -0.28497116391E+02 -0.21443215870E+03 -0.25090168472E+02  0.23177705579E+03  0.79358998900E+02 0.  0.
          5    1    3    3  501    0 -0.44112863220E+02  0.85388363472E+02 -0.85543084598E+02  0.12875102578E+03  0.47000000000E+01 0. -1.
        -13    1    4    4    0    0  0.25279147646E+02  0.11369399020E+03 -0.26944040968E+03  0.29353618700E+03  0.00000000000E+00 0.  1.
         14    1    4    4    0    0  0.31802007647E+02 -0.24783006859E+01 -0.59556830828E+02  0.67561274136E+02  0.00000000000E+00 0. -1.
         -5    1    5    5    0  502  0.15528824318E+02  0.17828105714E+02  0.17276988025E+02  0.29657546312E+02  0.47000000000E+01 0.  1.
         13    1    6    6    0    0 -0.51709863450E+02 -0.11165244496E+03 -0.28694753789E+02  0.12634701159E+03  0.00000000000E+00 0. -1.
        -14    1    6    6    0    0  0.23212747059E+02 -0.10277971375E+03  0.36045853174E+01  0.10543004420E+03  0.00000000000E+00 0.  1.
</event>
<event>
12    1  0.1050869E+000  0.2528220E+03  0.7818608E-02  0.1111537E+00
         21   -1    0    0  503  502  0.00000000000E+00  0.00000000000E+00  0.65796860968E+03  0.65796860968E+03  0.00000000000E+00 0.  1.
         21   -1    0    0  501  503 -0.00000000000E+00 -0.00000000000E+00 -0.15953348030E+03  0.15953348030E+03  0.00000000000E+00 0. -1.
          6    2    1    2  501    0 -0.83378225817E+02  0.16548507023E+03 -0.64123865407E+01  0.25288719232E+03  0.17196969596E+03 0.  0.
         24    2    3    3    0    0 -0.39433732167E+01  0.71560272246E+02 -0.50162718614E+02  0.12224284671E+03  0.85384966334E+02 0.  0.
         -6    2    1    2    0  502  0.83378225817E+02 -0.16548507023E+03  0.50484751591E+03  0.56461489766E+03  0.17199340490E+03 0.  0.
        -24    2    5    5    0    0  0.55530843816E+02 -0.12406453366E+03  0.48620752715E+03  0.51112960328E+03  0.79875082272E+02 0.  0.
          5    1    3    3  501    0 -0.79434852600E+02  0.93924797984E+02  0.43750332073E+02  0.13064434561E+03  0.47000000000E+01 0. -1.
        -13    1    4    4    0    0 -0.32389437942E+02  0.68601569990E+02 -0.15721375148E+02  0.77475239476E+02  0.00000000000E+00 0.  1.
         14    1    4    4    0    0  0.28446064725E+02  0.29587022557E+01 -0.34441343466E+02  0.44767607230E+02  0.00000000000E+00 0. -1.
         -5    1    5    5    0  502  0.27847382001E+02 -0.41420536569E+02  0.18639988765E+02  0.53485294382E+02  0.47000000000E+01 0.  1.
         11    1    6    6    0    0  0.32465997717E+02 -0.25223767754E+01  0.76240187347E+02  0.82903374835E+02  0.00000000000E+00 0. -1.
        -12    1    6    6    0    0  0.23064846100E+02 -0.12154215689E+03  0.40996733980E+03  0.42822622845E+03  0.00000000000E+00 0.  1.
</event>
<event>
12    1  0.1050869E+000  0.3585000E+03  0.7818608E-02  0.1059215E+00
         21   -1    0    0  501  502  0.00000000000E+00  0.00000000000E+00  0.27821340374E+03  0.27821340374E+03  0.00000000000E+00 0.  1.
         21   -1    0    0  502  503 -0.00000000000E+00 -0.00000000000E+00 -0.46447893763E+03  0.46447893763E+03  0.00000000000E+00 0.  1.
         -6    2    1    2    0  503 -0.80447996831E+02  0.30409001520E+03 -0.12294302077E+03  0.37899508109E+03  0.17198740535E+03 0.  0.
        -24    2    3    3    0    0 -0.37999465448E+01  0.54573502317E+02 -0.28035084814E+02  0.10121275602E+03  0.80407395509E+02 0.  0.
          6    2    1    2  501    0  0.80447996831E+02 -0.30409001520E+03 -0.63322513121E+02  0.36369726028E+03  0.17124058785E+03 0.  0.
         24    2    5    5    0    0 -0.65136185499E+01 -0.24500200011E+03 -0.37227672484E+02  0.25526872720E+03  0.60891840205E+02 0.  0.
          5    1    5    5  501    0  0.86961615381E+02 -0.59088015089E+02 -0.26094840636E+02  0.10842853307E+03  0.47000000000E+01 0. -1.
        -11    1    6    6    0    0 -0.31109018104E+02 -0.14688027331E+03 -0.34617284314E+02  0.15407771438E+03  0.00000000000E+00 0.  1.
         12    1    6    6    0    0  0.24595399554E+02 -0.98121726796E+02 -0.26103881702E+01  0.10119101282E+03  0.00000000000E+00 0. -1.
         -5    1    3    3    0  503 -0.76648050287E+02  0.24951651288E+03 -0.94907935956E+02  0.27778232507E+03  0.47000000000E+01 0.  1.
         11    1    4    4    0    0 -0.22772123457E+02  0.67886596682E+02 -0.30650510212E+02  0.77888467645E+02  0.00000000000E+00 0. -1.
        -12    1    4    4    0    0  0.18972176912E+02 -0.13313094365E+02  0.26154253975E+01  0.23324288379E+02  0.00000000000E+00 0.  1.
</event>
<event>
12    1  0.1050869E+000  0.2312882E+03  0.7818608E-02  0.1125787E+00
         21   -1    0    0  501  502  0.00000000000E+00  0.00000000000E+00  0.97755690224E+02  0.97755690224E+02  0.00000000000E+00 0. -1.
         21   -1    0    0  502  503 -0.00000000000E+00 -0.00000000000E+00 -0.59430677544E+03  0.59430677544E+03  0.00000000000E+00 0. -1.
         -6    2    1    2    0  503 -0.12393245330E+02  0.15434098573E+03 -0.15002896719E+03  0.27544297821E+03  0.17142173387E+03 0.  0.
        -24    2    3    3    0    0  0.89822063964E+01  0.16528057953E+03 -0.78607468283E+02  0.19994658654E+03  0.80007208404E+02 0.  0.
          6    2    1    2  501    0  0.12393245330E+02 -0.15434098573E+03 -0.34652211804E+03  0.41661948746E+03  0.17181235881E+03 0.  0.
         24    2    5    5    0    0  0.44975464564E+02 -0.99238371960E+02 -0.11084665044E+03  0.17235955403E+03  0.74496906444E+02 0.  0.
          5    1    5    5  501    0 -0.32582219234E+02 -0.55102613767E+02 -0.23567546759E+03  0.24425993343E+03  0.47000000000E+01 0. -1.
        -11    1    6    6    0    0 -0.26149323826E+01 -0.62845739345E+02 -0.25025561432E+02  0.67695668622E+02  0.00000000000E+00 0.  1.
         12    1    6    6    0    0  0.47590396946E+02 -0.36392632615E+02 -0.85821089012E+02  0.10466388541E+03  0.00000000000E+00 0. -1.
         -5    1    3    3    0  503 -0.21375451726E+02 -0.10939593808E+02 -0.71421498902E+02  0.75496391666E+02  0.47000000000E+01 0.  1.
         11    1    4    4    0    0 -0.11645123776E+02  0.16184601803E+03 -0.63957544329E+02  0.17441419075E+03  0.00000000000E+00 0. -1.
        -12    1    4    4    0    0  0.20627330173E+02  0.34345615052E+01 -0.14649923954E+02  0.25532395787E+02  0.00000000000E+00 0.  1.
</event>
<event>
12    1  0.1050869E+000  0.1894497E+03  0.7818608E-02  0.1159546E+00
         21   -1    0    0  501  502  0.00000000000E+00  0.00000000000E+00  0.37051339690E+03  0.37051339690E+03  0.00000000000E+00 0. -1.
         21   -1    0    0  502  503 -0.00000000000E+00 -0.00000000000E+00 -0.96748336930E+02  0.96748336930E+02  0.00000000000E+00 0. -1.
         -6    2    1    2    0  503  0.32982785043E+02  0.71946710975E+02  0.11188175554E+03  0.22001982060E+03  0.17212495724E+03 0.  0.
        -24    2    3    3    0    0  0.79757488978E+02  0.24421781668E+02  0.37545598824E+02  0.12004759431E+03  0.77743632806E+02 0.  0.
          6    2    1    2  501    0 -0.32982785043E+02 -0.71946710975E+02  0.16188330444E+03  0.24724191323E+03  0.16928722951E+03 0.  0.
         24    2    5    5    0    0  0.37963940816E+02 -0.57558823396E+02  0.14181252151E+03  0.17197322422E+03  0.68627397125E+02 0.  0.
          5    1    5    5  501    0 -0.70946725859E+02 -0.14387887579E+02  0.20070782923E+02  0.75268689016E+02  0.47000000000E+01 0. -1.
        -13    1    6    6    0    0  0.16863572207E+02 -0.21253740356E+02  0.34146398708E+01  0.27345224668E+02  0.00000000000E+00 0.  1.
         14    1    6    6    0    0  0.21100368609E+02 -0.36305083040E+02  0.13839788164E+03  0.14462799955E+03  0.00000000000E+00 0. -1.
         -5    1    3    3    0  503 -0.46774703935E+02  0.47524929307E+02  0.74336156713E+02  0.99972226287E+02  0.47000000000E+01 0.  1.
         11    1    4    4    0    0  0.41065260377E+02  0.41752103076E+02 -0.64886929279E+01  0.58921107058E+02  0.00000000000E+00 0. -1.
        -12    1    4    4    0    0  0.38692228601E+02 -0.17330321408E+02  0.44034291752E+02  0.61126487257E+02  0.00000000000E+00 0.  1.
</event>
<event>
12    1  0.1050869E+000  0.2877548E+03  0.7818608E-02  0.1091532E+00
         21   -1    0    0  501  502  0.00000000000E+00  0.00000000000E+00  0.16214612190E+03  0.16214612190E+03  0.00000000000E+00 0.  1.
         21   -1    0    0  502  503 -0.00000000000E+00 -0.00000000000E+00 -0.11274043524E+04  0.11274043524E+04  0.00000000000E+00 0.  1.
         -6    2    1    2    0  503 -0.20748063668E+03 -0.10104356263E+03 -0.56964065079E+01  0.28777118406E+03  0.17181905943E+03 0.  0.
        -24    2    3    3    0    0 -0.21051089435E+03 -0.97178623424E+02 -0.41119065289E+02  0.25170215342E+03  0.88908239290E+02 0.  0.
          6    2    1    2  501    0  0.20748063668E+03  0.10104356263E+03 -0.95956182397E+03  0.10017792902E+04  0.17188611391E+03 0.  0.
         24    2    5    5    0    0  0.12050011568E+03  0.10595329752E+03 -0.80077623636E+03  0.82060349338E+03  0.80007084015E+02 0.  0.
          5    1    5    5  501    0  0.86980521000E+02 -0.49097348874E+01 -0.15878558761E+03  0.18117579685E+03  0.47000000000E+01 0. -1.
        -13    1    6    6    0    0  0.12466591313E+03  0.69836721091E+02 -0.64579365052E+03  0.66141378619E+03  0.00000000000E+00 0.  1.
         14    1    6    6    0    0 -0.41657974509E+01  0.36116576431E+02 -0.15498258584E+03  0.15918970719E+03  0.00000000000E+00 0. -1.
         -5    1    3    3    0  503  0.30302576680E+01 -0.38649392106E+01  0.35422658781E+02  0.36069030647E+02  0.47000000000E+01 0.  1.
         13    1    4    4    0    0 -0.86348868671E+02 -0.81380960593E+02 -0.43880130579E+02  0.12650871009E+03  0.00000000000E+00 0. -1.
        -14    1    4    4    0    0 -0.12416202568E+03 -0.15797662831E+02  0.27610652897E+01  0.12519344333E+03  0.00000000000E+00 0.  1.
</event>
<event>
12    1  0.1050869E+000  0.1799247E+03  0.7818608E-02  0.1169366E+00
         21   -1    0    0  503  502  0.00000000000E+00  0.00000000000E+00  0.50438003875E+02  0.50438003875E+02  0.00000000000E+00 0. -1.
         21   -1    0    0  501  503 -0.00000000000E+00 -0.00000000000E+00 -0.62180264072E+03  0.62180264072E+03  0.00000000000E+00 0. -1.
          6    2    1    2  501    0 -0.35002721285E+00 -0.29144977836E+02 -0.30620665130E+03  0.35515546632E+03  0.17754813349E+03 0.  0.
         24    2    3    3    0    0  0.15426228237E+02  0.39798749897E+02 -0.96041188342E+02  0.13335884856E+03  0.82089972717E+02 0.  0.
         -6    2    1    2    0  502  0.35002721285E+00  0.29144977836E+02 -0.26515798555E+03  0.31708517828E+03  0.17141966261E+03 0.  0.
        -24    2    5    5    0    0 -0.12757054454E+02  0.52791254233E+02 -0.27214542014E+03  0.28876811241E+03  0.79838800589E+02 0.  0.
          5    1    3    3  501    0 -0.15776255450E+02 -0.68943727733E+02 -0.21016546296E+03  0.22179661776E+03  0.47000000000E+01 0. -1.
        -13    1    4    4    0    0  0.16564998465E+02  0.18639625887E+02  0.87648943460E+01  0.26432143315E+02  0.00000000000E+00 0.  1.
         14    1    4    4    0    0 -0.11387702277E+01  0.21159124010E+02 -0.10480608269E+03  0.10692670525E+03  0.00000000000E+00 0. -1.
         -5    1    5    5    0  502  0.13107081667E+02 -0.23646276397E+02  0.69874345898E+01  0.28317065868E+02  0.47000000000E+01 0.  1.
         11    1    6    6    0    0 -0.40795050477E+01 -0.18298134529E+02 -0.10893085310E+03  0.11053232489E+03  0.00000000000E+00 0. -1.
        -12    1    6    6    0    0 -0.86775494063E+01  0.71089388762E+02 -0.16321456704E+03  0.17823578752E+03  0.00000000000E+00 0.  1.
</event>
<event>
12    1  0.1050869E+000  0.3329319E+03  0.7818608E-02  0.1070213E+00
         21   -1    0    0  501  502  0.00000000000E+00  0.00000000000E+00  0.94646868334E+03  0.94646868334E+03  0.00000000000E+00 0.  1.
         21   -1    0    0  502  503 -0.00000000000E+00 -0.00000000000E+00 -0.21688313421E+03  0.21688313421E+03  0.00000000000E+00 0.  1.
         -6    2    1    2    0  503  0.24697162706E+03 -0.13540606745E+03 -0.33006097162E+02  0.33125225728E+03  0.17119832893E+03 0.  0.
        -24    2    3    3    0    0  0.20235132074E+03 -0.93662905775E+02  0.35825477048E+02  0.23909294472E+03  0.78505888242E+02 0.  0.
          6    2    1    2  501    0 -0.24697162706E+03  0.13540606745E+03  0.76259164629E+03  0.83209956026E+03  0.17752146775E+03 0.  0.
         24    2    5    5    0    0 -0.74948154924E+02  0.31416374443E+02  0.41658843544E+03  0.43191679809E+03  0.80012382908E+02 0.  0.
          5    1    5    5  501    0 -0.17202347214E+03  0.10398969301E+03  0.34600321085E+03  0.40018276217E+03  0.47000000000E+01 0. -1.
        -11    1    6    6    0    0 -0.98323710691E+00  0.29565095609E+02  0.51363238094E+02  0.59272623201E+02  0.00000000000E+00 0.  1.
         12    1    6    6    0    0 -0.73964917817E+02  0.18512788335E+01  0.36522519735E+03  0.37264417489E+03  0.00000000000E+00 0. -1.
         -5    1    3    3    0  503  0.44620306324E+02 -0.41743161678E+02 -0.68831574209E+02  0.92159312559E+02  0.47000000000E+01 0.  1.
         11    1    4    4    0    0  0.12518349739E+03 -0.75135863751E+02 -0.11903145387E+02  0.14648546313E+03  0.00000000000E+00 0. -1.
        -12    1    4    4    0    0  0.77167823352E+02 -0.18527042024E+02  0.47728622434E+02  0.92607481590E+02  0.00000000000E+00 0.  1.
</event>
<event>
12    1  0.1050869E+000  0.1828629E+03  0.7818608E-02  0.1165076E+00
         21   -1    0    0  503  502  0.00000000000E+00  0.00000000000E+00  0.52525354001E+02  0.52525354001E+02  0.00000000000E+00 0.  1.
         21   -1    0    0  501  503 -0.00000000000E+00 -0.00000000000E+00 -0.14933823633E+04  0.14933823633E+04  0.00000000000E+00 0.  1.
          6    2    1    2  501    0 -0.62434843741E+02 -0.52002591055E+01 -0.13483743965E+03  0.22714846306E+03  0.17172692489E+03 0.  0.
         24    2    3    3    0    0  0.58747688218E+01 -0.55649627522E+02 -0.85270067487E+02  0.12870885556E+03  0.78508541812E+02 0.  0.
         -6    2    1    2    0  502  0.62434843741E+02  0.52002591055E+01 -0.13060195697E+04  0.13187592543E+04  0.17179552362E+03 0.  0.
        -24    2    5    5    0    0  0.97699413602E+02 -0.20679471193E+02 -0.11354314776E+04  0.11425896272E+04  0.79583918090E+02 0.  0.
          5    1    3    3  501    0 -0.68309612563E+02  0.50449368416E+02 -0.49567372165E+02  0.98439607503E+02  0.47000000000E+01 0. -1.
        -11    1    4    4    0    0  0.35903388101E+02 -0.14574654830E+02 -0.61166794206E+02  0.72407531058E+02  0.00000000000E+00 0.  1.
         12    1    4    4    0    0 -0.30028619279E+02 -0.41074972691E+02 -0.24103273281E+02  0.56301324498E+02  0.00000000000E+00 0. -1.
         -5    1    5    5    0  502 -0.35264569861E+02  0.25879730298E+02 -0.17058809212E+03  0.17616962706E+03  0.47000000000E+01 0.  1.
         13    1    6    6    0    0  0.61802738317E+02 -0.44015479813E+01 -0.30534172279E+03  0.31156463176E+03  0.00000000000E+00 0. -1.
        -14    1    6    6    0    0  0.35896675285E+02 -0.16277923211E+02 -0.83008975478E+03  0.83102499545E+03  0.00000000000E+00 0.  1.
</event>
<event>
12    1  0.1050869E+000  0.1949933E+03  0.7818608E-02  0.1154281E+00
         21   -1    0    0  503  502  0.00000000000E+00  0.00000000000E+00  0.30433635261E+03  0.30433635261E+03  0.00000000000E+00 0. -1.
         21   -1    0    0  501  503 -0.00000000000E+00 -0.00000000000E+00 -0.18631033022E+03  0.18631033022E+03  0.00000000000E+00 0. -1.
          6    2    1    2  501    0  0.64814185125E+02  0.62539678617E+02  0.20075985217E+03  0.27986942265E+03  0.17294590339E+03 0.  0.
         24    2    3    3    0    0  0.51180334261E+02  0.10641922558E+03  0.11522947699E+03  0.18266432192E+03  0.78383314211E+02 0.  0.
         -6    2    1    2    0  502 -0.64814185125E+02 -0.62539678617E+02 -0.82733829780E+02  0.21077726018E+03  0.17166850854E+03 0.  0.
        -24    2    5    5    0    0 -0.68051815974E+02  0.48107115096E+01 -0.10742720119E+03  0.13881609082E+03  0.55453682593E+02 0.  0.
          5    1    3    3  501    0  0.13633850864E+02 -0.43879546960E+02  0.85530375175E+02  0.97205100732E+02  0.47000000000E+01 0. -1.
        -13    1    4    4    0    0  0.24079727660E+02  0.39579520519E+01 -0.21731730514E+01  0.24499415293E+02  0.00000000000E+00 0.  1.
         14    1    4    4    0    0  0.27100606601E+02  0.10246127353E+03  0.11740265004E+03  0.15816490663E+03  0.00000000000E+00 0. -1.
         -5    1    5    5    0  502  0.32376308489E+01 -0.67350390127E+02  0.24693371410E+02  0.71961169358E+02  0.47000000000E+01 0.  1.
         11    1    6    6    0    0 -0.66846864348E+02  0.77784536554E+01 -0.56732669578E+02  0.88020471551E+02  0.00000000000E+00 0. -1.
        -12    1    6    6    0    0 -0.12049516252E+01 -0.29677421458E+01 -0.50694531612E+02  0.50795619272E+02  0.00000000000E+00 0.  1.
</event>
<event>
12    1  0.1050869E+000  0.2359405E+03  0.7818608E-02  0.1122598E+00
         21   -1    0    0  503  502  0.00000000000E+00  0.00000000000E+00  0.12586746016E+03  0.12586746016E+03  0.00000000000E+00 0. -1.
         21   -1    0    0  501  503 -0.00000000000E+00 -0.00000000000E+00 -0.48507034146E+03  0.48507034146E+03  0.00000000000E+00 0. -1.
          6    2    1    2  501    0 -0.29317371771E+01 -0.16113246938E+03 -0.88190361809E+02  0.25188383231E+03  0.17232427947E+03 0.  0.
         24    2    3    3    0    0 -0.34550090508E+02 -0.12084324994E+03  0.56298655537E+00  0.14930611389E+03  0.80592796718E+02 0.  0.
         -6    2    1    2    0  502  0.29317371771E+01  0.16113246938E+03 -0.27101251949E+03  0.35905396931E+03  0.17175476524E+03 0.  0.
        -24    2    5    5    0    0  0.19345677837E+02  0.70900601494E+01 -0.95891397826E+02  0.12519935947E+03  0.77815134969E+02 0.  0.
          5    1    3    3  501    0  0.31618353331E+02 -0.40289219444E+02 -0.88753348365E+02  0.10257771842E+03  0.47000000000E+01 0. -1.
        -11    1    4    4    0    0 -0.15815885153E+02 -0.89516146125E+02 -0.35879169968E+02  0.97727158343E+02  0.00000000000E+00 0.  1.
         12    1    4    4    0    0 -0.18734205356E+02 -0.31327103810E+02  0.36442156524E+02  0.51578955549E+02  0.00000000000E+00 0. -1.
         -5    1    5    5    0  502 -0.16413940660E+02  0.15404240923E+03 -0.17512112167E+03  0.23385460984E+03  0.47000000000E+01 0.  1.
         13    1    6    6    0    0  0.57681700407E+01 -0.30220638498E+02 -0.73353274968E+02  0.79544086678E+02  0.00000000000E+00 0. -1.
        -14    1    6    6    0    0  0.13577507796E+02  0.37310698648E+02 -0.22538122858E+02  0.45655272790E+02  0.00000000000E+00 0.  1.
</event>
<event>
12    1  0.1050869E+000  0.1802083E+03  0.7818608E-02  0.1167776E+00
         21   -1    0    0  503  502  0.00000000000E+00  0.00000000000E+00  0.48030953516E+02  0.48030953516E+02  0.00000000000E+00 0.  1.
         21   -1    0    0  501  503 -0.00000000000E+00 -0.00000000000E+00 -0.71572621386E+03  0.71572621386E+03  0.00000000000E+00 0.  1.
          6    2    1    2  501    0 -0.32597421316E+02  0.42025026269E+02 -0.42730316258E+03  0.46374888637E+03  0.17218113181E+03 0.  0.
         24    2    3    3    0    0 -0.25480151974E+02  0.56601444784E+02 -0.12945815373E+03  0.16542545987E+03  0.82177901601E+02 0.  0.
         -6    2    1    2    0  502  0.32597421316E+02 -0.42025026269E+02 -0.24039209777E+03  0.30000828101E+03  0.17142903282E+03 0.  0.
        -24    2    5    5    0    0  0.41682018677E+02 -0.60729053617E+02 -0.25311270687E+03  0.27518340550E+03  0.78958569195E+02 0.  0.
          5    1    3    3  501    0 -0.71172693418E+01 -0.14576418515E+02 -0.29784500885E+03  0.29832342650E+03  0.47000000000E+01 0. -1.
        -11    1    4    4    0    0 -0.38309399174E+02 -0.60644217026E+01 -0.43533529064E+02  0.58305706654E+02  0.00000000000E+00 0.  1.
         12    1    4    4    0    0  0.12829247200E+02  0.62665866487E+02 -0.85924624661E+02  0.10711975322E+03  0.00000000000E+00 0. -1.
         -5    1    5    5    0  502 -0.90845973608E+01  0.18704027348E+02  0.12720609099E+02  0.24824875510E+02  0.47000000000E+01 0.  1.
         11    1    6    6    0    0  0.58930885490E+01 -0.48484555359E+02 -0.55273707694E+02  0.73760852512E+02  0.00000000000E+00 0. -1.
        -12    1    6    6    0    0  0.35788930128E+02 -0.12244498258E+02 -0.19783899918E+03  0.20142255299E+03  0.00000000000E+00 0.  1.
</event>
<event>
12    1  0.1050869E+000  0.4420496E+03  0.7818608E-02  0.1030130E+00
         21   -1    0    0  501  502  0.00000000000E+00  0.00000000000E+00  0.13324505247E+04  0.13324505247E+04  0.00000000000E+00 0.  1.
         21   -1    0    0  502  503 -0.00000000000E+00 -0.00000000000E+00 -0.15778613329E+03  0.15778613329E+03  0.00000000000E+00 0. -1.
         -6    2    1    2    0  503  0.36412718238E+03 -0.18256448431E+03  0.38895153686E+03  0.58870874743E+03  0.17139514403E+03 0.  0.
        -24    2    3    3    0    0  0.31782669463E+03 -0.11416584516E+03  0.25126632700E+03  0.42808055558E+03  0.77913714848E+02 0.  0.
          6    2    1    2  501    0 -0.36412718238E+03  0.18256448431E+03  0.78571285450E+03  0.90152791051E+03  0.17172503554E+03 0.  0.
         24    2    5    5    0    0 -0.13899859253E+03  0.11836672683E+03  0.45198821499E+03  0.49385345822E+03  0.79161865606E+02 0.  0.
          5    1    5    5  501    0 -0.22512858985E+03  0.64197757479E+02  0.33372463951E+03  0.40767445229E+03  0.47000000000E+01 0. -1.
        -13    1    6    6    0    0 -0.11007877675E+03  0.62388587383E+02  0.36598509854E+03  0.38723993244E+03  0.00000000000E+00 0.  1.
         14    1    6    6    0    0 -0.28919815775E+02  0.55978139444E+02  0.86003116452E+02  0.10661352578E+03  0.00000000000E+00 0. -1.
         -5    1    3    3    0  503  0.46300487749E+02 -0.68398639148E+02  0.13768520986E+03  0.16062819185E+03  0.47000000000E+01 0.  1.
         13    1    4    4    0    0  0.94942709969E+02 -0.92549116659E+01  0.39568444079E+02  0.10327358488E+03  0.00000000000E+00 0. -1.
        -14    1    4    4    0    0  0.22288398466E+03 -0.10491093349E+03  0.21169788292E+03  0.32480697070E+03  0.00000000000E+00 0.  1.
</event>
<event>
12    1  0.1050869E+000  0.2611901E+03  0.7818608E-02  0.1106588E+00
         21   -1    0    0  503  502  0.00000000000E+00  0.00000000000E+00  0.42111817194E+03  0.42111817194E+03  0.00000000000E+00 0. -1.
         21   -1    0    0  501  503 -0.00000000000E+00 -0.00000000000E+00 -0.21650722830E+03  0.21650722830E+03  0.00000000000E+00 0. -1.
          6    2    1    2  501    0 -0.18995939835E+03 -0.49304913331E+02 -0.58462573319E+02  0.26765298023E+03  0.17235050868E+03 0.  0.
         24    2    3    3    0    0 -0.17905483941E+03 -0.72066134872E+01 -0.27739681688E+01  0.19683993765E+03  0.81398374434E+02 0.  0.
         -6    2    1    2    0  502  0.18995939835E+03  0.49304913331E+02  0.26307351697E+03  0.36997242001E+03  0.17075236086E+03 0.  0.
        -24    2    5    5    0    0  0.86033379549E+02 -0.11483195821E+02  0.20524617659E+03  0.23632398982E+03  0.78672924024E+02 0.  0.
          5    1    3    3  501    0 -0.10904558946E+02 -0.42098299844E+02 -0.55688605150E+02  0.70813042578E+02  0.47000000000E+01 0. -1.
        -13    1    4    4    0    0 -0.10111107788E+03 -0.25704702142E+02  0.32552411523E+02  0.10928788258E+03  0.00000000000E+00 0.  1.
         14    1    4    4    0    0 -0.77943761530E+02  0.18498088655E+02 -0.35326379691E+02  0.87552055073E+02  0.00000000000E+00 0. -1.
         -5    1    5    5    0  502  0.10392601881E+03  0.60788109153E+02  0.57827340376E+02  0.13364843020E+03  0.47000000000E+01 0.  1.
         13    1    6    6    0    0  0.65504159660E+00 -0.83899986936E+01 -0.47150325364E+01  0.96463821919E+01  0.00000000000E+00 0. -1.
        -14    1    6    6    0    0  0.85378337953E+02 -0.30931971276E+01  0.20996120913E+03  0.22667760763E+03  0.00000000000E+00 0.  1.
</event>
<event>
12    1  0.1050869E+000  0.2044787E+03  0.7818608E-02  0.1150588E+00
         21   -1    0    0  501  502  0.00000000000E+00  0.00000000000E+00  0.26597783942E+03  0.26597783942E+03  0.00000000000E+00 0.  1.
         21   -1    0    0  502  503 -0.00000000000E+00 -0.00000000000E+00 -0.14316157314E+03  0.14316157314E+03  0.00000000000E+00 0.  1.
         -6    2    1    2    0  503  0.20467453221E+02  0.61301284526E+02  0.80605009172E+02  0.20034927213E+03  0.17165634043E+03 0.  0.
        -24    2    3    3    0    0  0.42607079563E+01  0.10290904549E+03  0.84043034575E+02  0.15531845620E+03  0.80325375191E+02 0.  0.
          6    2    1    2  501    0 -0.20467453221E+02 -0.61301284526E+02  0.42211257100E+02  0.20879014043E+03  0.19399682572E+03 0.  0.
         24    2    5    5    0    0 -0.39639386647E+02 -0.15112685255E+02  0.98854318384E+02  0.13308362734E+03  0.78354332187E+02 0.  0.
          5    1    5    5  501    0  0.19171933425E+02 -0.46188599271E+02 -0.56643061283E+02  0.75706513098E+02  0.47000000000E+01 0. -1.
        -13    1    6    6    0    0  0.15200154440E+02  0.19134745115E+02  0.27973564795E+02  0.37144360177E+02  0.00000000000E+00 0.  1.
         14    1    6    6    0    0 -0.54839541087E+02 -0.34247430370E+02  0.70880753589E+02  0.95939267159E+02  0.00000000000E+00 0. -1.
         -5    1    3    3    0  503  0.16206745265E+02 -0.41607760962E+02 -0.34380254025E+01  0.45030815927E+02  0.47000000000E+01 0.  1.
         11    1    4    4    0    0  0.16101837766E+02  0.17643451421E+02  0.62021897347E+02  0.66462593299E+02  0.00000000000E+00 0. -1.
        -12    1    4    4    0    0 -0.11841129810E+02  0.85265594067E+02  0.22021137228E+02  0.88855862900E+02  0.00000000000E+00 0.  1.
</event>
<event>
12    1  0.1050869E+000  0.4198099E+03  0.7818608E-02  0.1037140E+00
         21   -1    0    0  501  502  0.00000000000E+00  0.00000000000E+00  0.54110494283E+03  0.54110494283E+03  0.00000000000E+00 0. -1.
         21   -1    0    0  502  503 -0.00000000000E+00 -0.00000000000E+00 -0.32591924004E+03  0.32591924004E+03  0.00000000000E+00 0.  1.
         -6    2    1    2    0  503  0.32970567224E+03  0.19458170328E+03  0.93898886399E+02  0.43004496105E+03  0.17191218134E+03 0.  0.
        -24    2    3    3    0    0  0.77974743020E+02  0.88769646428E+02 -0.34971331102E+01  0.14009198776E+03  0.75189257328E+02 0.  0.
          6    2    1    2  501    0 -0.32970567224E+03 -0.19458170328E+03  0.12128681640E+03  0.43697922183E+03  0.17225701413E+03 0.  0.
         24    2    5    5    0    0 -0.30758733206E+03 -0.21936596632E+03  0.11383777779E+03  0.40261268515E+03  0.80040868096E+02 0.  0.
          5    1    5    5  501    0 -0.22118340181E+02  0.24784263044E+02  0.74490386110E+01  0.34366536678E+02  0.47000000000E+01 0. -1.
        -11    1    6    6    0    0 -0.18499763188E+03 -0.84561740224E+02  0.49160083028E+02  0.20926424796E+03  0.00000000000E+00 0.  1.
         12    1    6    6    0    0 -0.12258970019E+03 -0.13480422610E+03  0.64677694760E+02  0.19334843719E+03  0.00000000000E+00 0. -1.
         -5    1    3    3    0  503  0.25173092923E+03  0.10581205685E+03  0.97396019509E+02  0.28995297329E+03  0.47000000000E+01 0.  1.
         13    1    4    4    0    0 -0.14551874440E+02  0.96611531710E+01 -0.55889953150E+01  0.18339351105E+02  0.00000000000E+00 0. -1.
        -14    1    4    4    0    0  0.92526617460E+02  0.79108493257E+02  0.20918622047E+01  0.12175263665E+03  0.00000000000E+00 0.  1.
</event>
<event>
12    1  0.1050869E+000  0.1982410E+03  0.7818608E-02  0.1151302E+00
         21   -1    0    0  503  502  0.00000000000E+00  0.00000000000E+00  0.99365350846E+02  0.99365350846E+02  0.00000000000E+00 0. -1.
         21   -1    0    0  501  503 -0.00000000000E+00 -0.00000000000E+00 -0.39484821277E+03  0.39484821277E+03  0.00000000000E+00 0. -1.
          6    2    1    2  501    0 -0.15407031941E+02 -0.99721481971E+02 -0.14783186945E+03  0.24702875616E+03  0.17025626022E+03 0.  0.
         24    2    3    3    0    0 -0.59675285161E+02 -0.98207216973E+02 -0.14704760676E+03  0.20247905010E+03  0.78542790581E+02 0.  0.
         -6    2    1    2    0  502  0.15407031941E+02  0.99721481971E+02 -0.14765099247E+03  0.24718480745E+03  0.17063927701E+03 0.  0.
        -24    2    5    5    0    0 -0.22289523568E+02 -0.10632024037E+02 -0.63763281064E+02  0.10345532297E+03  0.77636235372E+02 0.  0.
          5    1    3    3  501    0  0.44268253220E+02 -0.15142649976E+01 -0.78426269205E+00  0.44549706055E+02  0.47000000000E+01 0. -1.
        -13    1    4    4    0    0 -0.11380046427E+02 -0.84592309644E+02 -0.11393447038E+03  0.14236020458E+03  0.00000000000E+00 0.  1.
         14    1    4    4    0    0 -0.48295238734E+02 -0.13614907329E+02 -0.33113136378E+02  0.60118845521E+02  0.00000000000E+00 0. -1.
         -5    1    5    5    0  502  0.37696555509E+02  0.11035350601E+03 -0.83887711403E+02  0.14372948448E+03  0.47000000000E+01 0.  1.
         11    1    6    6    0    0 -0.17103292776E+02 -0.97657610730E+01  0.14850199810E+02  0.24666194427E+02  0.00000000000E+00 0. -1.
        -12    1    6    6    0    0 -0.51862307920E+01 -0.86626296375E+00 -0.78613480875E+02  0.78789128543E+02  0.00000000000E+00 0.  1.
</event>
<event>
12    1  0.1050869E+000  0.1940188E+03  0.7818608E-02  0.1155561E+00
         21   -1    0    0  501  502  0.00000000000E+00  0.00000000000E+00  0.48870786249E+03  0.48870786249E+03  0.00000000000E+00 0.  1.
         21   -1    0    0  502  503 -0.00000000000E+00 -0.00000000000E+00 -0.77297008046E+02  0.77297008046E+02  0.00000000000E+00 0.  1.
         -6    2    1    2    0  503 -0.38605393498E+02  0.80832325012E+02  0.24323810938E+03  0.30924550739E+03  0.16865279367E+03 0.  0.
        -24    2    3    3    0    0  0.40188814616E+02  0.24524598404E+02  0.13319901492E+03  0.16258337997E+03  0.80466024645E+02 0.  0.
          6    2    1    2  501    0  0.38605393498E+02 -0.80832325012E+02  0.16817274506E+03  0.25675936314E+03  0.17210188031E+03 0.  0.
         24    2    5    5    0    0  0.15593485591E+02 -0.82919673335E+02  0.19118331332E+03  0.22381272174E+03  0.80138917503E+02 0.  0.
          5    1    5    5  501    0  0.23011907908E+02  0.20873483235E+01 -0.23010568258E+02  0.32946641409E+02  0.47000000000E+01 0. -1.
        -11    1    6    6    0    0  0.32078599786E+02 -0.63400716473E+02  0.69202642953E+02  0.99185146091E+02  0.00000000000E+00 0.  1.
         12    1    6    6    0    0 -0.16485114195E+02 -0.19518956862E+02  0.12198067037E+03  0.12462757564E+03  0.00000000000E+00 0. -1.
         -5    1    3    3    0  503 -0.78794208115E+02  0.56307726608E+02  0.11003909447E+03  0.14666212742E+03  0.47000000000E+01 0.  1.
         11    1    4    4    0    0  0.10453929879E+02  0.62787109362E+01  0.12646650736E+03  0.12705307688E+03  0.00000000000E+00 0. -1.
        -12    1    4    4    0    0  0.29734884737E+02  0.18245887468E+02  0.67325075533E+01  0.35530303091E+02  0.00000000000E+00 0.  1.
</event>
<event>
12    1  0.1050869E+000  0.1764148E+03  0.7818608E-02  0.1171472E+00
         21   -1    0    0  503  502  0.00000000000E+00  0.00000000000E+00  0.16587996237E+03  0.16587996237E+03  0.00000000000E+00 0.  1.
         21   -1    0    0  501  503 -0.00000000000E+00 -0.00000000000E+00 -0.19868624235E+03  0.19868624235E+03  0.00000000000E+00 0.  1.
          6    2    1    2  501    0  0.90432321341E+01  0.36415771819E+02 -0.60707630222E+02  0.18656798455E+03  0.17237838613E+03 0.  0.
         24    2    3    3    0    0  0.32719834228E+01 -0.20447033734E+02  0.22131635583E+02  0.85815218201E+02  0.80284838651E+02 0.  0.
         -6    2    1    2    0  502 -0.90432321341E+01 -0.36415771819E+02  0.27901350241E+02  0.17799822018E+03  0.17174688515E+03 0.  0.
        -24    2    5    5    0    0 -0.49003684408E+01  0.34906942135E+02 -0.21583416158E+02  0.90964175402E+02  0.81031655132E+02 0.  0.
          5    1    3    3  501    0  0.57712487112E+01  0.56862805553E+02 -0.82839265806E+02  0.10075276635E+03  0.47000000000E+01 0. -1.
        -11    1    4    4    0    0  0.36823457634E+02 -0.30252725186E+02  0.91500763342E+01  0.48527500556E+02  0.00000000000E+00 0.  1.
         12    1    4    4    0    0 -0.33551474211E+02  0.98056914524E+01  0.12981559249E+02  0.37287717645E+02  0.00000000000E+00 0. -1.
         -5    1    5    5    0  502 -0.41428636933E+01 -0.71322713954E+02  0.49484766399E+02  0.87034044781E+02  0.47000000000E+01 0.  1.
         11    1    6    6    0    0  0.27081945401E+02  0.29915361602E+02 -0.37326491100E+02  0.54969332944E+02  0.00000000000E+00 0. -1.
        -12    1    6    6    0    0 -0.31982313842E+02  0.49915805327E+01  0.15743074942E+02  0.35994842457E+02  0.00000000000E+00 0.  1.
</event>
<event>
12    1  0.1050869E+000  0.2170394E+03  0.7818608E-02  0.1137255E+00
         21   -1    0    0  503  502  0.00000000000E+00  0.00000000000E+00  0.23110277621E+03  0.23110277621E+03  0.00000000000E+00 0.  1.
         21   -1    0    0  501  503 -0.00000000000E+00 -0.00000000000E+00 -0.19894733434E+03  0.19894733434E+03  0.00000000000E+00 0.  1.
          6    2    1    2  501    0  0.41002074713E+02 -0.12639506318E+03  0.28257205872E+02  0.21297571110E+03  0.16402225979E+03 0.  0.
         24    2    3    3    0    0  0.54908383532E+02 -0.16968696810E+02  0.35586931812E+02  0.10232612925E+03  0.76820178061E+02 0.  0.
         -6    2    1    2    0  502 -0.41002074713E+02  0.12639506318E+03  0.38982359973E+01  0.21707439946E+03  0.17160774030E+03 0.  0.
        -24    2    5    5    0    0 -0.71937262757E+02  0.13494251512E+03  0.29689906412E+02  0.17563353730E+03  0.81124575329E+02 0.  0.
          5    1    3    3  501    0 -0.13906308819E+02 -0.10942636637E+03 -0.73297259403E+01  0.11064958185E+03  0.47000000000E+01 0. -1.
        -13    1    4    4    0    0  0.19470398779E+02 -0.48900159892E+00 -0.24097492191E+02  0.30984265056E+02  0.00000000000E+00 0.  1.
         14    1    4    4    0    0  0.35437984753E+02 -0.16479695211E+02  0.59684424003E+02  0.71341864191E+02  0.00000000000E+00 0. -1.
         -5    1    5    5    0  502  0.30935188044E+02 -0.85474519364E+01 -0.25791670414E+02  0.41440862161E+02  0.47000000000E+01 0.  1.
         11    1    6    6    0    0 -0.84249582820E+02  0.13381281592E+03  0.18952376848E+02  0.15925782398E+03  0.00000000000E+00 0. -1.
        -12    1    6    6    0    0  0.12312320063E+02  0.11296991948E+01  0.10737529564E+02  0.16375713320E+02  0.00000000000E+00 0.  1.
</event>
<event>
12    1  0.1050869E+000  0.2320492E+03  0.7818608E-02  0.1127430E+00
         21   -1    0    0  501  502  0.00000000000E+00  0.00000000000E+00  0.37904674927E+03  0.37904674927E+03  0.00000000000E+00 0. -1.
         21   -1    0    0  502  503 -0.00000000000E+00 -0.00000000000E+00 -0.17302525771E+03  0.17302525771E+03  0.00000000000E+00 0. -1.
         -6    2    1    2    0  503  0.12111533664E+03 -0.93072173861E+02  0.23532749432E+03  0.33049332849E+03  0.17468673757E+03 0.  0.
        -24    2    3    3    0    0  0.86082452537E+01 -0.64227760577E+02  0.16540726859E+03  0.19484387676E+03  0.80032897576E+02 0.  0.
          6    2    1    2  501    0 -0.12111533664E+03  0.93072173861E+02 -0.29306002758E+02  0.22157867848E+03  0.15781924674E+03 0.  0.
         24    2    5    5    0    0 -0.56308487620E+01  0.18404237313E+02 -0.18663300167E+02  0.83566632602E+02  0.79149484537E+02 0.  0.
          5    1    5    5  501    0 -0.11548448788E+03  0.74667936548E+02 -0.10642702590E+02  0.13801204588E+03  0.47000000000E+01 0. -1.
        -13    1    6    6    0    0 -0.40935334596E+02  0.12589845125E+02 -0.21022173119E+02  0.47708883674E+02  0.00000000000E+00 0.  1.
         14    1    6    6    0    0  0.35304485834E+02  0.58143921879E+01  0.23588729519E+01  0.35857748928E+02  0.00000000000E+00 0. -1.
         -5    1    3    3    0  503  0.11250709138E+03 -0.28844413284E+02  0.69920225727E+02  0.13564945173E+03  0.47000000000E+01 0.  1.
         13    1    4    4    0    0 -0.28703434640E+01 -0.39883710630E+02  0.16061064831E+02  0.43091844341E+02  0.00000000000E+00 0. -1.
        -14    1    4    4    0    0  0.11478588718E+02 -0.24344049947E+02  0.14934620376E+03  0.15175203242E+03  0.00000000000E+00 0.  1.
</event>
<event>
12    1  0.1050869E+000  0.2058320E+03  0.7818608E-02  0.1145081E+00
         21   -1    0    0  501  502  0.00000000000E+00  0.00000000000E+00  0.15931251688E+03  0.15931251688E+03  0.00000000000E+00 0.  1.
         21   -1    0    0  502  503 -0.00000000000E+00 -0.00000000000E+00 -0.29984655818E+03  0.29984655818E+03  0.00000000000E+00 0.  1.
         -6    2    1    2    0  503  0.79502959631E+02 -0.81548958724E+02 -0.14857527789E+03  0.25317001445E+03  0.17043910866E+03 0.  0.
        -24    2    3    3    0    0  0.26759466429E+02  0.40440376713E+01 -0.12325270080E+03  0.14938485165E+03  0.79951124850E+02 0.  0.
          6    2    1    2  501    0 -0.79502959631E+02  0.81548958724E+02  0.80412365935E+01  0.20598906061E+03  0.17145226258E+03 0.  0.
         24    2    5    5    0    0  0.15544964494E+02  0.52935804119E+02  0.34045249513E+02  0.10327041973E+03  0.80385665992E+02 0.  0.
          5    1    5    5  501    0 -0.95047924125E+02  0.28613154605E+02 -0.26004012919E+02  0.10271864088E+03  0.47000000000E+01 0. -1.
        -11    1    6    6    0    0  0.46611293224E+02  0.20909093011E+02  0.82976748983E+01  0.51755716933E+02  0.00000000000E+00 0.  1.
         12    1    6    6    0    0 -0.31066328730E+02  0.32026711109E+02  0.25747574615E+02  0.51514702792E+02  0.00000000000E+00 0. -1.
         -5    1    3    3    0  503  0.52743493202E+02 -0.85592996396E+02 -0.25322577090E+02  0.10378516280E+03  0.47000000000E+01 0.  1.
         11    1    4    4    0    0  0.21505724438E+01  0.20928288558E+02  0.15192976451E+01  0.21093280663E+02  0.00000000000E+00 0. -1.
        -12    1    4    4    0    0  0.24608893986E+02 -0.16884250887E+02 -0.12477199844E+03  0.12829157099E+03  0.00000000000E+00 0.  1.
</event>
<event>
12    1  0.1050869E+000  0.2453434E+03  0.7818608E-02  0.1116296E+00
         21   -1    0    0  501  502  0.00000000000E+00  0.00000000000E+00  0.13631511269E+04  0.13631511269E+04  0.00000000000E+00 0.  1.
         21   -1    0    0  502  503 -0.00000000000E+00 -0.00000000000E+00 -0.53169874898E+02  0.53169874898E+02  0.00000000000E+00 0.  1.
         -6    2    1    2    0  503 -0.17251547873E+03  0.27939429196E+02  0.36330314550E+03  0.43838630625E+03  0.17219516796E+03 0.  0.
        -24    2    3    3    0    0 -0.11347951025E+03 -0.11293135511E+02  0.33678823644E+03  0.36256038647E+03  0.70841961238E+02 0.  0.
          6    2    1    2  501    0  0.17251547873E+03 -0.27939429196E+02  0.94667810654E+03  0.97793469559E+03  0.17208901573E+03 0.  0.
         24    2    5    5    0    0  0.87018485638E+02 -0.78463633338E+02  0.64584847660E+03  0.66110195221E+03  0.78783106582E+02 0.  0.
          5    1    5    5  501    0  0.85496993092E+02  0.50524204142E+02  0.30082962994E+03  0.31683274338E+03  0.47000000000E+01 0. -1.
        -11    1    6    6    0    0  0.53050319929E+02 -0.20759620963E+02  0.46086449595E+03  0.46437202966E+03  0.00000000000E+00 0.  1.
         12    1    6    6    0    0  0.33968165709E+02 -0.57704012374E+02  0.18498398066E+03  0.19672992255E+03  0.00000000000E+00 0. -1.
         -5    1    3    3    0  503 -0.59035968482E+02  0.39232564707E+02  0.26514909057E+02  0.75825919780E+02  0.47000000000E+01 0.  1.
         11    1    4    4    0    0 -0.65901672064E+02 -0.27558221283E+02  0.11690116349E+03  0.13699769329E+03  0.00000000000E+00 0. -1.
        -12    1    4    4    0    0 -0.47577838184E+02  0.16265085772E+02  0.21988707295E+03  0.22556269318E+03  0.00000000000E+00 0.  1.
</event>
<event>
12    1  0.1050869E+000  0.2008959E+03  0.7818608E-02  0.1150034E+00
         21   -1    0    0  501  502  0.00000000000E+00  0.00000000000E+00  0.11907534314E+03  0.11907534314E+03  0.00000000000E+00 0. -1.
         21   -1    0    0  502  503 -0.00000000000E+00 -0.00000000000E+00 -0.35569796195E+03  0.35569796195E+03  0.00000000000E+00 0. -1.
         -6    2    1    2    0  503 -0.88074178494E+02  0.47197424995E+02 -0.56705025810E+02  0.20874534716E+03  0.17428282235E+03 0.  0.
        -24    2    3    3    0    0 -0.11292143379E+03  0.77731008647E+02 -0.58342257320E+02  0.16906592739E+03  0.79913133471E+02 0.  0.
          6    2    1    2  501    0  0.88074178494E+02 -0.47197424995E+02 -0.17991759299E+03  0.26602795793E+03  0.16857009310E+03 0.  0.
         24    2    5    5    0    0  0.61013598106E+02 -0.93893348165E+02 -0.15150888886E+03  0.20485665157E+03  0.80452994373E+02 0.  0.
          5    1    5    5  501    0  0.27060580388E+02  0.46695923170E+02 -0.28408704131E+02  0.61171306361E+02  0.47000000000E+01 0. -1.
        -13    1    6    6    0    0  0.42961991976E+02 -0.60068605313E+02 -0.34095012089E+02  0.81341502004E+02  0.00000000000E+00 0.  1.
         14    1    6    6    0    0  0.18051606130E+02 -0.33824742852E+02 -0.11741387677E+03  0.12351514956E+03  0.00000000000E+00 0. -1.
         -5    1    3    3    0  503  0.24847255293E+02 -0.30533583652E+02  0.16372315098E+01  0.39679419770E+02  0.47000000000E+01 0.  1.
         11    1    4    4    0    0 -0.33293863290E+01 -0.12488509802E+02 -0.16731556233E+02  0.21142201030E+02  0.00000000000E+00 0. -1.
        -12    1    4    4    0    0 -0.10959204746E+03  0.90219518449E+02 -0.41610701086E+02  0.14792372636E+03  0.00000000000E+00 0.  1.
</event>
<event>
12    1  0.1050869E+000  0.2251506E+03  0.7818608E-02  0.1130725E+00
         21   -1    0    0  501  502  0.00000000000E+00  0.00000000000E+00  0.97626190246E+03  0.97626190246E+03  0.00000000000E+00 0. -1.
         21   -1    0    0  502  503 -0.00000000000E+00 -0.00000000000E+00 -0.51269078966E+02  0.51269078966E+02  0.00000000000E+00 0. -1.
         -6    2    1    2    0  503 -0.49807854165E+02 -0.13176238074E+03  0.48484508483E+03  0.53313962623E+03  0.17123363414E+03 0.  0.
        -24    2    3    3    0    0 -0.13301232229E+02 -0.98907218562E+02  0.14151578424E+03  0.18628332491E+03  0.68667308718E+02 0.  0.
          6    2    1    2  501    0  0.49807854165E+02  0.13176238074E+03  0.44014773867E+03  0.49439135520E+03  0.17564348244E+03 0.  0.
         24    2    5    5    0    0  0.92754703434E+02  0.77488109626E+02  0.32843442886E+03  0.36289199416E+03  0.95987411759E+02 0.  0.
          5    1    5    5  501    0 -0.42946849269E+02  0.54274271113E+02  0.11171330980E+03  0.13149936104E+03  0.47000000000E+01 0. -1.
        -11    1    6    6    0    0  0.20364654669E+02  0.54929190059E+01  0.18847464554E+03  0.18965121495E+03  0.00000000000E+00 0.  1.
         12    1    6    6    0    0  0.72390048765E+02  0.71995190620E+02  0.13995978332E+03  0.17324077920E+03  0.00000000000E+00 0. -1.
         -5    1    3    3    0  503 -0.36506621936E+02 -0.32855162178E+02  0.34332930059E+03  0.34685630133E+03  0.47000000000E+01 0.  1.
         13    1    4    4    0    0 -0.41990558704E+01  0.68475809484E+01 -0.15097358674E+01  0.81731718101E+01  0.00000000000E+00 0. -1.
        -14    1    4    4    0    0 -0.91021763587E+01 -0.10575479951E+03  0.14302552011E+03  0.17811015310E+03  0.00000000000E+00 0.  1.
</event>
<event>
12    1  0.1050869E+000  0.2528644E+03  0.7818608E-02  0.1111599E+00
         21   -1    0    0  503  502  0.00000000000E+00  0.00000000000E+00  0.11882940996E+04  0.11882940996E+04  0.00000000000E+00 0.  1.
         21   -1    0    0  501  503 -0.00000000000E+00 -0.00000000000E+00 -0.54171469092E+02  0.54171469092E+02  0.00000000000E+00 0.  1.
          6    2    1    2  501    0  0.10362841157E+03 -0.15266134204E+03  0.62530204099E+03  0.67427649734E+03  0.17205179268E+03 0.  0.
         24    2    3    3    0    0  0.10144060636E+03 -0.78523902617E+02  0.54150669302E+03  0.56227249403E+03  0.80403103521E+02 0.  0.
         -6    2    1    2    0  502 -0.10362841157E+03  0.15266134204E+03  0.50882058950E+03  0.56818907133E+03  0.17290487397E+03 0.  0.
        -24    2    5    5    0    0 -0.49221063496E+02  0.31722031749E+02  0.11008538125E+03  0.14795302742E+03  0.79638601002E+02 0.  0.
          5    1    3    3  501    0  0.21878052075E+01 -0.74137439428E+02  0.83795347968E+02  0.11200400331E+03  0.47000000000E+01 0. -1.
        -13    1    4    4    0    0  0.12369523379E+02  0.16664161169E+02  0.63296325667E+02  0.66611742351E+02  0.00000000000E+00 0.  1.
         14    1    4    4    0    0  0.89071082981E+02 -0.95188063785E+02  0.47821036735E+03  0.49566075168E+03  0.00000000000E+00 0. -1.
         -5    1    5    5    0  502 -0.54407348071E+02  0.12093931030E+03  0.39873520825E+03  0.42023604391E+03  0.47000000000E+01 0.  1.
         11    1    6    6    0    0 -0.59422454268E+02  0.49694730990E+02  0.79142680399E+02  0.11074365995E+03  0.00000000000E+00 0. -1.
        -12    1    6    6    0    0  0.10201390772E+02 -0.17972699241E+02  0.30942700847E+02  0.37209367468E+02  0.00000000000E+00 0.  1.
</event>
<event>
12    1  0.1050869E+000  0.3361189E+03  0.7818608E-02  0.1068620E+00
         21   -1    0    0  501  502  0.00000000000E+00  0.00000000000E+00  0.17801175062E+03  0.17801175062E+03  0.00000000000E+00 0.  1.
         21   -1    0    0  502  503 -0.00000000000E+00 -0.00000000000E+00 -0.65846411737E+03  0.65846411737E+03  0.00000000000E+00 0.  1.
         -6    2    1    2    0  503  0.28821434708E+03 -0.16161223626E+02 -0.32475896165E+03  0.46738024293E+03  0.17218366153E+03 0.  0.
        -24    2    3    3    0    0  0.19306116395E+03  0.58411807712E+02 -0.17784411808E+03  0.27706123042E+03  0.66707141746E+02 0.  0.
          6    2    1    2  501    0 -0.28821434708E+03  0.16161223626E+02 -0.15569340509E+03  0.36909562506E+03  0.16929987902E+03 0.  0.
         24    2    5    5    0    0 -0.79269159840E+02  0.49989596897E+02 -0.51251076824E+02  0.13301779882E+03  0.79274853685E+02 0.  0.
          5    1    5    5  501    0 -0.20894518724E+03 -0.33828373271E+02 -0.10444232827E+03  0.23607782624E+03  0.47000000000E+01 0. -1.
        -11    1    6    6    0    0 -0.89745411372E+01  0.30098245925E+02  0.14626752527E+02  0.34646625895E+02  0.00000000000E+00 0.  1.
         12    1    6    6    0    0 -0.70294618703E+02  0.19891350971E+02 -0.65877829351E+02  0.98371172922E+02  0.00000000000E+00 0. -1.
         -5    1    3    3    0  503  0.95153183135E+02 -0.74573031338E+02 -0.14691484357E+03  0.19031901252E+03  0.47000000000E+01 0.  1.
         11    1    4    4    0    0  0.42830734566E+02 -0.84540909237E+01 -0.62353439217E+02  0.76117638291E+02  0.00000000000E+00 0. -1.
        -12    1    4    4    0    0  0.15023042938E+03  0.66865898636E+02 -0.11549067886E+03  0.20094359213E+03  0.00000000000E+00 0.  1.
</event>
<event>
12    1  0.1473152E+000  0.3575787E+03  0.7818608E-02  0.1059631E+00
         21   -1    0    0  503  502  0.00000000000E+00  0.00000000000E+00  0.44499091607E+03  0.44499091607E+03  0.00000000000E+00 0. -1.
         21   -1    0    0  501  503 -0.00000000000E+00 -0.00000000000E+00 -0.61760626045E+03  0.61760626045E+03  0.00000000000E+00 0.  1.
          6    2    1    2  501    0  0.23752203964E+03  0.20199901787E+03  0.30256530730E+03  0.46841037630E+03  0.17504911569E+03 0.  0.
         24    2    3    3    0    0  0.19067798112E+03  0.14414242153E+03  0.29962412042E+03  0.39376124945E+03  0.90211849898E+02 0.  0.
         -6    2    1    2    0  502 -0.23752203964E+03 -0.20199901787E+03 -0.47518065168E+03  0.59418680022E+03  0.17332333741E+03 0.  0.
        -24    2    5    5    0    0 -0.20906601862E+03 -0.15966989995E+03 -0.28199352742E+03  0.39432471193E+03  0.82271209066E+02 0.  0.
          5    1    3    3  501    0  0.46844058521E+02  0.57856596344E+02  0.29411868834E+01  0.74649126851E+02  0.47000000000E+01 0. -1.
        -11    1    4    4    0    0  0.52510398641E+01  0.21730294788E+02  0.73167647031E+02  0.76506755933E+02  0.00000000000E+00 0.  1.
         12    1    4    4    0    0  0.18542694126E+03  0.12241212674E+03  0.22645647339E+03  0.31725449352E+03  0.00000000000E+00 0. -1.
         -5    1    5    5    0  502 -0.28456021027E+02 -0.42329117921E+02 -0.19318712426E+03  0.19986208829E+03  0.47000000000E+01 0.  1.
         11    1    6    6    0    0 -0.12408135041E+03 -0.14245671646E+03 -0.19375312703E+03  0.27061110808E+03  0.00000000000E+00 0. -1.
        -12    1    6    6    0    0 -0.84984668205E+02 -0.17213183494E+02 -0.88240400393E+02  0.12371360385E+03  0.00000000000E+00 0.  1.
</event>
<event>
12    1  0.1050869E+000  0.2019387E+03  0.7818608E-02  0.1148133E+00
         21   -1    0    0  503  502  0.00000000000E+00  0.00000000000E+00  0.28285521254E+03  0.28285521254E+03  0.00000000000E+00 0.  1.
         21   -1    0    0  501  503 -0.00000000000E+00 -0.00000000000E+00 -0.25303107714E+03  0.25303107714E+03  0.00000000000E+00 0.  1.
          6    2    1    2  501    0  0.57658183736E+02 -0.89191079525E+02  0.19071185115E+03  0.27769239891E+03  0.17164656544E+03 0.  0.
         24    2    3    3    0    0  0.59447726162E+02  0.12641036662E+02  0.81533025566E+02  0.12831004284E+03  0.78243241769E+02 0.  0.
         -6    2    1    2    0  502 -0.57658183736E+02  0.89191079525E+02 -0.16088771575E+03  0.25819389076E+03  0.17175480584E+03 0.  0.
        -24    2    5    5    0    0 -0.73381616302E+02  0.64352669441E+02 -0.38906457967E+02  0.13263239110E+03  0.80941404864E+02 0.  0.
          5    1    3    3  501    0 -0.17895424259E+01 -0.10183211619E+03  0.10917882558E+03  0.14938235607E+03  0.47000000000E+01 0. -1.
        -11    1    4    4    0    0  0.97898875725E+01 -0.16676459847E+02  0.65732773220E+02  0.68518199676E+02  0.00000000000E+00 0.  1.
         12    1    4    4    0    0  0.49657838590E+02  0.29317496510E+02  0.15800252346E+02  0.59791843166E+02  0.00000000000E+00 0. -1.
         -5    1    5    5    0  502  0.15723432565E+02  0.24838410084E+02 -0.12198125778E+03  0.12556149966E+03  0.47000000000E+01 0.  1.
         11    1    6    6    0    0 -0.69781867833E+02  0.81798762341E+01 -0.25729116412E+02  0.74822502530E+02  0.00000000000E+00 0. -1.
        -12    1    6    6    0    0 -0.35997484685E+01  0.56172793207E+02 -0.13177341556E+02  0.57809888568E+02  0.00000000000E+00 0.  1.
</event>
<event>
12    1  0.1050869E+000  0.1999855E+03  0.7818608E-02  0.1149982E+00
         21   -1    0    0  501  502  0.00000000000E+00  0.00000000000E+00  0.62573495851E+03  0.62573495851E+03  0.00000000000E+00 0. -1.
         21   -1    0    0  502  503 -0.00000000000E+00 -0.00000000000E+00 -0.12770356125E+03  0.12770356125E+03  0.00000000000E+00 0. -1.
         -6    2    1    2    0  503  0.10017040595E+03  0.17993074536E+02  0.51565017871E+03  0.55267838131E+03  0.17088131964E+03 0.  0.
        -24    2    3    3    0    0  0.16355784962E+02 -0.42443567574E+02  0.27382219705E+03  0.28965682114E+03  0.82785930589E+02 0.  0.
          6    2    1    2  501    0 -0.10017040595E+03 -0.17993074536E+02 -0.17618781447E+02  0.20076013845E+03  0.17215211521E+03 0.  0.
         24    2    5    5    0    0 -0.93457091190E+02  0.19111369712E+02 -0.62516575763E+02  0.14194083624E+03  0.84495008154E+02 0.  0.
          5    1    5    5  501    0 -0.67133147635E+01 -0.37104444247E+02  0.44897794316E+02  0.58819302210E+02  0.47000000000E+01 0. -1.
        -11    1    6    6    0    0 -0.16929610352E+02  0.72615795064E+01  0.21075394107E+02  0.27991328664E+02  0.00000000000E+00 0.  1.
         12    1    6    6    0    0 -0.76527480838E+02  0.11849790205E+02 -0.83591969870E+02  0.11394950758E+03  0.00000000000E+00 0. -1.
         -5    1    3    3    0  503  0.83814620991E+02  0.60436642110E+02  0.24182798166E+03  0.26302156017E+03  0.47000000000E+01 0.  1.
         11    1    4    4    0    0 -0.22182460072E+02  0.12936894980E+01  0.16234074665E+03  0.16385436580E+03  0.00000000000E+00 0. -1.
        -12    1    4    4    0    0  0.38538245034E+02 -0.43737257072E+02  0.11148145040E+03  0.12580245534E+03  0.00000000000E+00 0.  1.
</event>
<event>
12    1  0.1050869E+000  0.1998182E+03  0.7818608E-02  0.1150022E+00
         21   -1    0    0  501  502  0.00000000000E+00  0.00000000000E+00  0.28476038369E+03  0.28476038369E+03  0.00000000000E+00 0. -1.
         21   -1    0    0  502  503 -0.00000000000E+00 -0.00000000000E+00 -0.17143083751E+03  0.17143083751E+03  0.00000000000E+00 0. -1.
         -6    2    1    2    0  503 -0.83430637213E+02  0.56344312374E+02 -0.41405477742E+02  0.20346563276E+03  0.17189676369E+03 0.  0.
        -24    2    3    3    0    0 -0.95892704228E+02  0.53631521952E+01  0.15956759495E+02  0.12557533768E+03  0.79311872589E+02 0.  0.
          6    2    1    2  501    0  0.83430637213E+02 -0.56344312374E+02  0.15473502392E+03  0.25272558844E+03  0.17260342599E+03 0.  0.
         24    2    5    5    0    0  0.96211806394E+02 -0.27318484938E+02  0.17357195832E+03  0.21553987825E+03  0.79543718124E+02 0.  0.
          5    1    5    5  501    0 -0.12781169181E+02 -0.29025827435E+02 -0.18836934408E+02  0.37185710183E+02  0.47000000000E+01 0. -1.
        -13    1    6    6    0    0  0.29497395379E+01 -0.14767527431E+02 -0.30945973508E+01  0.15373918256E+02  0.00000000000E+00 0.  1.
         14    1    6    6    0    0  0.93262066856E+02 -0.12550957507E+02  0.17666655567E+03  0.20016596000E+03  0.00000000000E+00 0. -1.
         -5    1    3    3    0  503  0.12462067016E+02  0.50981160178E+02 -0.57362237238E+02  0.77890295084E+02  0.47000000000E+01 0.  1.
         11    1    4    4    0    0 -0.46748228780E+02 -0.27798823970E+02 -0.17953915760E+02  0.57275776724E+02  0.00000000000E+00 0. -1.
        -12    1    4    4    0    0 -0.49144475448E+02  0.33161976165E+02  0.33910675255E+02  0.68299560954E+02  0.00000000000E+00 0.  1.
</event>
<event>
12    1  0.1050869E+000  0.2144399E+03  0.7818608E-02  0.1138131E+00
         21   -1    0    0  501  502  0.00000000000E+00  0.00000000000E+00  0.15015781507E+04  0.15015781507E+04  0.00000000000E+00 0.  1.
         21   -1    0    0  502  503 -0.00000000000E+00 -0.00000000000E+00 -0.32216282116E+02  0.32216282116E+02  0.00000000000E+00 0.  1.
         -6    2    1    2    0  503 -0.12728198623E+03  0.66437849647E+01  0.90677618125E+03  0.93178726080E+03  0.17245176892E+03 0.  0.
        -24    2    3    3    0    0 -0.67300099162E+02 -0.63116026737E+02  0.50155689446E+03  0.51622857842E+03  0.80122971912E+02 0.  0.
          6    2    1    2  501    0  0.12728198623E+03 -0.66437849647E+01  0.56258568729E+03  0.60200717198E+03  0.17223569802E+03 0.  0.
         24    2    5    5    0    0  0.15911808060E+03 -0.78969224408E+01  0.51255207987E+03  0.54250457430E+03  0.78871120223E+02 0.  0.
          5    1    5    5  501    0 -0.31836094371E+02  0.12531374761E+01  0.50033607424E+02  0.59502597676E+02  0.47000000000E+01 0. -1.
        -13    1    6    6    0    0  0.57404075666E+02  0.34298577804E+02  0.21880651164E+03  0.22879665618E+03  0.00000000000E+00 0.  1.
         14    1    6    6    0    0  0.10171400493E+03 -0.42195500245E+02  0.29374556822E+03  0.31370791812E+03  0.00000000000E+00 0. -1.
         -5    1    3    3    0  503 -0.59981887065E+02  0.69759811701E+02  0.40521928679E+03  0.41555868237E+03  0.47000000000E+01 0.  1.
         11    1    4    4    0    0 -0.48772498386E+02  0.73575172009E+01  0.20507089901E+03  0.21091932884E+03  0.00000000000E+00 0. -1.
        -12    1    4    4    0    0 -0.18527600776E+02 -0.70473543937E+02  0.29648599545E+03  0.30530924958E+03  0.00000000000E+00 0.  1.
</event>
<event>
12    1  0.1050869E+000  0.1949665E+03  0.7818608E-02  0.1154461E+00
         21   -1    0    0  501  502  0.00000000000E+00  0.00000000000E+00  0.95074759639E+02  0.95074759639E+02  0.00000000000E+00 0.  1.
         21   -1    0    0  502  503 -0.00000000000E+00 -0.00000000000E+00 -0.40028925699E+03  0.40028925699E+03  0.00000000000E+00 0.  1.
         -6    2    1    2    0  503  0.43445419546E+02  0.80542783339E+02 -0.17741193051E+03  0.26224293923E+03  0.17006387523E+03 0.  0.
        -24    2    3    3    0    0  0.61136805843E+02  0.41135512204E+02 -0.18916829784E+03  0.21722938193E+03  0.77292432192E+02 0.  0.
          6    2    1    2  501    0 -0.43445419546E+02 -0.80542783339E+02 -0.12780256684E+03  0.23312107740E+03  0.17215486113E+03 0.  0.
         24    2    5    5    0    0 -0.44959048320E+02 -0.55422351798E+02 -0.67331895019E+01  0.10937451672E+03  0.82610507573E+02 0.  0.
          5    1    5    5  501    0  0.15136287740E+01 -0.25120431541E+02 -0.12106937734E+03  0.12374656069E+03  0.47000000000E+01 0. -1.
        -11    1    6    6    0    0 -0.21270094068E+02 -0.80937637540E+01 -0.40597910915E+02  0.46541554379E+02  0.00000000000E+00 0.  1.
         12    1    6    6    0    0 -0.23688954252E+02 -0.47328588044E+02  0.33864721413E+02  0.62832962338E+02  0.00000000000E+00 0. -1.
         -5    1    3    3    0  503 -0.17691386297E+02  0.39407271135E+02  0.11756367330E+02  0.45013557293E+02  0.47000000000E+01 0.  1.
         11    1    4    4    0    0 -0.18423302204E+02  0.86352135452E+01 -0.28470267960E+02  0.34993444168E+02  0.00000000000E+00 0. -1.
        -12    1    4    4    0    0  0.79560108047E+02  0.32500298659E+02 -0.16069802988E+03  0.18223593777E+03  0.00000000000E+00 0.  1.
</event>
<event>
12    1  0.1050869E+000  0.2325078E+03  0.7818608E-02  0.1125044E+00
         21   -1    0    0  503  502  0.00000000000E+00  0.00000000000E+00  0.15920582516E+03  0.15920582516E+03  0.00000000000E+00 0. -1.
         21   -1    0    0  501  503 -0.00000000000E+00 -0.00000000000E+00 -0.48036078718E+03  0.48036078718E+03  0.00000000000E+00 0. -1.
          6    2    1    2  501    0  0.12069131645E+03  0.97772260872E+02 -0.33429612835E+03  0.40668773455E+03  0.17179989272E+03 0.  0.
         24    2    3    3    0    0 -0.87423638783E+01  0.29375463556E+02 -0.11778808996E+03  0.14528953223E+03  0.79345240899E+02 0.  0.
         -6    2    1    2    0  502 -0.12069131645E+03 -0.97772260872E+02  0.13141166328E+02  0.23287887780E+03  0.17301466010E+03 0.  0.
        -24    2    5    5    0    0 -0.87201946472E+02 -0.12996142774E+02 -0.42154549809E+02  0.12616320732E+03  0.79793919675E+02 0.  0.
          5    1    3    3  501    0  0.12943368033E+03  0.68396797316E+02 -0.21650803839E+03  0.26139820231E+03  0.47000000000E+01 0. -1.
        -11    1    4    4    0    0  0.34855436277E+02  0.20815829628E+02 -0.58192400519E+02  0.70954602947E+02  0.00000000000E+00 0.  1.
         12    1    4    4    0    0 -0.43597800155E+02  0.85596339282E+01 -0.59595689446E+02  0.74334929285E+02  0.00000000000E+00 0. -1.
         -5    1    5    5    0  502 -0.33489369982E+02 -0.84776118098E+02  0.55295716137E+02  0.10671567047E+03  0.47000000000E+01 0.  1.
         13    1    6    6    0    0 -0.11812838254E+02  0.26367578406E+02  0.43713382916E+01  0.29221583412E+02  0.00000000000E+00 0. -1.
        -14    1    6    6    0    0 -0.75389108219E+02 -0.39363721181E+02 -0.46525888101E+02  0.96941623912E+02  0.00000000000E+00 0.  1.
</event>
<event>
12    1  0.1050869E+000  0.2557680E+03  0.7818608E-02  0.1110111E+00
         21   -1    0    0  503  502  0.00000000000E+00  0.00000000000E+00  0.62973813547E+03  0.62973813547E+03  0.00000000000E+00 0. -1.
         21   -1    0    0  501  503 -0.00000000000E+00 -0.00000000000E+00 -0.18105101294E+03  0.18105101294E+03  0.00000000000E+00 0. -1.
          6    2    1    2  501    0  0.18077717380E+03  0.55256590257E+02 -0.42760403443E+02  0.25676933527E+03  0.16842910110E+03 0.  0.
         24    2    3    3    0    0  0.20468517379E+03  0.41199135735E+02 -0.28409187798E+02  0.22519004012E+03  0.79436031265E+02 0.  0.
         -6    2    1    2    0  502 -0.18077717380E+03 -0.55256590257E+02  0.49144752597E+03  0.55401981314E+03  0.17228930681E+03 0.  0.
        -24    2    5    5    0    0 -0.50439853555E+02 -0.85654144009E+01  0.21170987556E+03  0.24186099778E+03  0.10515762306E+03 0.  0.
          5    1    3    3  501    0 -0.23907999993E+02  0.14057454522E+02 -0.14351215645E+02  0.31579295144E+02  0.47000000000E+01 0. -1.
        -13    1    4    4    0    0  0.14558135411E+03  0.45055467608E+02  0.12959349696E+02  0.15294401123E+03  0.00000000000E+00 0.  1.
         14    1    4    4    0    0  0.59103819680E+02 -0.38563318725E+01 -0.41368537494E+02  0.72246028892E+02  0.00000000000E+00 0. -1.
         -5    1    5    5    0  502 -0.13033732025E+03 -0.46691175856E+02  0.27973765041E+03  0.31215881536E+03  0.47000000000E+01 0.  1.
         13    1    6    6    0    0 -0.19034936320E+02 -0.26979320505E+02  0.67604624304E+01  0.33703358704E+02  0.00000000000E+00 0. -1.
        -14    1    6    6    0    0 -0.31404917235E+02  0.18413906104E+02  0.20494941313E+03  0.20815763908E+03  0.00000000000E+00 0.  1.
</event>
<event>
12    1  0.1050869E+000  0.2991724E+03  0.7818608E-02  0.1085657E+00
         21   -1    0    0  501  502  0.00000000000E+00  0.00000000000E+00  0.27360404100E+03  0.27360404100E+03  0.00000000000E+00 0. -1.
         21   -1    0    0  502  503 -0.00000000000E+00 -0.00000000000E+00 -0.55339239723E+03  0.55339239723E+03  0.00000000000E+00 0. -1.
         -6    2    1    2    0  503 -0.23076824119E+03 -0.85259653948E+02 -0.40430374966E+03  0.50294678089E+03  0.17020796892E+03 0.  0.
        -24    2    3    3    0    0 -0.50102933764E+02 -0.64355856914E+02 -0.16408728637E+03  0.20161148380E+03  0.84086696686E+02 0.  0.
          6    2    1    2  501    0  0.23076824119E+03  0.85259653948E+02  0.12451539344E+03  0.32404965734E+03  0.17023779688E+03 0.  0.
         24    2    5    5    0    0  0.41063816664E+02 -0.74632576180E+00  0.15132402534E+02  0.88738106561E+02  0.77192408361E+02 0.  0.
          5    1    5    5  501    0  0.18970442452E+03  0.86005979710E+02  0.10938299090E+03  0.23531155078E+03  0.47000000000E+01 0. -1.
        -13    1    6    6    0    0  0.56743531672E+02  0.12378702995E+02 -0.71253234446E+01  0.58513510479E+02  0.00000000000E+00 0.  1.
         14    1    6    6    0    0 -0.15679715008E+02 -0.13125028757E+02  0.22257725978E+02  0.30224596082E+02  0.00000000000E+00 0. -1.
         -5    1    3    3    0  503 -0.18066530742E+03 -0.20903797034E+02 -0.24021646329E+03  0.30133529709E+03  0.47000000000E+01 0.  1.
         13    1    4    4    0    0 -0.43262157534E+01  0.19837660246E+02 -0.19523042461E+02  0.28167323155E+02  0.00000000000E+00 0. -1.
        -14    1    4    4    0    0 -0.45776718010E+02 -0.84193517160E+02 -0.14456424391E+03  0.17344416064E+03  0.00000000000E+00 0.  1.
</event>
<event>
12    1  0.1050869E+000  0.1774838E+03  0.7818608E-02  0.1170275E+00
         21   -1    0    0  503  502  0.00000000000E+00  0.00000000000E+00  0.97446526758E+02  0.97446526758E+02  0.00000000000E+00 0. -1.
         21   -1    0    0  501  503 -0.00000000000E+00 -0.00000000000E+00 -0.32400441569E+03  0.32400441569E+03  0.00000000000E+00 0. -1.
          6    2    1    2  501    0  0.43542571274E+02 -0.12937661245E+02 -0.12407660053E+03  0.21655371214E+03  0.17157263433E+03 0.  0.
         24    2    3    3    0    0  0.23847846115E+02 -0.33648700311E+01  0.88625129895E+01  0.81741181443E+02  0.77608211502E+02 0.  0.
         -6    2    1    2    0  502 -0.43542571274E+02  0.12937661245E+02 -0.10248128841E+03  0.20489723031E+03  0.17151420327E+03 0.  0.
        -24    2    5    5    0    0 -0.32769877660E+02 -0.49570323893E+02 -0.19998930266E+02  0.10074000042E+03  0.78851179952E+02 0.  0.
          5    1    3    3  501    0  0.19694725159E+02 -0.95727912135E+01 -0.13293911352E+03  0.13481253070E+03  0.47000000000E+01 0. -1.
        -11    1    4    4    0    0 -0.80716815304E+01  0.32356328315E+02  0.41535951424E+01  0.33605600387E+02  0.00000000000E+00 0.  1.
         12    1    4    4    0    0  0.31919527645E+02 -0.35721198346E+02  0.47089178471E+01  0.48135581056E+02  0.00000000000E+00 0. -1.
         -5    1    5    5    0  502 -0.10772693614E+02  0.62507985138E+02 -0.82482358140E+02  0.10415722989E+03  0.47000000000E+01 0.  1.
         13    1    6    6    0    0 -0.45048608943E+02 -0.19156841060E+01  0.53122094885E+01  0.45401173806E+02  0.00000000000E+00 0. -1.
        -14    1    6    6    0    0  0.12278731283E+02 -0.47654639787E+02 -0.25311139755E+02  0.55338826613E+02  0.00000000000E+00 0.  1.
</event>
<event>
12    1  0.1050869E+000  0.2373409E+03  0.7818608E-02  0.1121675E+00
         21   -1    0    0  503  502  0.00000000000E+00  0.00000000000E+00  0.20174679619E+03  0.20174679619E+03  0.00000000000E+00 0. -1.
         21   -1    0    0  501  503 -0.00000000000E+00 -0.00000000000E+00 -0.27963187078E+03  0.27963187078E+03  0.00000000000E+00 0. -1.
          6    2    1    2  501    0 -0.97440647530E+02  0.13107995160E+03 -0.23799406147E+02  0.23795317261E+03  0.17140206276E+03 0.  0.
         24    2    3    3    0    0 -0.11603409362E+03  0.77681660335E+02  0.25355922218E+02  0.16288367112E+03  0.79936326474E+02 0.  0.
         -6    2    1    2    0  502  0.97440647530E+02 -0.13107995160E+03 -0.54085668437E+02  0.24342549436E+03  0.17220359541E+03 0.  0.
        -24    2    5    5    0    0  0.89022400944E-01 -0.94361730852E+02 -0.64476062435E+02  0.13875641136E+03  0.78689483991E+02 0.  0.
          5    1    3    3  501    0  0.18593446092E+02  0.53398291265E+02 -0.49155328365E+02  0.75069501492E+02  0.47000000000E+01 0. -1.
        -13    1    4    4    0    0 -0.12096026856E+03  0.68102951818E+02  0.38921260181E+01  0.13886881314E+03  0.00000000000E+00 0.  1.
         14    1    4    4    0    0  0.49261749432E+01  0.95787085171E+01  0.21463796200E+02  0.24014857979E+02  0.00000000000E+00 0. -1.
         -5    1    5    5    0  502  0.97351625129E+02 -0.36718220748E+02  0.10390393998E+02  0.10466908301E+03  0.47000000000E+01 0.  1.
         11    1    6    6    0    0 -0.18560587215E+02 -0.16221965113E+02  0.12374789131E+02  0.27582294247E+02  0.00000000000E+00 0. -1.
        -12    1    6    6    0    0  0.18649609616E+02 -0.78139765739E+02 -0.76850851566E+02  0.11117411711E+03  0.00000000000E+00 0.  1.
</event>
<event>
12    1  0.1050869E+000  0.2153778E+03  0.7818608E-02  0.1137556E+00
         21   -1    0    0  501  502  0.00000000000E+00  0.00000000000E+00  0.55051316517E+03  0.55051316517E+03  0.00000000000E+00 0. -1.
         21   -1    0    0  502  503 -0.00000000000E+00 -0.00000000000E+00 -0.85762315033E+02  0.85762315033E+02  0.00000000000E+00 0. -1.
         -6    2    1    2    0  503 -0.56279811426E+02 -0.11616963751E+03  0.27978797963E+03  0.35308482052E+03  0.17240874422E+03 0.  0.
        -24    2    3    3    0    0 -0.44033773301E+02 -0.80516667749E+02  0.28584177509E+03  0.31461615611E+03  0.94105782601E+02 0.  0.
          6    2    1    2  501    0  0.56279811426E+02  0.11616963751E+03  0.18496287051E+03  0.28319065969E+03  0.17123926073E+03 0.  0.
         24    2    5    5    0    0 -0.17268786661E+02  0.76810449938E+02  0.16402263866E+03  0.19705631557E+03  0.75694843289E+02 0.  0.
          5    1    5    5  501    0  0.73548598087E+02  0.39359187568E+02  0.20940231850E+02  0.86134344117E+02  0.47000000000E+01 0. -1.
        -13    1    6    6    0    0  0.34434840643E+01  0.50995042493E+02  0.30558951366E+02  0.59549991184E+02  0.00000000000E+00 0.  1.
         14    1    6    6    0    0 -0.20712270725E+02  0.25815407445E+02  0.13346368729E+03  0.13750632439E+03  0.00000000000E+00 0. -1.
         -5    1    3    3    0  503 -0.12246038125E+02 -0.35652969758E+02 -0.60537954607E+01  0.38468664414E+02  0.47000000000E+01 0.  1.
         11    1    4    4    0    0 -0.67947678424E+02 -0.27786969293E+02  0.16687828297E+03  0.18231117352E+03  0.00000000000E+00 0. -1.
        -12    1    4    4    0    0  0.23913905124E+02 -0.52729698456E+02  0.11896349212E+03  0.13230498258E+03  0.00000000000E+00 0.  1.
</event>
<event>
12    1  0.1050869E+000  0.1749719E+03  0.7818608E-02  0.1172983E+00
         21   -1    0    0  501  502  0.00000000000E+00  0.00000000000E+00  0.53004055070E+02  0.53004055070E+02  0.00000000000E+00 0. -1.
         21   -1    0    0  502  503 -0.00000000000E+00 -0.00000000000E+00 -0.88045931977E+03  0.88045931977E+03  0.00000000000E+00 0. -1.
         -6    2    1    2    0  503 -0.80270500060E+01  0.29457474216E+02 -0.13798691418E+03  0.22213942710E+03  0.17138658136E+03 0.  0.
        -24    2    3    3    0    0  0.59124700856E+02  0.68900991990E+01 -0.98877727581E+02  0.14108227113E+03  0.81143074235E+02 0.  0.
          6    2    1    2  501    0  0.80270500060E+01 -0.29457474216E+02 -0.68946835052E+03  0.71132394774E+03  0.17228748048E+03 0.  0.
         24    2    5    5    0    0 -0.14454982533E+02 -0.79305591818E+02 -0.38820939762E+03  0.40510617666E+03  0.83103276460E+02 0.  0.
          5    1    5    5  501    0  0.22482032539E+02  0.49848117601E+02 -0.30125895290E+03  0.30621777107E+03  0.47000000000E+01 0. -1.
        -11    1    6    6    0    0 -0.20262543945E+02  0.80585503371E+01 -0.14470242063E+03  0.14633626160E+03  0.00000000000E+00 0.  1.
         12    1    6    6    0    0  0.58075614122E+01 -0.87364142155E+02 -0.24350697699E+03  0.25876991507E+03  0.00000000000E+00 0. -1.
         -5    1    3    3    0  503 -0.67151750862E+02  0.22567375017E+02 -0.39109186596E+02  0.81057155978E+02  0.47000000000E+01 0.  1.
         11    1    4    4    0    0  0.52030138504E+02 -0.30157151215E+02 -0.44106014182E+02  0.74578345176E+02  0.00000000000E+00 0. -1.
        -12    1    4    4    0    0  0.70945623520E+01  0.37047250414E+02 -0.54771713398E+02  0.66503925950E+02  0.00000000000E+00 0.  1.
</event>
<event>
12    1  0.1050869E+000  0.1981126E+03  0.7818608E-02  0.1152623E+00
         21   -1    0    0  501  502  0.00000000000E+00  0.00000000000E+00  0.15399360340E+03  0.15399360340E+03  0.00000000000E+00 0. -1.
         21   -1    0    0  502  503 -0.00000000000E+00 -0.00000000000E+00 -0.25776739555E+03  0.25776739555E+03  0.00000000000E+00 0. -1.
         -6    2    1    2    0  503 -0.80935884958E+02  0.34651457744E+02 -0.94061053054E+02  0.21930819453E+03  0.17747467844E+03 0.  0.
        -24    2    3    3    0    0 -0.64098003700E+02  0.29530712079E+02 -0.13676872548E+03  0.17287790737E+03  0.78743060352E+02 0.  0.
          6    2    1    2  501    0  0.80935884958E+02 -0.34651457744E+02 -0.97127390994E+01  0.19245280442E+03  0.17085784626E+03 0.  0.
         24    2    5    5    0    0  0.88916058569E+02  0.11730300431E+02  0.37681771706E+02  0.12549550222E+03  0.79281395926E+02 0.  0.
          5    1    5    5  501    0 -0.79801736115E+01 -0.46381758175E+02 -0.47394510806E+02  0.66957302192E+02  0.47000000000E+01 0. -1.
        -13    1    6    6    0    0  0.21122927145E+02  0.15352044057E+02  0.50083704461E+02  0.56482216320E+02  0.00000000000E+00 0.  1.
         14    1    6    6    0    0  0.67793131425E+02 -0.36217436266E+01 -0.12401932755E+02  0.69013285904E+02  0.00000000000E+00 0. -1.
         -5    1    3    3    0  503 -0.16837881258E+02  0.51207456656E+01  0.42707672426E+02  0.46430287157E+02  0.47000000000E+01 0.  1.
         13    1    4    4    0    0 -0.48664973251E+02  0.38372669899E+02 -0.38382562911E+02  0.72896931021E+02  0.00000000000E+00 0. -1.
        -14    1    4    4    0    0 -0.15433030448E+02 -0.88419578199E+01 -0.98386162568E+02  0.99980976350E+02  0.00000000000E+00 0.  1.
</event>
<event>
12    1  0.1050869E+000  0.2050224E+03  0.7818608E-02  0.1145840E+00
         21   -1    0    0  501  502  0.00000000000E+00  0.00000000000E+00  0.36592442629E+03  0.36592442629E+03  0.00000000000E+00 0.  1.
         21   -1    0    0  502  503 -0.00000000000E+00 -0.00000000000E+00 -0.13067338305E+03  0.13067338305E+03  0.00000000000E+00 0.  1.
         -6    2    1    2    0  503  0.10941662508E+03  0.95490689858E+01  0.28957365775E+02  0.20575200091E+03  0.17155807846E+03 0.  0.
        -24    2    3    3    0    0 -0.10589621110E+00  0.27036091462E+02  0.39702619021E+02  0.94223847104E+02  0.81060927396E+02 0.  0.
          6    2    1    2  501    0 -0.10941662508E+03 -0.95490689858E+01  0.20629367746E+03  0.29084580843E+03  0.17312140352E+03 0.  0.
         24    2    5    5    0    0 -0.63911287386E+02 -0.71997923994E+02  0.11408895563E+03  0.17045313432E+03  0.82277746008E+02 0.  0.
          5    1    5    5  501    0 -0.45505337692E+02  0.62448855008E+02  0.92204721837E+02  0.12039267411E+03  0.47000000000E+01 0. -1.
        -11    1    6    6    0    0 -0.63572663727E+02 -0.50237838926E+02  0.34715697033E+02  0.88150460315E+02  0.00000000000E+00 0.  1.
         12    1    6    6    0    0 -0.33862365881E+00 -0.21760085067E+02  0.79373258595E+02  0.82302674003E+02  0.00000000000E+00 0. -1.
         -5    1    3    3    0  503  0.10952252129E+03 -0.17487022476E+02 -0.10745253246E+02  0.11152815381E+03  0.47000000000E+01 0.  1.
         11    1    4    4    0    0  0.20105811967E+01  0.27545694922E+02 -0.20240269670E+02  0.34241440708E+02  0.00000000000E+00 0. -1.
        -12    1    4    4    0    0 -0.21164774078E+01 -0.50960345996E+00  0.59942888691E+02  0.59982406395E+02  0.00000000000E+00 0.  1.
</event>
<event>
12    1  0.1050869E+000  0.2050698E+03  0.7818608E-02  0.1146112E+00
         21   -1    0    0  501  502  0.00000000000E+00  0.00000000000E+00  0.10863727737E+03  0.10863727737E+03  0.00000000000E+00 0.  1.
         21   -1    0    0  502  503 -0.00000000000E+00 -0.00000000000E+00 -0.45063147225E+03  0.45063147225E+03  0.00000000000E+00 0.  1.
         -6    2    1    2    0  503  0.27823977485E+02 -0.10177871520E+03 -0.28130245320E+03  0.34811592253E+03  0.17584238610E+03 0.  0.
        -24    2    3    3    0    0 -0.37274316119E+02 -0.72308388781E+02 -0.94514679607E+02  0.14807080178E+03  0.79837710074E+02 0.  0.
          6    2    1    2  501    0 -0.27823977485E+02  0.10177871520E+03 -0.60691741669E+02  0.21115282709E+03  0.17253680271E+03 0.  0.
         24    2    5    5    0    0 -0.62199451243E+02  0.88317795945E+01 -0.21147033767E+02  0.10435076738E+03  0.80592267307E+02 0.  0.
          5    1    5    5  501    0  0.34375473757E+02  0.92946935609E+02 -0.39544707902E+02  0.10680205971E+03  0.47000000000E+01 0. -1.
        -11    1    6    6    0    0 -0.55070246149E+02 -0.47060989539E+01  0.21297839363E+02  0.59232401097E+02  0.00000000000E+00 0.  1.
         12    1    6    6    0    0 -0.71292050938E+01  0.13537878548E+02 -0.42444873130E+02  0.45118366281E+02  0.00000000000E+00 0. -1.
         -5    1    3    3    0  503  0.65098293604E+02 -0.29470326423E+02 -0.18678777360E+03  0.20004512075E+03  0.47000000000E+01 0.  1.
         11    1    4    4    0    0  0.21390886858E+01 -0.73998667921E+02 -0.54910978559E+02  0.92171547241E+02  0.00000000000E+00 0. -1.
        -12    1    4    4    0    0 -0.39413404805E+02  0.16902791404E+01 -0.39603701048E+02  0.55899254544E+02  0.00000000000E+00 0.  1.
</event>
<event>
12    1  0.1050869E+000  0.1909871E+03  0.7818608E-02  0.1157724E+00
         21   -1    0    0  503  502  0.00000000000E+00  0.00000000000E+00  0.12866701332E+04  0.12866701332E+04  0.00000000000E+00 0.  1.
         21   -1    0    0  501  503 -0.00000000000E+00 -0.00000000000E+00 -0.38059803206E+02  0.38059803206E+02  0.00000000000E+00 0.  1.
          6    2    1    2  501    0 -0.71504125164E+02 -0.37554476621E+02  0.96139627023E+03  0.98018307898E+03  0.17306906503E+03 0.  0.
         24    2    3    3    0    0 -0.47835749645E+02 -0.33129404347E+02  0.94609760504E+03  0.95127092892E+03  0.80186567264E+02 0.  0.
         -6    2    1    2    0  502  0.71504125164E+02  0.37554476621E+02  0.28721405980E+03  0.34454685747E+03  0.17232945835E+03 0.  0.
        -24    2    5    5    0    0  0.10660003646E+03  0.41941531834E+01  0.16060810388E+03  0.20891576869E+03  0.80434300382E+02 0.  0.
          5    1    3    3  501    0 -0.23668375519E+02 -0.44250722746E+01  0.15298665192E+02  0.28912150059E+02  0.47000000000E+01 0. -1.
        -11    1    4    4    0    0  0.22314312614E+02 -0.29304100137E+01  0.24132840296E+03  0.24237556380E+03  0.00000000000E+00 0.  1.
         12    1    4    4    0    0 -0.70150062259E+02 -0.30198994333E+02  0.70476920208E+03  0.70889536512E+03  0.00000000000E+00 0. -1.
         -5    1    5    5    0  502 -0.35095911301E+02  0.33360323438E+02  0.12660595592E+03  0.13563108878E+03  0.47000000000E+01 0.  1.
         13    1    6    6    0    0  0.25327252394E+02  0.33616097381E+02  0.27743316681E+02  0.50410349507E+02  0.00000000000E+00 0. -1.
        -14    1    6    6    0    0  0.81272784071E+02 -0.29421944198E+02  0.13286478720E+03  0.15850541918E+03  0.00000000000E+00 0.  1.
</event>
<event>
12    1  0.1050869E+000  0.1765066E+03  0.7818608E-02  0.1172387E+00
         21   -1    0    0  503  502  0.00000000000E+00  0.00000000000E+00  0.93758254118E+02  0.93758254118E+02  0.00000000000E+00 0. -1.
         21   -1    0    0  501  503 -0.00000000000E+00 -0.00000000000E+00 -0.34482108671E+03  0.34482108671E+03  0.00000000000E+00 0. -1.
          6    2    1    2  501    0  0.25658932183E+02  0.19611073776E+02 -0.69675379916E+02  0.18548651632E+03  0.16884197984E+03 0.  0.
         24    2    3    3    0    0 -0.29652377181E+02 -0.24287880473E+02 -0.82867460152E+02  0.11349637735E+03  0.67418447847E+02 0.  0.
         -6    2    1    2    0  502 -0.25658932183E+02 -0.19611073776E+02 -0.18138745267E+03  0.25309282450E+03  0.17352692820E+03 0.  0.
        -24    2    5    5    0    0  0.34590091202E+02 -0.16970187230E+02 -0.36722596839E+02  0.96290625491E+02  0.80242593271E+02 0.  0.
          5    1    3    3  501    0  0.55311309365E+02  0.43898954250E+02  0.13192080237E+02  0.71990138969E+02  0.47000000000E+01 0. -1.
        -13    1    4    4    0    0  0.10713808416E+02 -0.32511093159E+02 -0.24670600264E+02  0.42194731740E+02  0.00000000000E+00 0.  1.
         14    1    4    4    0    0 -0.40366185597E+02  0.82232126859E+01 -0.58196859888E+02  0.71301645615E+02  0.00000000000E+00 0. -1.
         -5    1    5    5    0  502 -0.60249023385E+02 -0.26408865469E+01 -0.14466485583E+03  0.15680219901E+03  0.47000000000E+01 0.  1.
         11    1    6    6    0    0  0.41125175628E+01  0.10087112687E+02 -0.51726748792E+02  0.52861320298E+02  0.00000000000E+00 0. -1.
        -12    1    6    6    0    0  0.30477573639E+02 -0.27057299917E+02  0.15004151953E+02  0.43429305193E+02  0.00000000000E+00 0.  1.
</event>
<event>
12    1  0.1050869E+000  0.2192084E+03  0.7818608E-02  0.1134591E+00
         21   -1    0    0  503  502  0.00000000000E+00  0.00000000000E+00  0.56638021659E+03  0.56638021659E+03  0.00000000000E+00 0. -1.
         21   -1    0    0  501  503 -0.00000000000E+00 -0.00000000000E+00 -0.85283977127E+02  0.85283977127E+02  0.00000000000E+00 0. -1.
          6    2    1    2  501    0 -0.13300190675E+01  0.13579621284E+03  0.26936625598E+03  0.34689886878E+03  0.17128416425E+03 0.  0.
         24    2    3    3    0    0 -0.31697752751E+02  0.15338208645E+03  0.25217018222E+03  0.30753826471E+03  0.80368970913E+02 0.  0.
         -6    2    1    2    0  502  0.13300190675E+01 -0.13579621284E+03  0.21172998348E+03  0.30476532494E+03  0.17207538176E+03 0.  0.
        -24    2    5    5    0    0 -0.93930677069E+01  0.16691520554E+01  0.87220535277E+02  0.11892559875E+03  0.80279888359E+02 0.  0.
          5    1    3    3  501    0  0.30367733684E+02 -0.17585873610E+02  0.17196073761E+02  0.39360604067E+02  0.47000000000E+01 0. -1.
        -11    1    4    4    0    0 -0.26876297706E+02  0.47410448260E+01  0.41158292465E+02  0.49384389467E+02  0.00000000000E+00 0.  1.
         12    1    4    4    0    0 -0.48214550454E+01  0.14864104163E+03  0.21101188975E+03  0.25815387524E+03  0.00000000000E+00 0. -1.
         -5    1    5    5    0  502  0.10723086774E+02 -0.13746536490E+03  0.12450944820E+03  0.18583972619E+03  0.47000000000E+01 0.  1.
         13    1    6    6    0    0 -0.26582355804E+01  0.34403896746E+02  0.76343703863E+02  0.83779803337E+02  0.00000000000E+00 0. -1.
        -14    1    6    6    0    0 -0.67348321265E+01 -0.32734744691E+02  0.10876831414E+02  0.35145795415E+02  0.00000000000E+00 0.  1.
</event>
<event>
12    1  0.1050869E+000  0.2812277E+03  0.7818608E-02  0.1095118E+00
         21   -1    0    0  501  502  0.00000000000E+00  0.00000000000E+00  0.10371901629E+03  0.10371901629E+03  0.00000000000E+00 0. -1.
         21   -1    0    0  502  503 -0.00000000000E+00 -0.00000000000E+00 -0.76061882527E+03  0.76061882527E+03  0.00000000000E+00 0. -1.
         -6    2    1    2    0  503 -0.17360425856E+02  0.22100984818E+03 -0.33080935095E+03  0.43372898817E+03  0.17186992502E+03 0.  0.
        -24    2    3    3    0    0 -0.50242686368E+02  0.72952620316E+02 -0.22085979405E+03  0.24634387446E+03  0.63716901301E+02 0.  0.
          6    2    1    2  501    0  0.17360425856E+02 -0.22100984818E+03 -0.32609045802E+03  0.43060885339E+03  0.17303832069E+03 0.  0.
         24    2    5    5    0    0  0.12641197667E+02 -0.11992816205E+03 -0.80880444041E+02  0.16529805576E+03  0.78988841470E+02 0.  0.
          5    1    5    5  501    0  0.47192281894E+01 -0.10108168613E+03 -0.24521001398E+03  0.26531079763E+03  0.47000000000E+01 0. -1.
        -13    1    6    6    0    0  0.23838681106E+02 -0.24001430122E+02 -0.56233914102E+02  0.65624724457E+02  0.00000000000E+00 0.  1.
         14    1    6    6    0    0 -0.11197483439E+02 -0.95926731930E+02 -0.24646529939E+02  0.99673331298E+02  0.00000000000E+00 0. -1.
         -5    1    3    3    0  503  0.32882260511E+02  0.14805722786E+03 -0.10994955690E+03  0.18738511371E+03  0.47000000000E+01 0.  1.
         13    1    4    4    0    0 -0.51075576380E+02  0.80892854704E+02 -0.21763424687E+03  0.23773311477E+03  0.00000000000E+00 0. -1.
        -14    1    4    4    0    0  0.83289001217E+00 -0.79402343882E+01 -0.32255471792E+01  0.86107596945E+01  0.00000000000E+00 0.  1.
</event>
<event>
12    1  0.1050869E+000  0.2025406E+03  0.7818608E-02  0.1148173E+00
         21   -1    0    0  501  502  0.00000000000E+00  0.00000000000E+00  0.16403315976E+03  0.16403315976E+03  0.00000000000E+00 0.  1.
         21   -1    0    0  502  503 -0.00000000000E+00 -0.00000000000E+00 -0.36199852011E+03  0.36199852011E+03  0.00000000000E+00 0.  1.
         -6    2    1    2    0  503  0.10569040303E+03  0.14101370253E+02 -0.24691001794E+03  0.31766115848E+03  0.16904065994E+03 0.  0.
        -24    2    3    3    0    0  0.30237508047E+02 -0.49476078446E+02 -0.71814108587E+02  0.11662410016E+03  0.71286221076E+02 0.  0.
          6    2    1    2  501    0 -0.10569040303E+03 -0.14101370253E+02  0.48944657595E+02  0.20837052139E+03  0.17220158171E+03 0.  0.
         24    2    5    5    0    0 -0.90925590634E+02 -0.47978508897E+02  0.86127964876E+02  0.15573642078E+03  0.79160634624E+02 0.  0.
          5    1    5    5  501    0 -0.14764812392E+02  0.33877138644E+02 -0.37183307281E+02  0.52634100619E+02  0.47000000000E+01 0. -1.
        -11    1    6    6    0    0 -0.88919622606E+02 -0.51713956200E+02  0.41520392123E+02  0.11092779414E+03  0.00000000000E+00 0.  1.
         12    1    6    6    0    0 -0.20059680287E+01  0.37354473034E+01  0.44607572752E+02  0.44808626637E+02  0.00000000000E+00 0. -1.
         -5    1    3    3    0  503  0.75452894979E+02  0.63577448699E+02 -0.17509590936E+03  0.20103705832E+03  0.47000000000E+01 0.  1.
         13    1    4    4    0    0  0.51345835166E+02 -0.22020069666E+02 -0.34248789861E+02  0.65530587239E+02  0.00000000000E+00 0. -1.
        -14    1    4    4    0    0 -0.21108327119E+02 -0.27456008780E+02 -0.37565318726E+02  0.51093512924E+02  0.00000000000E+00 0.  1.
</event>
<event>
12    1  0.1050869E+000  0.1808533E+03  0.7818608E-02  0.1167248E+00
         21   -1    0    0  503  502  0.00000000000E+00  0.00000000000E+00  0.18694457453E+03  0.18694457453E+03  0.00000000000E+00 0.  1.
         21   -1    0    0  501  503 -0.00000000000E+00 -0.00000000000E+00 -0.46653517671E+03  0.46653517671E+03  0.00000000000E+00 0.  1.
          6    2    1    2  501    0 -0.56066956009E+02  0.10904677414E+02  0.11914603591E+03  0.21564551291E+03  0.17042533210E+03 0.  0.
         24    2    3    3    0    0  0.61053272116E+01 -0.29701615581E+02  0.11226528104E+03  0.14092136273E+03  0.79598217063E+02 0.  0.
         -6    2    1    2    0  502  0.56066956009E+02 -0.10904677414E+02 -0.39873663808E+03  0.43783423833E+03  0.17159690604E+03 0.  0.
        -24    2    5    5    0    0  0.67936006671E+02  0.17586149777E+02 -0.13426949189E+03  0.17153072163E+03  0.80435802614E+02 0.  0.
          5    1    3    3  501    0 -0.62172283221E+02  0.40606292995E+02  0.68807548659E+01  0.74724150174E+02  0.47000000000E+01 0. -1.
        -13    1    4    4    0    0 -0.52246735377E+01 -0.52190221742E+02  0.45043308743E+02  0.69137660661E+02  0.00000000000E+00 0.  1.
         14    1    4    4    0    0  0.11330000749E+02  0.22488606162E+02  0.67221972296E+02  0.71783702074E+02  0.00000000000E+00 0. -1.
         -5    1    5    5    0  502 -0.11869050661E+02 -0.28490827191E+02 -0.26446714619E+03  0.26630351671E+03  0.47000000000E+01 0.  1.
         13    1    6    6    0    0  0.20670822156E+01 -0.22378430003E+02 -0.61797198123E+02  0.65756829715E+02  0.00000000000E+00 0. -1.
        -14    1    6    6    0    0  0.65868924455E+02  0.39964579780E+02 -0.72472293769E+02  0.10577389191E+03  0.00000000000E+00 0.  1.
</event>
<event>
12    1  0.1416973E+000  0.3143948E+03  0.7818608E-02  0.1078474E+00
         21   -1    0    0  501  502  0.00000000000E+00  0.00000000000E+00  0.37665820200E+03  0.37665820200E+03  0.00000000000E+00 0. -1.
         21   -1    0    0  502  503 -0.00000000000E+00 -0.00000000000E+00 -0.76395870065E+03  0.76395870065E+03  0.00000000000E+00 0. -1.
         -6    2    1    2    0  503 -0.17360005028E+03  0.19507601253E+03  0.26894559144E+03  0.41373400999E+03  0.17507847309E+03 0.  0.
        -24    2    3    3    0    0 -0.19852125744E+02  0.10615151412E+03  0.86416306446E+02  0.15900862727E+03  0.78445616064E+02 0.  0.
          6    2    1    2  501    0  0.17360005028E+03 -0.19507601253E+03 -0.65624609009E+03  0.72688289267E+03  0.17177945386E+03 0.  0.
         24    2    5    5    0    0  0.97147747104E+02 -0.17252630107E+03 -0.57464641960E+03  0.61271617084E+03  0.77457014678E+02 0.  0.
          5    1    5    5  501    0  0.76452303179E+02 -0.22549711467E+02 -0.81599670495E+02  0.11416672183E+03  0.47000000000E+01 0. -1.
        -13    1    6    6    0    0  0.33391312386E+02 -0.55297047408E+02 -0.30609828994E+03  0.31284006505E+03  0.00000000000E+00 0.  1.
         14    1    6    6    0    0  0.63756434717E+02 -0.11722925366E+03 -0.26854812966E+03  0.29987610579E+03  0.00000000000E+00 0. -1.
         -5    1    3    3    0  503 -0.15374792454E+03  0.88924498410E+02  0.18252928500E+03  0.25472538272E+03  0.47000000000E+01 0.  1.
         11    1    4    4    0    0 -0.11455845177E+02  0.12587869588E+02 -0.13605391216E+02  0.21789849003E+02  0.00000000000E+00 0. -1.
        -12    1    4    4    0    0 -0.83962805669E+01  0.93563644536E+02  0.10002169766E+03  0.13721877827E+03  0.00000000000E+00 0.  1.
</event>
<event>
12    1  0.1050869E+000  0.2028206E+03  0.7818608E-02  0.1147696E+00
         21   -1    0    0  501  502  0.00000000000E+00  0.00000000000E+00  0.40821891579E+02  0.40821891579E+02  0.00000000000E+00 0. -1.
         21   -1    0    0  502  503 -0.00000000000E+00 -0.00000000000E+00 -0.10103004746E+04  0.10103004746E+04  0.00000000000E+00 0. -1.
         -6    2    1    2    0  503  0.56311700597E+02 -0.89175326048E+02 -0.43394166100E+03  0.47900060336E+03  0.17324250769E+03 0.  0.
        -24    2    3    3    0    0  0.71622981522E+02 -0.68567205856E+02 -0.15379885873E+03  0.19764458405E+03  0.74685871858E+02 0.  0.
          6    2    1    2  501    0 -0.56311700597E+02  0.89175326048E+02 -0.53553692206E+03  0.57212176286E+03  0.17146507004E+03 0.  0.
         24    2    5    5    0    0 -0.99670578556E+02  0.39731323429E+02 -0.35083434734E+03  0.37600487730E+03  0.82353665291E+02 0.  0.
          5    1    5    5  501    0  0.43358877959E+02  0.49444002618E+02 -0.18470257472E+03  0.19611688556E+03  0.47000000000E+01 0. -1.
        -13    1    6    6    0    0 -0.22915118000E+01  0.24029791769E+02 -0.21875497320E+02  0.32576361089E+02  0.00000000000E+00 0.  1.
         14    1    6    6    0    0 -0.97379066756E+02  0.15701531660E+02 -0.32895885002E+03  0.34342851621E+03  0.00000000000E+00 0. -1.
         -5    1    3    3    0  503 -0.15311280925E+02 -0.20608120192E+02 -0.28014280227E+03  0.28135601931E+03  0.47000000000E+01 0.  1.
         11    1    4    4    0    0  0.28016715729E+02 -0.55574307539E+02 -0.37259485438E+02  0.72537640392E+02  0.00000000000E+00 0. -1.
        -12    1    4    4    0    0  0.43606265794E+02 -0.12992898317E+02 -0.11653937329E+03  0.12510694365E+03  0.00000000000E+00 0.  1.
</event>
<event>
12    1  0.1050869E+000  0.1768389E+03  0.7818608E-02  0.1172080E+00
         21   -1    0    0  501  502  0.00000000000E+00  0.00000000000E+00  0.36295299131E+03  0.36295299131E+03  0.00000000000E+00 0. -1.
         21   -1    0    0  502  503 -0.00000000000E+00 -0.00000000000E+00 -0.84797072151E+02  0.84797072151E+02  0.00000000000E+00 0. -1.
         -6    2    1    2    0  503  0.78526993281E+00 -0.76988727318E+01  0.16417807247E+03  0.24130155073E+03  0.17666949260E+03 0.  0.
        -24    2    3    3    0    0 -0.14058803168E+02 -0.52890818756E+02  0.16694408223E+03  0.19342254384E+03  0.80912701218E+02 0.  0.
          6    2    1    2  501    0 -0.78526993281E+00  0.76988727318E+01  0.11397784669E+03  0.20644851273E+03  0.17195973244E+03 0.  0.
         24    2    5    5    0    0 -0.82926945056E+01 -0.29032013942E+02  0.13675700701E+03  0.16232936038E+03  0.82077497874E+02 0.  0.
          5    1    5    5  501    0  0.75074245728E+01  0.36730886674E+02 -0.22779160321E+02  0.44119152355E+02  0.47000000000E+01 0. -1.
        -13    1    6    6    0    0  0.14237681887E+02  0.19196624334E+02  0.12113450957E+02  0.26794732046E+02  0.00000000000E+00 0.  1.
         14    1    6    6    0    0 -0.22530376393E+02 -0.48228638275E+02  0.12464355606E+03  0.13553462833E+03  0.00000000000E+00 0. -1.
         -5    1    3    3    0  503  0.14844073100E+02  0.45191946024E+02 -0.27660097545E+01  0.47879006898E+02  0.47000000000E+01 0.  1.
         13    1    4    4    0    0 -0.29182113901E+02 -0.44923990717E+02  0.44078014830E+02  0.69373136768E+02  0.00000000000E+00 0. -1.
        -14    1    4    4    0    0  0.15123310733E+02 -0.79668280387E+01  0.12286606740E+03  0.12404940707E+03  0.00000000000E+00 0.  1.
</event>
<event>
12    1  0.1050869E+000  0.2098392E+03  0.7818608E-02  0.1142085E+00
         21   -1    0    0  503  502  0.00000000000E+00  0.00000000000E+00  0.18534356866E+03  0.18534356866E+03  0.00000000000E+00 0. -1.
         21   -1    0    0  501  503 -0.00000000000E+00 -0.00000000000E+00 -0.23596508471E+03  0.23596508471E+03  0.00000000000E+00 0. -1.
          6    2    1    2  501    0 -0.10527542703E+03 -0.49707429935E+02 -0.14461861450E+02  0.20837668637E+03  0.17221484796E+03 0.  0.
         24    2    3    3    0    0  0.12855055543E+02 -0.29311682326E+01  0.84225752002E+00  0.80317576466E+02  0.79223478158E+02 0.  0.
         -6    2    1    2    0  502  0.10527542703E+03  0.49707429935E+02 -0.36159654599E+02  0.21293196701E+03  0.17458166521E+03 0.  0.
        -24    2    5    5    0    0  0.57636746554E+02 -0.16291805762E+02 -0.72297947433E+02  0.12375007872E+03  0.80620538893E+02 0.  0.
          5    1    3    3  501    0 -0.11813048257E+03 -0.46776261702E+02 -0.15304118970E+02  0.12805910990E+03  0.47000000000E+01 0. -1.
        -11    1    4    4    0    0 -0.19498888830E+02 -0.16146701745E+02  0.26736843239E+02  0.36820937376E+02  0.00000000000E+00 0.  1.
         12    1    4    4    0    0  0.32353944373E+02  0.13215533513E+02 -0.25894585719E+02  0.43496639090E+02  0.00000000000E+00 0. -1.
         -5    1    5    5    0  502  0.47638680471E+02  0.65999235697E+02  0.36138292834E+02  0.89181888288E+02  0.47000000000E+01 0.  1.
         13    1    6    6    0    0 -0.79827682798E+01 -0.14319084796E+02 -0.52770302223E+02  0.55258172025E+02  0.00000000000E+00 0. -1.
        -14    1    6    6    0    0  0.65619514834E+02 -0.19727209663E+01 -0.19527645210E+02  0.68491906694E+02  0.00000000000E+00 0.  1.
</event>
<event>
12    1  0.1050869E+000  0.2218380E+03  0.7818608E-02  0.1132716E+00
         21   -1    0    0  501  502  0.00000000000E+00  0.00000000000E+00  0.41803066907E+02  0.41803066907E+02  0.00000000000E+00 0.  1.
         21   -1    0    0  502  503 -0.00000000000E+00 -0.00000000000E+00 -0.14143562490E+04  0.14143562490E+04  0.00000000000E+00 0.  1.
         -6    2    1    2    0  503 -0.93144247399E+02 -0.10330229169E+03 -0.38328609923E+03  0.44232430012E+03  0.17145068772E+03 0.  0.
        -24    2    3    3    0    0 -0.80360680150E+02  0.58657864830E+01 -0.20269767764E+03  0.23086424030E+03  0.75628715218E+02 0.  0.
          6    2    1    2  501    0  0.93144247399E+02  0.10330229169E+03 -0.98926708285E+03  0.10138350158E+04  0.17281453558E+03 0.  0.
         24    2    5    5    0    0  0.70299502046E+02  0.20241929885E+02 -0.78022827522E+03  0.78769298255E+03  0.79701427830E+02 0.  0.
          5    1    5    5  501    0  0.22844745353E+02  0.83060361809E+02 -0.20903880763E+03  0.22614203322E+03  0.47000000000E+01 0. -1.
        -11    1    6    6    0    0  0.51586270270E+02  0.35704968408E+02 -0.28291810247E+03  0.28979068438E+03  0.00000000000E+00 0.  1.
         12    1    6    6    0    0  0.18713231776E+02 -0.15463038523E+02 -0.49731017275E+03  0.49790229817E+03  0.00000000000E+00 0. -1.
         -5    1    3    3    0  503 -0.12783567248E+02 -0.10916807818E+03 -0.18058842159E+03  0.21146005981E+03  0.47000000000E+01 0.  1.
         13    1    4    4    0    0 -0.56666947797E+02  0.10247820533E+02 -0.49959773206E+02  0.76237390676E+02  0.00000000000E+00 0. -1.
        -14    1    4    4    0    0 -0.23693732353E+02 -0.43820340499E+01 -0.15273790443E+03  0.15462684963E+03  0.00000000000E+00 0.  1.
</event>
<event>
12    1  0.1050869E+000  0.2856446E+03  0.7818608E-02  0.1092697E+00
         21   -1    0    0  503  502  0.00000000000E+00  0.00000000000E+00  0.10348822080E+03  0.10348822080E+03  0.00000000000E+00 0.  1.
         21   -1    0    0  501  503 -0.00000000000E+00 -0.00000000000E+00 -0.82933710088E+03  0.82933710088E+03  0.00000000000E+00 0.  1.
          6    2    1    2  501    0  0.24645433924E+02  0.22662233605E+03 -0.25821590709E+03  0.38505622362E+03  0.17212716248E+03 0.  0.
         24    2    3    3    0    0  0.25839189666E+02  0.10316695238E+03 -0.21565328073E+03  0.25437981422E+03  0.83016074381E+02 0.  0.
         -6    2    1    2    0  502 -0.24645433924E+02 -0.22662233605E+03 -0.46763297299E+03  0.54776909806E+03  0.17147975610E+03 0.  0.
        -24    2    5    5    0    0  0.20701543392E+02 -0.30863878588E+02 -0.11790761689E+03  0.14439875121E+03  0.74616756362E+02 0.  0.
          5    1    3    3  501    0 -0.11937557422E+01  0.12345538368E+03 -0.42562626356E+02  0.13067640940E+03  0.47000000000E+01 0. -1.
        -13    1    4    4    0    0  0.35345017825E+02  0.43195254725E+01 -0.55853228215E+02  0.66238294720E+02  0.00000000000E+00 0.  1.
         14    1    4    4    0    0 -0.95058281589E+01  0.98847426904E+02 -0.15980005252E+03  0.18814151950E+03  0.00000000000E+00 0. -1.
         -5    1    5    5    0  502 -0.45346977316E+02 -0.19575845747E+03 -0.34972535610E+03  0.40337034685E+03  0.47000000000E+01 0.  1.
         11    1    6    6    0    0  0.60629131054E+01 -0.51321244858E+01  0.10192535488E+02  0.12922282954E+02  0.00000000000E+00 0. -1.
        -12    1    6    6    0    0  0.14638630287E+02 -0.25731754102E+02 -0.12810015238E+03  0.13147646825E+03  0.00000000000E+00 0.  1.
</event>
<event>
12    1  0.1050869E+000  0.1902975E+03  0.7818608E-02  0.1158201E+00
         21   -1    0    0  503  502  0.00000000000E+00  0.00000000000E+00  0.29076223509E+03  0.29076223509E+03  0.00000000000E+00 0.  1.
         21   -1    0    0  501  503 -0.00000000000E+00 -0.00000000000E+00 -0.34408363125E+03  0.34408363125E+03  0.00000000000E+00 0.  1.
          6    2    1    2  501    0  0.64031057247E+02 -0.50225801357E+02  0.22690200789E+03  0.29611546715E+03  0.17198035146E+03 0.  0.
         24    2    3    3    0    0  0.49687276251E+02  0.18404879058E+02  0.19750826861E+03  0.21994463116E+03  0.80984934470E+02 0.  0.
         -6    2    1    2    0  502 -0.64031057247E+02  0.50225801357E+02 -0.28022340405E+03  0.33873039919E+03  0.17201895170E+03 0.  0.
        -24    2    5    5    0    0 -0.38855875387E+02  0.37057119927E+02 -0.29260714179E+03  0.30738313595E+03  0.77346258155E+02 0.  0.
          5    1    3    3  501    0  0.14343780996E+02 -0.68630680415E+02  0.29393739281E+02  0.76170835996E+02  0.47000000000E+01 0. -1.
        -13    1    4    4    0    0 -0.45183752912E+01 -0.16315314263E+02  0.60884647742E+01  0.17990958787E+02  0.00000000000E+00 0.  1.
         14    1    4    4    0    0  0.54205651542E+02  0.34720193321E+02  0.19141980384E+03  0.20195367237E+03  0.00000000000E+00 0. -1.
         -5    1    5    5    0  502 -0.25175181860E+02  0.13168681430E+02  0.12383737739E+02  0.31347263241E+02  0.47000000000E+01 0.  1.
         11    1    6    6    0    0 -0.37235625538E+02 -0.63621790968E+01 -0.21629198752E+03  0.21956591948E+03  0.00000000000E+00 0. -1.
        -12    1    6    6    0    0 -0.16202498495E+01  0.43419299023E+02 -0.76315154276E+02  0.87817216475E+02  0.00000000000E+00 0.  1.
</event>
<event>
12    1  0.1050869E+000  0.2966620E+03  0.7818608E-02  0.1087009E+00
         21   -1    0    0  503  502  0.00000000000E+00  0.00000000000E+00  0.13557334425E+03  0.13557334425E+03  0.00000000000E+00 0. -1.
         21   -1    0    0  501  503 -0.00000000000E+00 -0.00000000000E+00 -0.89061676414E+03  0.89061676414E+03  0.00000000000E+00 0. -1.
          6    2    1    2  501    0  0.55879207823E+02 -0.23387800508E+03 -0.10984758920E+03  0.31634603205E+03  0.17374381144E+03 0.  0.
         24    2    3    3    0    0  0.68730429476E+02 -0.24698648390E+03 -0.78449986612E+02  0.27967335062E+03  0.79602685149E+02 0.  0.
         -6    2    1    2    0  502 -0.55879207823E+02  0.23387800508E+03 -0.64519583069E+03  0.70984407634E+03  0.17256751037E+03 0.  0.
        -24    2    5    5    0    0  0.34358530239E+01  0.10599677836E+03 -0.44710493050E+03  0.46666928461E+03  0.81426532620E+02 0.  0.
          5    1    3    3  501    0 -0.12851221654E+02  0.13108478819E+02 -0.31397602587E+02  0.36672681429E+02  0.47000000000E+01 0. -1.
        -11    1    4    4    0    0 -0.17963432225E+02 -0.33283491768E+02 -0.10448447401E+02  0.39238320233E+02  0.00000000000E+00 0.  1.
         12    1    4    4    0    0  0.86693861701E+02 -0.21370299213E+03 -0.68001539212E+02  0.24043503039E+03  0.00000000000E+00 0. -1.
         -5    1    5    5    0  502 -0.59315060847E+02  0.12788122672E+03 -0.19809090020E+03  0.24317479173E+03  0.47000000000E+01 0.  1.
         13    1    6    6    0    0  0.13662805252E+02  0.21206492678E+02 -0.23286670169E+02  0.34331568368E+02  0.00000000000E+00 0. -1.
        -14    1    6    6    0    0 -0.10226952228E+02  0.84790285687E+02 -0.42381826033E+03  0.43233771624E+03  0.00000000000E+00 0.  1.
</event>
<event>
12    1  0.1050869E+000  0.1974513E+03  0.7818608E-02  0.1152020E+00
         21   -1    0    0  503  502  0.00000000000E+00  0.00000000000E+00  0.17896035005E+03  0.17896035005E+03  0.00000000000E+00 0. -1.
         21   -1    0    0  501  503 -0.00000000000E+00 -0.00000000000E+00 -0.22699389606E+03  0.22699389606E+03  0.00000000000E+00 0. -1.
          6    2    1    2  501    0 -0.88529487375E+02  0.32491833079E+02  0.17951746682E+02  0.19826564484E+03  0.17347567946E+03 0.  0.
         24    2    3    3    0    0 -0.49043303829E+01 -0.36088743452E+02  0.32383437467E+02  0.89055635878E+02  0.74537033741E+02 0.  0.
         -6    2    1    2    0  502  0.88529487375E+02 -0.32491833079E+02 -0.65985292690E+02  0.20768860127E+03  0.17287945770E+03 0.  0.
        -24    2    5    5    0    0  0.11559932322E+03 -0.39933008025E+02 -0.89317845693E+02  0.17088309724E+03  0.79154953750E+02 0.  0.
          5    1    3    3  501    0 -0.83625156992E+02  0.68580576531E+02 -0.14431690785E+02  0.10921000897E+03  0.47000000000E+01 0. -1.
        -11    1    4    4    0    0  0.33398367300E+02 -0.53785477248E+01  0.14512536346E+02  0.36810235331E+02  0.00000000000E+00 0.  1.
         12    1    4    4    0    0 -0.38302697683E+02 -0.30710195727E+02  0.17870901121E+02  0.52245400547E+02  0.00000000000E+00 0. -1.
         -5    1    5    5    0  502 -0.27069835846E+02  0.74411749457E+01  0.23332553003E+02  0.36805504030E+02  0.47000000000E+01 0.  1.
         13    1    6    6    0    0  0.73415602944E+02 -0.18458841675E+02 -0.71259435927E+01  0.76035246193E+02  0.00000000000E+00 0. -1.
        -14    1    6    6    0    0  0.42183720277E+02 -0.21474166350E+02 -0.82191902101E+02  0.94847851045E+02  0.00000000000E+00 0.  1.
</event>
<event>
12    1  0.1050869E+000  0.2263008E+03  0.7818608E-02  0.1129380E+00
         21   -1    0    0  501  502  0.00000000000E+00  0.00000000000E+00  0.48917675749E+03  0.48917675749E+03  0.00000000000E+00 0.  1.
         21   -1    0    0  502  503 -0.00000000000E+00 -0.00000000000E+00 -0.11088845974E+03  0.11088845974E+03  0.00000000000E+00 0.  1.
         -6    2    1    2    0  503 -0.14664401292E+03  0.17705365084E+02  0.26142342767E+03  0.34537040606E+03  0.17064747981E+03 0.  0.
        -24    2    3    3    0    0 -0.14630140349E+03 -0.82326752416E+01  0.13196357224E+03  0.21325362633E+03  0.81184032537E+02 0.  0.
          6    2    1    2  501    0  0.14664401292E+03 -0.17705365084E+02  0.11686487007E+03  0.25469481117E+03  0.17144708368E+03 0.  0.
         24    2    5    5    0    0  0.38321808330E+02 -0.62085951693E+02  0.51833097488E+02  0.12070019217E+03  0.80985430816E+02 0.  0.
          5    1    5    5  501    0  0.10832220459E+03  0.44380586610E+02  0.65031772587E+02  0.13399461900E+03  0.47000000000E+01 0. -1.
        -11    1    6    6    0    0  0.12238755710E+02  0.17378017227E+02  0.25112599142E+02  0.32900231911E+02  0.00000000000E+00 0.  1.
         12    1    6    6    0    0  0.26083052620E+02 -0.79463968920E+02  0.26720498345E+02  0.87799960264E+02  0.00000000000E+00 0. -1.
         -5    1    3    3    0  503 -0.34260942555E+00  0.25938040325E+02  0.12945985543E+03  0.13211677973E+03  0.47000000000E+01 0.  1.
         11    1    4    4    0    0  0.10245953882E+01  0.13020357886E+01 -0.89871183521E+01  0.91385660352E+01  0.00000000000E+00 0. -1.
        -12    1    4    4    0    0 -0.14732599888E+03 -0.95347110303E+01  0.14095069059E+03  0.20411506029E+03  0.00000000000E+00 0.  1.
</event>
<event>
12    1  0.1050869E+000  0.4293192E+03  0.7818608E-02  0.1034094E+00
         21   -1    0    0  501  502  0.00000000000E+00  0.00000000000E+00  0.16479869568E+03  0.16479869568E+03  0.00000000000E+00 0. -1.
         21   -1    0    0  502  503 -0.00000000000E+00 -0.00000000000E+00 -0.11783082217E+04  0.11783082217E+04  0.00000000000E+00 0.  1.
         -6    2    1    2    0  503  0.21289020606E+03 -0.33050187188E+03 -0.65878193663E+03  0.78619880359E+03  0.17193368368E+03 0.  0.
        -24    2    3    3    0    0  0.19772284961E+03 -0.22933188157E+03 -0.40090316640E+03  0.50872994809E+03  0.79971082797E+02 0.  0.
          6    2    1    2  501    0 -0.21289020606E+03  0.33050187188E+03 -0.35472758940E+03  0.55690811379E+03  0.17251451352E+03 0.  0.
         24    2    5    5    0    0 -0.11561946666E+03  0.19924692337E+03 -0.12247119091E+03  0.27291060871E+03  0.80086267254E+02 0.  0.
          5    1    5    5  501    0 -0.97270739398E+02  0.13125494851E+03 -0.23225639849E+03  0.28399750508E+03  0.47000000000E+01 0. -1.
        -13    1    6    6    0    0 -0.12473128026E+03  0.16740413246E+03 -0.11708331943E+03  0.23935442241E+03  0.00000000000E+00 0.  1.
         14    1    6    6    0    0  0.91118135981E+01  0.31842790912E+02 -0.53878714772E+01  0.33556186302E+02  0.00000000000E+00 0. -1.
         -5    1    3    3    0  503  0.15167356444E+02 -0.10116999031E+03 -0.25787877023E+03  0.27746885551E+03  0.47000000000E+01 0.  1.
         11    1    4    4    0    0  0.35093411605E+02 -0.77648956670E+02 -0.15720420375E+03  0.17881294608E+03  0.00000000000E+00 0. -1.
        -12    1    4    4    0    0  0.16262943801E+03 -0.15168292490E+03 -0.24369896265E+03  0.32991700201E+03  0.00000000000E+00 0.  1.
</event>
<event>
12    1  0.1050869E+000  0.3096206E+03  0.7818608E-02  0.1080617E+00
         21   -1    0    0  503  502  0.00000000000E+00  0.00000000000E+00  0.12893178401E+03  0.12893178401E+03  0.00000000000E+00 0. -1.
         21   -1    0    0  501  503 -0.00000000000E+00 -0.00000000000E+00 -0.77092791241E+03  0.77092791241E+03  0.00000000000E+00 0. -1.
          6    2    1    2  501    0  0.24644493913E+03 -0.72562806596E+02 -0.23311001787E+03  0.38697301423E+03  0.17148575565E+03 0.  0.
         24    2    3    3    0    0  0.15826985104E+03 -0.87097435120E+02 -0.91896238597E+02  0.21979190573E+03  0.85019140205E+02 0.  0.
         -6    2    1    2    0  502 -0.24644493913E+03  0.72562806596E+02 -0.40888611052E+03  0.51288668219E+03  0.17281327630E+03 0.  0.
        -24    2    5    5    0    0 -0.43136771376E+02  0.33962519989E+02 -0.79579953920E+02  0.12392803660E+03  0.77530351356E+02 0.  0.
          5    1    3    3  501    0  0.88175088083E+02  0.14534628524E+02 -0.14121377927E+03  0.16718110851E+03  0.47000000000E+01 0. -1.
        -11    1    4    4    0    0  0.13470821023E+03 -0.79943664021E+02 -0.10809268849E+03  0.19031899702E+03  0.00000000000E+00 0.  1.
         12    1    4    4    0    0  0.23561640813E+02 -0.71537710996E+01  0.16196449893E+02  0.29472908710E+02  0.00000000000E+00 0. -1.
         -5    1    5    5    0  502 -0.20330816775E+03  0.38600286608E+02 -0.32930615660E+03  0.38895864559E+03  0.47000000000E+01 0.  1.
         13    1    6    6    0    0 -0.42373651609E+02 -0.11358130704E+02 -0.60541421418E+02  0.74764946272E+02  0.00000000000E+00 0. -1.
        -14    1    6    6    0    0 -0.76311976693E+00  0.45320650692E+02 -0.19038532502E+02  0.49163090330E+02  0.00000000000E+00 0.  1.
</event>
<event>
12    1  0.1050869E+000  0.1884499E+03  0.7818608E-02  0.1161005E+00
         21   -1    0    0  503  502  0.00000000000E+00  0.00000000000E+00  0.10666730246E+03  0.10666730246E+03  0.00000000000E+00 0.  1.
         21   -1    0    0  501  503 -0.00000000000E+00 -0.00000000000E+00 -0.32939950888E+03  0.32939950888E+03  0.00000000000E+00 0.  1.
          6    2    1    2  501    0  0.62173068148E+02 -0.47178445924E+02 -0.82779922994E+02  0.20133290066E+03  0.16610576472E+03 0.  0.
         24    2    3    3    0    0 -0.24802041658E+02 -0.10887544197E+02 -0.52618217585E+02  0.10226969989E+03  0.83407042894E+02 0.  0.
         -6    2    1    2    0  502 -0.62173068148E+02  0.47178445924E+02 -0.13995228342E+03  0.23473391068E+03  0.17152863033E+03 0.  0.
        -24    2    5    5    0    0  0.21090682493E+01  0.65005141649E+02 -0.13207016267E+03  0.16739742749E+03  0.79682207887E+02 0.  0.
          5    1    3    3  501    0  0.86975109806E+02 -0.36290901728E+02 -0.30161705409E+02  0.99063200772E+02  0.47000000000E+01 0. -1.
        -11    1    4    4    0    0 -0.36735215097E+02 -0.38244033000E+02 -0.16757434392E+02  0.55613790517E+02  0.00000000000E+00 0.  1.
         12    1    4    4    0    0  0.11933173438E+02  0.27356488803E+02 -0.35860783194E+02  0.46655909371E+02  0.00000000000E+00 0. -1.
         -5    1    5    5    0  502 -0.64282136397E+02 -0.17826695725E+02 -0.78821207588E+01  0.67336483186E+02  0.47000000000E+01 0.  1.
         11    1    6    6    0    0 -0.37260923047E+01 -0.98915087228E+01  0.45322524845E+01  0.11500740031E+02  0.00000000000E+00 0. -1.
        -12    1    6    6    0    0  0.58351605539E+01  0.74896650372E+02 -0.13660241515E+03  0.15589668746E+03  0.00000000000E+00 0.  1.
</event>
<event>
12    1  0.1050869E+000  0.1858004E+03  0.7818608E-02  0.1162324E+00
         21   -1    0    0  501  502  0.00000000000E+00  0.00000000000E+00  0.12182108161E+03  0.12182108161E+03  0.00000000000E+00 0. -1.
         21   -1    0    0  502  503 -0.00000000000E+00 -0.00000000000E+00 -0.59497219645E+03  0.59497219645E+03  0.00000000000E+00 0. -1.
         -6    2    1    2    0  503  0.88527866060E+01  0.71263546038E+02 -0.49601737107E+03  0.52967443470E+03  0.17136192559E+03 0.  0.
        -24    2    3    3    0    0 -0.18575691313E+02  0.65040331749E+02 -0.15386034123E+03  0.18633120574E+03  0.80442604189E+02 0.  0.
          6    2    1    2  501    0 -0.88527866060E+01 -0.71263546038E+02  0.22866256228E+02  0.18711884336E+03  0.17127092878E+03 0.  0.
         24    2    5    5    0    0 -0.21505028940E+02 -0.41503733976E+02 -0.51516975382E+02  0.10587426942E+03  0.79814384480E+02 0.  0.
          5    1    5    5  501    0  0.12652242334E+02 -0.29759812061E+02  0.74383231610E+02  0.81244573940E+02  0.47000000000E+01 0. -1.
        -11    1    6    6    0    0 -0.36734884799E+02 -0.54565522202E+02 -0.20436561915E+02  0.68880338539E+02  0.00000000000E+00 0.  1.
         12    1    6    6    0    0  0.15229855858E+02  0.13061788225E+02 -0.31080413467E+02  0.36993930886E+02  0.00000000000E+00 0. -1.
         -5    1    3    3    0  503  0.27428477919E+02  0.62232142881E+01 -0.34215702984E+03  0.34334322895E+03  0.47000000000E+01 0.  1.
         11    1    4    4    0    0  0.10176671454E+02 -0.11343931312E+02 -0.60202244386E+02  0.62101204888E+02  0.00000000000E+00 0. -1.
        -12    1    4    4    0    0 -0.28752362768E+02  0.76384263061E+02 -0.93658096843E+02  0.12423000085E+03  0.00000000000E+00 0.  1.
</event>
<event>
12    1  0.1050869E+000  0.3015525E+03  0.7818608E-02  0.1085276E+00
         21   -1    0    0  501  502  0.00000000000E+00  0.00000000000E+00  0.26361811275E+03  0.26361811275E+03  0.00000000000E+00 0.  1.
         21   -1    0    0  502  503 -0.00000000000E+00 -0.00000000000E+00 -0.45487582281E+03  0.45487582281E+03  0.00000000000E+00 0.  1.
         -6    2    1    2    0  503 -0.63569827848E+02 -0.23923641723E+03  0.85992592612E+02  0.31357399330E+03  0.17221712153E+03 0.  0.
        -24    2    3    3    0    0  0.23058030146E+02 -0.16988328752E+03  0.37676095147E+02  0.19245084808E+03  0.78903971045E+02 0.  0.
          6    2    1    2  501    0  0.63569827848E+02  0.23923641723E+03 -0.27725030268E+03  0.40491994226E+03  0.16067745007E+03 0.  0.
         24    2    5    5    0    0  0.73492786210E+02  0.10143080185E+03 -0.95063662632E+02  0.17622163762E+03  0.79546014506E+02 0.  0.
          5    1    5    5  501    0 -0.99229583621E+01  0.13780561538E+03 -0.18218664004E+03  0.22869830464E+03  0.47000000000E+01 0. -1.
        -11    1    6    6    0    0 -0.15898198194E+02  0.72513366729E+01 -0.18654234768E+02  0.25560028641E+02  0.00000000000E+00 0.  1.
         12    1    6    6    0    0  0.89390984404E+02  0.94179465179E+02 -0.76409427863E+02  0.15066160898E+03  0.00000000000E+00 0. -1.
         -5    1    3    3    0  503 -0.86627857994E+02 -0.69353129712E+02  0.48316497465E+02  0.12112314522E+03  0.47000000000E+01 0.  1.
         13    1    4    4    0    0  0.30417055479E+02 -0.15577846870E+02  0.88819152133E+01  0.35309417936E+02  0.00000000000E+00 0. -1.
        -14    1    4    4    0    0 -0.73590253335E+01 -0.15430544065E+03  0.28794179934E+02  0.15714143014E+03  0.00000000000E+00 0.  1.
</event>
<event>
12    1  0.1050869E+000  0.2153661E+03  0.7818608E-02  0.1137700E+00
         21   -1    0    0  503  502  0.00000000000E+00  0.00000000000E+00  0.75851969567E+02  0.75851969567E+02  0.00000000000E+00 0.  1.
         21   -1    0    0  501  503 -0.00000000000E+00 -0.00000000000E+00 -0.64121339294E+03  0.64121339294E+03  0.00000000000E+00 0.  1.
          6    2    1    2  501    0 -0.29321434698E+02 -0.12411942555E+03 -0.20070510775E+03  0.29438939430E+03  0.17354306921E+03 0.  0.
         24    2    3    3    0    0 -0.51113798100E+02 -0.67105933314E+02 -0.20045072730E+03  0.23317174890E+03  0.84099606220E+02 0.  0.
         -6    2    1    2    0  502  0.29321434698E+02  0.12411942555E+03 -0.36465631563E+03  0.42267596821E+03  0.17150908793E+03 0.  0.
        -24    2    5    5    0    0  0.78649674029E+01  0.20215733703E+02 -0.62330017283E+02  0.10223933198E+03  0.78085314541E+02 0.  0.
          5    1    3    3  501    0  0.21792363402E+02 -0.57013492235E+02 -0.25438044617E+00  0.61217645405E+02  0.47000000000E+01 0. -1.
        -13    1    4    4    0    0  0.13944193690E+02 -0.37407538645E+02 -0.35650678975E+02  0.53523222965E+02  0.00000000000E+00 0.  1.
         14    1    4    4    0    0 -0.65057991790E+02 -0.29698394669E+02 -0.16480004832E+03  0.17964852593E+03  0.00000000000E+00 0. -1.
         -5    1    5    5    0  502  0.21456467295E+02  0.10390369185E+03 -0.30232629835E+03  0.32043663624E+03  0.47000000000E+01 0.  1.
         13    1    6    6    0    0 -0.24670546844E+02  0.29278431071E+02 -0.56062424563E+02  0.67888569402E+02  0.00000000000E+00 0. -1.
        -14    1    6    6    0    0  0.32535514247E+02 -0.90626973686E+01 -0.62675927200E+01  0.34350762574E+02  0.00000000000E+00 0.  1.
</event>
<event>
12    1  0.1050869E+000  0.1946370E+03  0.7818608E-02  0.1154380E+00
         21   -1    0    0  503  502  0.00000000000E+00  0.00000000000E+00  0.46542166353E+03  0.46542166353E+03  0.00000000000E+00 0.  1.
         21   -1    0    0  501  503 -0.00000000000E+00 -0.00000000000E+00 -0.24530822584E+03  0.24530822584E+03  0.00000000000E+00 0.  1.
          6    2    1    2  501    0 -0.75870218804E+02 -0.48952215748E+02  0.40061854503E+03  0.44539735011E+03  0.17242671292E+03 0.  0.
         24    2    3    3    0    0 -0.26060412330E+02 -0.94441722568E+02  0.27583722578E+03  0.30347208919E+03  0.80067157679E+02 0.  0.
         -6    2    1    2    0  502  0.75870218804E+02  0.48952215748E+02 -0.18050510734E+03  0.26533253926E+03  0.17224010302E+03 0.  0.
        -24    2    5    5    0    0  0.60592144754E+02  0.85910454431E+02 -0.91575541128E+02  0.16771139043E+03  0.93214894520E+02 0.  0.
          5    1    3    3  501    0 -0.49809806474E+02  0.45489506821E+02  0.12478131925E+03  0.14192526092E+03  0.47000000000E+01 0. -1.
        -11    1    4    4    0    0  0.28122629265E+02 -0.44509729361E+02  0.10671093623E+03  0.11899253000E+03  0.00000000000E+00 0.  1.
         12    1    4    4    0    0 -0.54183041595E+02 -0.49931993207E+02  0.16912628955E+03  0.18447955919E+03  0.00000000000E+00 0. -1.
         -5    1    5    5    0  502  0.15278074050E+02 -0.36958238684E+02 -0.88929566209E+02  0.97621148833E+02  0.47000000000E+01 0.  1.
         13    1    6    6    0    0  0.24708440975E+02  0.42171553485E+02 -0.99236342291E+02  0.11062006423E+03  0.00000000000E+00 0. -1.
        -14    1    6    6    0    0  0.35883703779E+02  0.43738900946E+02  0.76608011629E+01  0.57091326201E+02  0.00000000000E+00 0.  1.
</event>
<event>
12    1  0.1050869E+000  0.2833805E+03  0.7818608E-02  0.1094227E+00
         21   -1    0    0  503  502  0.00000000000E+00  0.00000000000E+00  0.53483744686E+03  0.53483744686E+03  0.00000000000E+00 0.  1.
         21   -1    0    0  501  503 -0.00000000000E+00 -0.00000000000E+00 -0.24476246634E+03  0.24476246634E+03  0.00000000000E+00 0.  1.
          6    2    1    2  501    0 -0.21148053947E+03 -0.67303011273E+02 -0.98734541895E+02  0.30008830278E+03  0.17621227484E+03 0.  0.
         24    2    3    3    0    0 -0.15063206884E+03 -0.10869954596E+03 -0.40687610449E+02  0.20623871189E+03  0.79833033149E+02 0.  0.
         -6    2    1    2    0  502  0.21148053947E+03  0.67303011273E+02  0.38880952242E+03  0.47951161041E+03  0.17176968853E+03 0.  0.
        -24    2    5    5    0    0  0.86778112650E+02  0.92008589692E+02  0.24234122864E+03  0.28551132190E+03  0.82410086911E+02 0.  0.
          5    1    3    3  501    0 -0.60848470626E+02  0.41396534682E+02 -0.58046931446E+02  0.93849590897E+02  0.47000000000E+01 0. -1.
        -11    1    4    4    0    0 -0.25188180766E+01 -0.14074899487E+02 -0.26244618927E+02  0.29886907881E+02  0.00000000000E+00 0.  1.
         12    1    4    4    0    0 -0.14811325076E+03 -0.94624646468E+02 -0.14442991521E+02  0.17635180400E+03  0.00000000000E+00 0. -1.
         -5    1    5    5    0  502  0.12470242682E+03 -0.24705578419E+02  0.14646829378E+03  0.19400028851E+03  0.47000000000E+01 0.  1.
         13    1    6    6    0    0  0.75887358714E+02  0.31693282063E+02  0.18095141287E+03  0.19876309808E+03  0.00000000000E+00 0. -1.
        -14    1    6    6    0    0  0.10890753936E+02  0.60315307629E+02  0.61389815771E+02  0.86748223821E+02  0.00000000000E+00 0.  1.
</event>
<event>
12    1  0.1050869E+000  0.2233685E+03  0.7818608E-02  0.1131650E+00
         21   -1    0    0  501  502  0.00000000000E+00  0.00000000000E+00  0.62224462875E+02  0.62224462875E+02  0.00000000000E+00 0. -1.
         21   -1    0    0  502  503 -0.00000000000E+00 -0.00000000000E+00 -0.80896534761E+03  0.80896534761E+03  0.00000000000E+00 0. -1.
         -6    2    1    2    0  503  0.55677770860E+02  0.13077463328E+03 -0.31896899974E+03  0.38861103602E+03  0.17051479598E+03 0.  0.
        -24    2    3    3    0    0  0.56985821733E+02  0.12525057509E+03 -0.33487048728E+03  0.37108466954E+03  0.81427871617E+02 0.  0.
          6    2    1    2  501    0 -0.55677770860E+02 -0.13077463328E+03 -0.42777188500E+03  0.48257877446E+03  0.17231212693E+03 0.  0.
         24    2    5    5    0    0 -0.48965986629E+02 -0.51656179705E+02 -0.36637275047E+03  0.38209633090E+03  0.81869316891E+02 0.  0.
          5    1    5    5  501    0 -0.67117842312E+01 -0.79118453575E+02 -0.61399134521E+02  0.10048244356E+03  0.47000000000E+01 0. -1.
        -13    1    6    6    0    0 -0.64095817559E+02 -0.35750720189E+02 -0.17928827301E+03  0.19372834759E+03  0.00000000000E+00 0.  1.
         14    1    6    6    0    0  0.15129830930E+02 -0.15905459516E+02 -0.18708447747E+03  0.18836798331E+03  0.00000000000E+00 0. -1.
         -5    1    3    3    0  503 -0.13080508725E+01  0.55240581914E+01  0.15901487545E+02  0.17526366484E+02  0.47000000000E+01 0.  1.
         13    1    4    4    0    0  0.32878057869E+02  0.10483087877E+02 -0.35242606371E+02  0.49324467807E+02  0.00000000000E+00 0. -1.
        -14    1    4    4    0    0  0.24107763864E+02  0.11476748721E+03 -0.29962788091E+03  0.32176020173E+03  0.00000000000E+00 0.  1.
</event>
<event>
12    1  0.1050869E+000  0.1868279E+03  0.7818608E-02  0.1161527E+00
         21   -1    0    0  503  502  0.00000000000E+00  0.00000000000E+00  0.28105385795E+03  0.28105385795E+03  0.00000000000E+00 0. -1.
         21   -1    0    0  501  503 -0.00000000000E+00 -0.00000000000E+00 -0.13229658246E+03  0.13229658246E+03  0.00000000000E+00 0. -1.
          6    2    1    2  501    0  0.13303539568E+02 -0.70635307690E+02  0.12694004430E+03  0.22525296265E+03  0.17163563580E+03 0.  0.
         24    2    3    3    0    0 -0.15902364180E+02 -0.25207650784E+02  0.14511910814E+03  0.16807582397E+03  0.79382719847E+02 0.  0.
         -6    2    1    2    0  502 -0.13303539568E+02  0.70635307690E+02  0.21817231188E+02  0.18809747775E+03  0.17244807538E+03 0.  0.
        -24    2    5    5    0    0  0.67157934242E+01 -0.22485550212E+02  0.40856374724E+02  0.90851157225E+02  0.77678745895E+02 0.  0.
          5    1    3    3  501    0  0.29205903748E+02 -0.45427656906E+02 -0.18179063837E+02  0.57177138681E+02  0.47000000000E+01 0. -1.
        -11    1    4    4    0    0 -0.26926695840E+02  0.19588291769E+02  0.33197427939E+02  0.47019329483E+02  0.00000000000E+00 0.  1.
         12    1    4    4    0    0  0.11024331660E+02 -0.44795942553E+02  0.11192168020E+03  0.12105649449E+03  0.00000000000E+00 0. -1.
         -5    1    5    5    0  502 -0.20019332993E+02  0.93120857902E+02 -0.19039143537E+02  0.97246320529E+02  0.47000000000E+01 0.  1.
         13    1    6    6    0    0 -0.33934062525E+02 -0.80324603649E+01  0.59938171249E+01  0.35383143765E+02  0.00000000000E+00 0. -1.
        -14    1    6    6    0    0  0.40649855949E+02 -0.14453089847E+02  0.34862557599E+02  0.55468013460E+02  0.00000000000E+00 0.  1.
</event>
<event>
12    1  0.1050869E+000  0.2017893E+03  0.7818608E-02  0.1148263E+00
         21   -1    0    0  501  502  0.00000000000E+00  0.00000000000E+00  0.17122304299E+03  0.17122304299E+03  0.00000000000E+00 0.  1.
         21   -1    0    0  502  503 -0.00000000000E+00 -0.00000000000E+00 -0.41641152520E+03  0.41641152520E+03  0.00000000000E+00 0.  1.
         -6    2    1    2    0  503 -0.10634673690E+03  0.23611104219E+01  0.69925674238E+02  0.21344762482E+03  0.17133325810E+03 0.  0.
        -24    2    3    3    0    0 -0.13040064106E+03 -0.35333033483E+02  0.57445758830E+02  0.16678632309E+03  0.79151196569E+02 0.  0.
          6    2    1    2  501    0  0.10634673690E+03 -0.23611104219E+01 -0.31511415645E+03  0.37418694337E+03  0.17147516935E+03 0.  0.
         24    2    5    5    0    0  0.43918313725E+02 -0.65144099284E+02 -0.15511249272E+03  0.19126172885E+03  0.79678049509E+02 0.  0.
          5    1    5    5  501    0  0.62428423177E+02  0.62782988862E+02 -0.16000166373E+03  0.18292521452E+03  0.47000000000E+01 0. -1.
        -11    1    6    6    0    0 -0.68224003803E+01 -0.11530019522E+02  0.55120937599E+01  0.14486879400E+02  0.00000000000E+00 0.  1.
         12    1    6    6    0    0  0.50740714105E+02 -0.53614079762E+02 -0.16062458648E+03  0.17677484945E+03  0.00000000000E+00 0. -1.
         -5    1    3    3    0  503  0.24053904161E+02  0.37694143905E+02  0.12479915408E+02  0.46661301725E+02  0.47000000000E+01 0.  1.
         11    1    4    4    0    0 -0.23191529873E+02 -0.15264394961E+02 -0.18955982828E+02  0.33618121548E+02  0.00000000000E+00 0. -1.
        -12    1    4    4    0    0 -0.10720911119E+03 -0.20068638522E+02  0.76401741658E+02  0.13316820154E+03  0.00000000000E+00 0.  1.
</event>
<event>
12    1  0.1050869E+000  0.2462147E+03  0.7818608E-02  0.1115771E+00
         21   -1    0    0  503  502  0.00000000000E+00  0.00000000000E+00  0.58358733692E+03  0.58358733692E+03  0.00000000000E+00 0.  1.
         21   -1    0    0  501  503 -0.00000000000E+00 -0.00000000000E+00 -0.15939641138E+03  0.15939641138E+03  0.00000000000E+00 0. -1.
          6    2    1    2  501    0  0.75293352461E+01  0.17427855704E+03 -0.74997805744E+01  0.24601439522E+03  0.17331223158E+03 0.  0.
         24    2    3    3    0    0  0.28861747270E+01  0.15632656384E+03  0.52545847238E+02  0.18299534716E+03  0.79245860797E+02 0.  0.
         -6    2    1    2    0  502 -0.75293352461E+01 -0.17427855704E+03  0.43169070612E+03  0.49696935308E+03  0.17375835467E+03 0.  0.
        -24    2    5    5    0    0  0.19466473485E+02 -0.11504650961E+03  0.14215435942E+03  0.20016875471E+03  0.79025473728E+02 0.  0.
          5    1    3    3  501    0  0.46431605191E+01  0.17951993197E+02 -0.60045627812E+02  0.63019048063E+02  0.47000000000E+01 0. -1.
        -11    1    4    4    0    0  0.23936367942E+02  0.18437274038E+02  0.28337568671E+02  0.41423430355E+02  0.00000000000E+00 0.  1.
         12    1    4    4    0    0 -0.21050193215E+02  0.13788928980E+03  0.24208278567E+02  0.14157191680E+03  0.00000000000E+00 0. -1.
         -5    1    5    5    0  502 -0.26995808731E+02 -0.59232047432E+02  0.28953634670E+03  0.29680059837E+03  0.47000000000E+01 0.  1.
         11    1    6    6    0    0  0.43311021331E+02 -0.40589752139E+02  0.83419211013E+02  0.10238230957E+03  0.00000000000E+00 0. -1.
        -12    1    6    6    0    0 -0.23844547846E+02 -0.74456757466E+02  0.58735148410E+02  0.97786445140E+02  0.00000000000E+00 0.  1.
</event>
<event>
12    1  0.1050869E+000  0.1767051E+03  0.7818608E-02  0.1172184E+00
         21   -1    0    0  501  502  0.00000000000E+00  0.00000000000E+00  0.20163719153E+03  0.20163719153E+03  0.00000000000E+00 0.  1.
         21   -1    0    0  502  503 -0.00000000000E+00 -0.00000000000E+00 -0.16757097357E+03  0.16757097357E+03  0.00000000000E+00 0.  1.
         -6    2    1    2    0  503  0.17797453860E+02 -0.16040802892E+02 -0.41055772302E+02  0.18141185156E+03  0.17507320390E+03 0.  0.
        -24    2    3    3    0    0  0.72056740243E+02  0.97135132026E+01 -0.52906053703E+02  0.12001255087E+03  0.79482297989E+02 0.  0.
          6    2    1    2  501    0 -0.17797453860E+02  0.16040802892E+02  0.75121990258E+02  0.18779631355E+03  0.17044085555E+03 0.  0.
         24    2    5    5    0    0 -0.49938231956E+02 -0.35456935053E+02  0.75945893520E+02  0.12690447956E+03  0.81153847320E+02 0.  0.
          5    1    5    5  501    0  0.32140778096E+02  0.51497737945E+02 -0.82390326225E+00  0.60891833990E+02  0.47000000000E+01 0. -1.
        -11    1    6    6    0    0 -0.53643869753E+01 -0.50876576297E+02  0.23281560393E+02  0.56207061102E+02  0.00000000000E+00 0.  1.
         12    1    6    6    0    0 -0.44573844981E+02  0.15419641245E+02  0.52664333127E+02  0.70697418455E+02  0.00000000000E+00 0. -1.
         -5    1    3    3    0  503 -0.54259286383E+02 -0.25754316095E+02  0.11850281401E+02  0.61399300693E+02  0.47000000000E+01 0.  1.
         13    1    4    4    0    0  0.18823429432E+02 -0.33375067809E+02 -0.11603958807E+02  0.40035840279E+02  0.00000000000E+00 0. -1.
        -14    1    4    4    0    0  0.53233310810E+02  0.43088581011E+02 -0.41302094896E+02  0.79976710586E+02  0.00000000000E+00 0.  1.
</event>
<event>
12    1  0.1050869E+000  0.3005401E+03  0.7818608E-02  0.1084988E+00
         21   -1    0    0  501  502  0.00000000000E+00  0.00000000000E+00  0.43921756072E+03  0.43921756072E+03  0.00000000000E+00 0. -1.
         21   -1    0    0  502  503 -0.00000000000E+00 -0.00000000000E+00 -0.20947056153E+03  0.20947056153E+03  0.00000000000E+00 0. -1.
         -6    2    1    2    0  503 -0.23932240198E+02  0.24602189794E+03  0.15925235901E+03  0.34012596344E+03  0.17095271501E+03 0.  0.
        -24    2    3    3    0    0 -0.65914773700E+02  0.22862405732E+03  0.15357466436E+03  0.29408745571E+03  0.79300296942E+02 0.  0.
          6    2    1    2  501    0  0.23932240198E+02 -0.24602189794E+03  0.70494640184E+02  0.30856215881E+03  0.17070906586E+03 0.  0.
         24    2    5    5    0    0 -0.43127699935E+02 -0.17802445909E+03  0.18788245449E+02  0.19985922179E+03  0.77704593365E+02 0.  0.
          5    1    5    5  501    0  0.67059940133E+02 -0.67997438855E+02  0.51706394735E+02  0.10870293703E+03  0.47000000000E+01 0. -1.
        -13    1    6    6    0    0  0.81175270583E+01 -0.28894025040E+02 -0.21722864085E+02  0.37049180189E+02  0.00000000000E+00 0.  1.
         14    1    6    6    0    0 -0.51245226993E+02 -0.14913043405E+03  0.40511109534E+02  0.16281004160E+03  0.00000000000E+00 0. -1.
         -5    1    3    3    0  503  0.41982533502E+02  0.17397840619E+02  0.56776946478E+01  0.46038507730E+02  0.47000000000E+01 0.  1.
         11    1    4    4    0    0 -0.12941849346E+02  0.82758460627E+02  0.13134466574E+02  0.84787784981E+02  0.00000000000E+00 0. -1.
        -12    1    4    4    0    0 -0.52972924354E+02  0.14586559670E+03  0.14044019778E+03  0.20929967073E+03  0.00000000000E+00 0.  1.
</event>
<event>
12    1  0.1050869E+000  0.2656945E+03  0.7818608E-02  0.1104040E+00
         21   -1    0    0  503  502  0.00000000000E+00  0.00000000000E+00  0.44046740991E+02  0.44046740991E+02  0.00000000000E+00 0. -1.
         21   -1    0    0  501  503 -0.00000000000E+00 -0.00000000000E+00 -0.15958807751E+04  0.15958807751E+04  0.00000000000E+00 0. -1.
          6    2    1    2  501    0  0.38399521066E+02  0.19647331303E+03 -0.81575094134E+03  0.85736003106E+03  0.17187303047E+03 0.  0.
         24    2    3    3    0    0  0.53637060364E+02  0.10538206504E+03 -0.28788971075E+03  0.32145951153E+03  0.80457554784E+02 0.  0.
         -6    2    1    2    0  502 -0.38399521066E+02 -0.19647331303E+03 -0.73608309281E+03  0.78256748508E+03  0.17469190945E+03 0.  0.
        -24    2    5    5    0    0 -0.85720516487E+02 -0.17136514500E+03 -0.63871079901E+03  0.67133282183E+03  0.77603176581E+02 0.  0.
          5    1    3    3  501    0 -0.15237539298E+02  0.91091247988E+02 -0.52786123060E+03  0.53590051953E+03  0.47000000000E+01 0. -1.
        -13    1    4    4    0    0  0.66877870291E+02  0.79336544231E+02 -0.26419480258E+03  0.28384120648E+03  0.00000000000E+00 0.  1.
         14    1    4    4    0    0 -0.13240809927E+02  0.26045520812E+02 -0.23694908170E+02  0.37618305053E+02  0.00000000000E+00 0. -1.
         -5    1    5    5    0  502  0.47320995421E+02 -0.25108168026E+02 -0.97372293798E+02  0.11123466325E+03  0.47000000000E+01 0.  1.
         11    1    6    6    0    0 -0.20025929824E+02 -0.11058519594E+02 -0.17181282183E+03  0.17332909296E+03  0.00000000000E+00 0. -1.
        -12    1    6    6    0    0 -0.65694586663E+02 -0.16030662541E+03 -0.46689797718E+03  0.49800372887E+03  0.00000000000E+00 0.  1.
</event>
<event>
12    1  0.1050869E+000  0.2836843E+03  0.7818608E-02  0.1093900E+00
         21   -1    0    0  503  502  0.00000000000E+00  0.00000000000E+00  0.60173665811E+03  0.60173665811E+03  0.00000000000E+00 0.  1.
         21   -1    0    0  501  503 -0.00000000000E+00 -0.00000000000E+00 -0.23510906224E+03  0.23510906224E+03  0.00000000000E+00 0.  1.
          6    2    1    2  501    0 -0.18929740916E+03 -0.11940492567E+03  0.45931892992E+03  0.53986168134E+03  0.17431497415E+03 0.  0.
         24    2    3    3    0    0 -0.10685850832E+03 -0.47901672444E+02  0.37836002869E+03  0.40390094701E+03  0.79160297236E+02 0.  0.
         -6    2    1    2    0  502  0.18929740916E+03  0.11940492567E+03 -0.92691334039E+02  0.29698403901E+03  0.17180451284E+03 0.  0.
        -24    2    5    5    0    0  0.14043755165E+03  0.79445904599E+02  0.96827862829E+01  0.17662391458E+03  0.71189136672E+02 0.  0.
          5    1    3    3  501    0 -0.82438900839E+02 -0.71503253225E+02  0.80958901224E+02  0.13596073433E+03  0.47000000000E+01 0. -1.
        -11    1    4    4    0    0 -0.11904721065E+02 -0.98314079285E+01  0.18049503721E+03  0.18115418135E+03  0.00000000000E+00 0.  1.
         12    1    4    4    0    0 -0.94953787251E+02 -0.38070264515E+02  0.19786499149E+03  0.22274676565E+03  0.00000000000E+00 0. -1.
         -5    1    5    5    0  502  0.48859857504E+02  0.39959021069E+02 -0.10237412032E+03  0.12036012443E+03  0.47000000000E+01 0.  1.
         11    1    6    6    0    0  0.13257281570E+03  0.58105312325E+02 -0.11944097684E+02  0.14523925176E+03  0.00000000000E+00 0. -1.
        -12    1    6    6    0    0  0.78647359541E+01  0.21340592274E+02  0.21626883967E+02  0.31384662821E+02  0.00000000000E+00 0.  1.
</event>
<event>
12    1  0.1050869E+000  0.2121106E+03  0.7818608E-02  0.1139998E+00
         21   -1    0    0  501  502  0.00000000000E+00  0.00000000000E+00  0.15167014559E+04  0.15167014559E+04  0.00000000000E+00 0.  1.
         21   -1    0    0  502  503 -0.00000000000E+00 -0.00000000000E+00 -0.80557155939E+02  0.80557155939E+02  0.00000000000E+00 0.  1.
         -6    2    1    2    0  503  0.37411563517E+02 -0.11717879468E+03  0.13535643173E+04  0.13700829480E+04  0.17280170197E+03 0.  0.
        -24    2    3    3    0    0  0.18683139131E+02 -0.67653177547E+02  0.12416852037E+04  0.12462178330E+04  0.79691468770E+02 0.  0.
          6    2    1    2  501    0 -0.37411563517E+02  0.11717879468E+03  0.82579982630E+02  0.22717566385E+03  0.17221740245E+03 0.  0.
         24    2    5    5    0    0 -0.53765479119E+02  0.34230246163E+02 -0.15367151881E+02  0.97701174413E+02  0.72435720660E+02 0.  0.
          5    1    5    5  501    0  0.16353915602E+02  0.82948548517E+02  0.97947134511E+02  0.12947448944E+03  0.47000000000E+01 0. -1.
        -11    1    6    6    0    0 -0.26546503890E+02 -0.37693352686E+00 -0.39423047773E+02  0.47529313517E+02  0.00000000000E+00 0.  1.
         12    1    6    6    0    0 -0.27218975229E+02  0.34607179689E+02  0.24055895892E+02  0.50171860896E+02  0.00000000000E+00 0. -1.
         -5    1    3    3    0  503  0.18728424387E+02 -0.49525617133E+02  0.11187911363E+03  0.12386511494E+03  0.47000000000E+01 0.  1.
         11    1    4    4    0    0 -0.65443014779E+01 -0.77472221778E+02  0.82552609281E+03  0.82917917421E+03  0.00000000000E+00 0. -1.
        -12    1    4    4    0    0  0.25227440609E+02  0.98190442315E+01  0.41615911087E+03  0.41703865882E+03  0.00000000000E+00 0.  1.
</event>
<event>
12    1  0.1050869E+000  0.1896846E+03  0.7818608E-02  0.1158813E+00
         21   -1    0    0  501  502  0.00000000000E+00  0.00000000000E+00  0.19789439322E+03  0.19789439322E+03  0.00000000000E+00 0. -1.
         21   -1    0    0  502  503 -0.00000000000E+00 -0.00000000000E+00 -0.56127813468E+03  0.56127813468E+03  0.00000000000E+00 0. -1.
         -6    2    1    2    0  503  0.76518453687E+02 -0.27867841055E+02  0.13057824568E+03  0.23004238714E+03  0.17098868769E+03 0.  0.
        -24    2    3    3    0    0  0.26760576133E+02  0.33867390426E+02  0.21309175218E+02  0.94953879324E+02  0.81847600337E+02 0.  0.
          6    2    1    2  501    0 -0.76518453687E+02  0.27867841055E+02 -0.49396198714E+03  0.52913014076E+03  0.17131424576E+03 0.  0.
         24    2    5    5    0    0  0.38424133257E-02  0.35025059392E+02 -0.38878118331E+03  0.39877685515E+03  0.81519426569E+02 0.  0.
          5    1    5    5  501    0 -0.76522296100E+02 -0.71572183373E+01 -0.10518080384E+03  0.13035328562E+03  0.47000000000E+01 0. -1.
        -11    1    6    6    0    0 -0.92862069906E+00  0.61319882246E+02 -0.29875676177E+03  0.30498621772E+03  0.00000000000E+00 0.  1.
         12    1    6    6    0    0  0.93246311239E+00 -0.26294822854E+02 -0.90024421534E+02  0.93790637427E+02  0.00000000000E+00 0. -1.
         -5    1    3    3    0  503  0.49757877554E+02 -0.61735231481E+02  0.10926907046E+03  0.13508850782E+03  0.47000000000E+01 0.  1.
         11    1    4    4    0    0 -0.22907482296E+02  0.35426942804E+02  0.15401867070E+02  0.44911452112E+02  0.00000000000E+00 0. -1.
        -12    1    4    4    0    0  0.49668058429E+02 -0.15595523779E+01  0.59073081474E+01  0.50042427212E+02  0.00000000000E+00 0.  1.
</event>
<event>
12    1  0.1050869E+000  0.2895218E+03  0.7818608E-02  0.1090877E+00
         21   -1    0    0  501  502  0.00000000000E+00  0.00000000000E+00  0.11167051659E+03  0.11167051659E+03  0.00000000000E+00 0.  1.
         21   -1    0    0  502  503 -0.00000000000E+00 -0.00000000000E+00 -0.80278574688E+03  0.80278574688E+03  0.00000000000E+00 0.  1.
         -6    2    1    2    0  503  0.84925335417E+02  0.21352399040E+03 -0.46924873261E+03  0.55137758817E+03  0.17611946121E+03 0.  0.
        -24    2    3    3    0    0  0.55223967107E+01  0.18497385350E+03 -0.27874122383E+03  0.34296660503E+03  0.75389647575E+02 0.  0.
          6    2    1    2  501    0 -0.84925335417E+02 -0.21352399040E+03 -0.22186649768E+03  0.36307867530E+03  0.17261684331E+03 0.  0.
         24    2    5    5    0    0 -0.35047832191E+02 -0.56222469832E+02 -0.22515425506E+02  0.10424576843E+03  0.77271723126E+02 0.  0.
          5    1    5    5  501    0 -0.49877503226E+02 -0.15730152056E+03 -0.19935107217E+03  0.25883290687E+03  0.47000000000E+01 0. -1.
        -11    1    6    6    0    0 -0.51514186692E+02 -0.10266983457E+02 -0.68205135441E+01  0.52968309251E+02  0.00000000000E+00 0.  1.
         12    1    6    6    0    0  0.16466354501E+02 -0.45955486375E+02 -0.15694911962E+02  0.51277459181E+02  0.00000000000E+00 0. -1.
         -5    1    3    3    0  503  0.79402938707E+02  0.28550136893E+02 -0.19050750878E+03  0.20841098314E+03  0.47000000000E+01 0.  1.
         13    1    4    4    0    0  0.28695929854E+02  0.15118488493E+03 -0.18481547222E+03  0.24049341902E+03  0.00000000000E+00 0. -1.
        -14    1    4    4    0    0 -0.23173533143E+02  0.33788968569E+02 -0.93925751610E+02  0.10247318601E+03  0.00000000000E+00 0.  1.
</event>
<event>
12    1  0.1050869E+000  0.2322149E+03  0.7818608E-02  0.1125373E+00
         21   -1    0    0  501  502  0.00000000000E+00  0.00000000000E+00  0.35492655411E+03  0.35492655411E+03  0.00000000000E+00 0. -1.
         21   -1    0    0  502  503 -0.00000000000E+00 -0.00000000000E+00 -0.18105077175E+03  0.18105077175E+03  0.00000000000E+00 0. -1.
         -6    2    1    2    0  503  0.95471519632E+02  0.12105600332E+03 -0.22219644750E+02  0.23327552668E+03  0.17365019935E+03 0.  0.
        -24    2    3    3    0    0  0.18282883958E+02 -0.14366206345E+01  0.13905838263E+02  0.83978276463E+02  0.80762929958E+02 0.  0.
          6    2    1    2  501    0 -0.95471519632E+02 -0.12105600332E+03  0.19609542712E+03  0.30270179917E+03  0.17148059857E+03 0.  0.
         24    2    5    5    0    0 -0.32443680662E+02 -0.12928020501E+03  0.90032699400E+02  0.17896199883E+03  0.78457289288E+02 0.  0.
          5    1    5    5  501    0 -0.63027838970E+02  0.82242016872E+01  0.10606272771E+03  0.12373980034E+03  0.47000000000E+01 0. -1.
        -11    1    6    6    0    0 -0.17607573067E+02  0.59025637944E+01  0.87599324174E+01  0.20532980900E+02  0.00000000000E+00 0.  1.
         12    1    6    6    0    0 -0.14836107595E+02 -0.13518276880E+03  0.81272766983E+02  0.15842901793E+03  0.00000000000E+00 0. -1.
         -5    1    3    3    0  503  0.77188635674E+02  0.12249262395E+03 -0.36125483012E+02  0.14929725022E+03  0.47000000000E+01 0.  1.
         11    1    4    4    0    0 -0.21743862880E+02  0.11901251710E+02  0.29917023674E+02  0.38851816826E+02  0.00000000000E+00 0. -1.
        -12    1    4    4    0    0  0.40026746838E+02 -0.13337872345E+02 -0.16011185411E+02  0.45126459637E+02  0.00000000000E+00 0.  1.
</event>
<event>
12    1  0.1050869E+000  0.3423503E+03  0.7818608E-02  0.1066216E+00
         21   -1    0    0  501  502  0.00000000000E+00  0.00000000000E+00  0.33245590258E+03  0.33245590258E+03  0.00000000000E+00 0. -1.
         21   -1    0    0  502  503 -0.00000000000E+00 -0.00000000000E+00 -0.37489226389E+03  0.37489226389E+03  0.00000000000E+00 0. -1.
         -6    2    1    2    0  503  0.29229156219E+03  0.45924362831E+02 -0.11491839523E+03  0.35740909939E+03  0.16429127285E+03 0.  0.
        -24    2    3    3    0    0  0.22325035917E+03  0.91493017213E+01 -0.13964703030E+03  0.27523435736E+03  0.79550146512E+02 0.  0.
          6    2    1    2  501    0 -0.29229156219E+03 -0.45924362831E+02  0.72482033918E+02  0.34993906708E+03  0.17222166240E+03 0.  0.
         24    2    5    5    0    0 -0.11440917437E+03 -0.76516978882E+02  0.13455029249E+02  0.15998031015E+03  0.80426081514E+02 0.  0.
          5    1    5    5  501    0 -0.17788238782E+03  0.30592616051E+02  0.59027004669E+02  0.18995875693E+03  0.47000000000E+01 0. -1.
        -13    1    6    6    0    0 -0.94506974292E+02 -0.18807614521E+02  0.20542097278E+02  0.98525490683E+02  0.00000000000E+00 0.  1.
         14    1    6    6    0    0 -0.19902200077E+02 -0.57709364361E+02 -0.70870680289E+01  0.61454819470E+02  0.00000000000E+00 0. -1.
         -5    1    3    3    0  503  0.69041203022E+02  0.36775061109E+02  0.24728635077E+02  0.82174742027E+02  0.47000000000E+01 0.  1.
         11    1    4    4    0    0  0.54827154731E+02 -0.32368514909E+02 -0.39814085108E+02  0.75092603007E+02  0.00000000000E+00 0. -1.
        -12    1    4    4    0    0  0.16842320443E+03  0.41517816631E+02 -0.99832945196E+02  0.20014175436E+03  0.00000000000E+00 0.  1.
</event>
<event>
12    1  0.1050869E+000  0.2946086E+03  0.7818608E-02  0.1088030E+00
         21   -1    0    0  501  502  0.00000000000E+00  0.00000000000E+00  0.57255853296E+03  0.57255853296E+03  0.00000000000E+00 0. -1.
         21   -1    0    0  502  503 -0.00000000000E+00 -0.00000000000E+00 -0.15538443009E+03  0.15538443009E+03  0.00000000000E+00 0. -1.
         -6    2    1    2    0  503  0.59495864552E+02 -0.23391860538E+03  0.15001303933E+03  0.33060266767E+03  0.16892761780E+03 0.  0.
        -24    2    3    3    0    0  0.73973852363E+02 -0.87826352033E+02  0.40594360426E+02  0.14744400444E+03  0.83103750838E+02 0.  0.
          6    2    1    2  501    0 -0.59495864552E+02  0.23391860538E+03  0.26716106353E+03  0.39734029538E+03  0.16806726221E+03 0.  0.
         24    2    5    5    0    0 -0.35328228541E+02  0.52046515488E+02  0.55485507743E+02  0.11717933695E+03  0.81825619043E+02 0.  0.
          5    1    5    5  501    0 -0.24167636010E+02  0.18187208989E+03  0.21167555579E+03  0.28016095844E+03  0.47000000000E+01 0. -1.
        -11    1    6    6    0    0 -0.15810736344E+02  0.60745495255E+02  0.67898464446E+02  0.92467270164E+02  0.00000000000E+00 0.  1.
         12    1    6    6    0    0 -0.19517492197E+02 -0.86989797670E+01 -0.12412956703E+02  0.24712066784E+02  0.00000000000E+00 0. -1.
         -5    1    3    3    0  503 -0.14477987811E+02 -0.14609225335E+03  0.10941867891E+03  0.18315866322E+03  0.47000000000E+01 0.  1.
         11    1    4    4    0    0  0.11367604133E+02  0.15735157928E+02  0.12880828214E+02  0.23296638260E+02  0.00000000000E+00 0. -1.
        -12    1    4    4    0    0  0.62606248230E+02 -0.10356150996E+03  0.27713532211E+02  0.12414736618E+03  0.00000000000E+00 0.  1.
</event>
<event>
12    1  0.1050869E+000  0.1815189E+03  0.7818608E-02  0.1166883E+00
         21   -1    0    0  501  502  0.00000000000E+00  0.00000000000E+00  0.33457494059E+03  0.33457494059E+03  0.00000000000E+00 0. -1.
         21   -1    0    0  502  503 -0.00000000000E+00 -0.00000000000E+00 -0.97265578232E+02  0.97265578232E+02  0.00000000000E+00 0. -1.
         -6    2    1    2    0  503 -0.51199402243E+02 -0.69629619732E+01  0.11719305296E+03  0.21417785901E+03  0.17166269833E+03 0.  0.
        -24    2    3    3    0    0 -0.25385680716E+02 -0.62962959062E+02  0.11009997766E+03  0.15193037223E+03  0.79699848971E+02 0.  0.
          6    2    1    2  501    0  0.51199402243E+02  0.69629619732E+01  0.12011630939E+03  0.21766265981E+03  0.17400932177E+03 0.  0.
         24    2    5    5    0    0  0.46168616871E+02 -0.33863749708E+02  0.14030114937E+03  0.17160132079E+03  0.80525188944E+02 0.  0.
          5    1    5    5  501    0  0.50307853717E+01  0.40826711681E+02 -0.20184839971E+02  0.46061339025E+02  0.47000000000E+01 0. -1.
        -13    1    6    6    0    0  0.16454142580E+02  0.19322324320E+02  0.87087241995E+02  0.90709860233E+02  0.00000000000E+00 0.  1.
         14    1    6    6    0    0  0.29714474292E+02 -0.53186074028E+02  0.53213907370E+02  0.80891460554E+02  0.00000000000E+00 0. -1.
         -5    1    3    3    0  503 -0.25813721527E+02  0.55999997089E+02  0.70930753010E+01  0.62247486778E+02  0.47000000000E+01 0.  1.
         11    1    4    4    0    0 -0.16473618455E+02  0.37045228233E+01  0.73383261307E+02  0.75300774461E+02  0.00000000000E+00 0. -1.
        -12    1    4    4    0    0 -0.89120622616E+01 -0.66667481885E+02  0.36716716355E+02  0.76629597771E+02  0.00000000000E+00 0.  1.
</event>
<event>
12    1  0.1050869E+000  0.2172593E+03  0.7818608E-02  0.1136017E+00
         21   -1    0    0  501  502  0.00000000000E+00  0.00000000000E+00  0.49678420069E+03  0.49678420069E+03  0.00000000000E+00 0.  1.
         21   -1    0    0  502  503 -0.00000000000E+00 -0.00000000000E+00 -0.10814070409E+03  0.10814070409E+03  0.00000000000E+00 0. -1.
         -6    2    1    2    0  503 -0.41972058173E+02 -0.12471345814E+03  0.30053603443E+03  0.37084163375E+03  0.17287715008E+03 0.  0.
        -24    2    3    3    0    0 -0.48753154978E+01 -0.72844626823E+02  0.51891023542E+02  0.11410640940E+03  0.70692899109E+02 0.  0.
          6    2    1    2  501    0  0.41972058173E+02  0.12471345814E+03  0.88107462168E+02  0.23408327104E+03  0.17238605681E+03 0.  0.
         24    2    5    5    0    0  0.71582706762E+02  0.86405959532E+02  0.11823157605E+03  0.17686607785E+03  0.68650055856E+02 0.  0.
          5    1    5    5  501    0 -0.29610648589E+02  0.38307498607E+02 -0.30124113880E+02  0.57217193189E+02  0.47000000000E+01 0. -1.
        -13    1    6    6    0    0  0.26943212907E+02  0.78895417944E+02  0.93549667015E+02  0.12530747740E+03  0.00000000000E+00 0.  1.
         14    1    6    6    0    0  0.44639493855E+02  0.75105415879E+01  0.24681909034E+02  0.51558600448E+02  0.00000000000E+00 0. -1.
         -5    1    3    3    0  503 -0.37096742675E+02 -0.51868831316E+02  0.24864501089E+03  0.25673522435E+03  0.47000000000E+01 0.  1.
         13    1    4    4    0    0  0.17274736378E+02 -0.77137040427E+02  0.39551315349E+02  0.88390305286E+02  0.00000000000E+00 0. -1.
        -14    1    4    4    0    0 -0.22150051876E+02  0.42924136041E+01  0.12339708194E+02  0.25716104117E+02  0.00000000000E+00 0.  1.
</event>
<event>
12    1  0.1050869E+000  0.3125482E+03  0.7818608E-02  0.1079450E+00
         21   -1    0    0  503  502  0.00000000000E+00  0.00000000000E+00  0.17430560422E+04  0.17430560422E+04  0.00000000000E+00 0. -1.
         21   -1    0    0  501  503 -0.00000000000E+00 -0.00000000000E+00 -0.57582095107E+02  0.57582095107E+02  0.00000000000E+00 0. -1.
          6    2    1    2  501    0 -0.30164611186E+02 -0.25866469869E+03  0.67071261213E+03  0.73883450441E+03  0.16793953291E+03 0.  0.
         24    2    3    3    0    0 -0.68366516754E+02 -0.24517806607E+03  0.54744026557E+03  0.60899061246E+03  0.79952842378E+02 0.  0.
         -6    2    1    2    0  502  0.30164611186E+02  0.25866469869E+03  0.10147613349E+04  0.10618036329E+04  0.17282666978E+03 0.  0.
        -24    2    5    5    0    0  0.75407704931E+02  0.22873226753E+03  0.90959610752E+03  0.94337769389E+03  0.67761510774E+02 0.  0.
          5    1    3    3  501    0  0.38201905568E+02 -0.13486632616E+02  0.12327234656E+03  0.12984389195E+03  0.47000000000E+01 0. -1.
        -11    1    4    4    0    0 -0.20895269572E+02 -0.18924302520E+03  0.35125431784E+03  0.39953614440E+03  0.00000000000E+00 0.  1.
         12    1    4    4    0    0 -0.47471247182E+02 -0.55935040872E+02  0.19618594773E+03  0.20945446806E+03  0.00000000000E+00 0. -1.
         -5    1    5    5    0  502 -0.45243093745E+02  0.29932431163E+02  0.10516522742E+03  0.11842593899E+03  0.47000000000E+01 0.  1.
         13    1    6    6    0    0  0.45208909187E+02  0.20170837490E+03  0.69929007647E+03  0.72920280103E+03  0.00000000000E+00 0. -1.
        -14    1    6    6    0    0  0.30198795745E+02  0.27023892625E+02  0.21030603105E+03  0.21417489286E+03  0.00000000000E+00 0.  1.
</event>
<event>
12    1  0.1050869E+000  0.2011597E+03  0.7818608E-02  0.1153120E+00
         21   -1    0    0  501  502  0.00000000000E+00  0.00000000000E+00  0.26160646242E+03  0.26160646242E+03  0.00000000000E+00 0. -1.
         21   -1    0    0  502  503 -0.00000000000E+00 -0.00000000000E+00 -0.14962154429E+03  0.14962154429E+03  0.00000000000E+00 0. -1.
         -6    2    1    2    0  503 -0.58113995567E+02 -0.85070179599E+01  0.11101389604E+03  0.22975920265E+03  0.19239438727E+03 0.  0.
        -24    2    3    3    0    0 -0.58426933828E+02  0.54650668271E+02  0.12638134634E+02  0.11275975097E+03  0.78451493633E+02 0.  0.
          6    2    1    2  501    0  0.58113995567E+02  0.85070179599E+01  0.97102209823E+00  0.18146880406E+03  0.17169850940E+03 0.  0.
         24    2    5    5    0    0  0.93433617495E+02  0.21315159275E+02  0.35919723588E+02  0.12994186050E+03  0.80065496154E+02 0.  0.
          5    1    5    5  501    0 -0.35319621928E+02 -0.12808141315E+02 -0.34948701490E+02  0.51526943563E+02  0.47000000000E+01 0. -1.
        -13    1    6    6    0    0  0.32079471736E+02  0.39074911965E+02  0.42073514398E+02  0.65773261024E+02  0.00000000000E+00 0.  1.
         14    1    6    6    0    0  0.61354145759E+02 -0.17759752690E+02 -0.61537908102E+01  0.64168599476E+02  0.00000000000E+00 0. -1.
         -5    1    3    3    0  503  0.31293826095E+00 -0.63157686231E+02  0.98375761406E+02  0.11699945168E+03  0.47000000000E+01 0.  1.
         11    1    4    4    0    0 -0.20076152703E+02  0.34921160812E+02  0.43834462219E+02  0.59531499711E+02  0.00000000000E+00 0. -1.
        -12    1    4    4    0    0 -0.38350781125E+02  0.19729507459E+02 -0.31196327585E+02  0.53228251260E+02  0.00000000000E+00 0.  1.
</event>
<event>
12    1  0.1050869E+000  0.1740461E+03  0.7818608E-02  0.1173826E+00
         21   -1    0    0  501  502  0.00000000000E+00  0.00000000000E+00  0.37721047571E+03  0.37721047571E+03  0.00000000000E+00 0. -1.
         21   -1    0    0  502  503 -0.00000000000E+00 -0.00000000000E+00 -0.92564132639E+02  0.92564132639E+02  0.00000000000E+00 0. -1.
         -6    2    1    2    0  503  0.20319407581E+02 -0.40994130186E+01  0.56189527278E+02  0.18289155241E+03  0.17280733044E+03 0.  0.
        -24    2    3    3    0    0 -0.47901664190E+02  0.26915766662E+02  0.44449802660E+02  0.10689176860E+03  0.80193748579E+02 0.  0.
          6    2    1    2  501    0 -0.20319407581E+02  0.40994130186E+01  0.22845681579E+03  0.28688305594E+03  0.17227793705E+03 0.  0.
         24    2    5    5    0    0 -0.30293957386E+02  0.43423769927E+02  0.61309629658E+02  0.11481862463E+03  0.81370131032E+02 0.  0.
          5    1    5    5  501    0  0.99745498052E+01 -0.39324356908E+02  0.16714718613E+03  0.17206443131E+03  0.47000000000E+01 0. -1.
        -13    1    6    6    0    0 -0.26587943255E+02 -0.43235004384E+01  0.61267521309E+02  0.66927726317E+02  0.00000000000E+00 0.  1.
         14    1    6    6    0    0 -0.37060141306E+01  0.47747270365E+02  0.42108348980E-01  0.47890898313E+02  0.00000000000E+00 0. -1.
         -5    1    3    3    0  503  0.68221071771E+02 -0.31015179681E+02  0.11739724618E+02  0.75999783804E+02  0.47000000000E+01 0.  1.
         13    1    4    4    0    0 -0.84720750574E+01 -0.98425791532E+00  0.56474806498E+02  0.57115222038E+02  0.00000000000E+00 0. -1.
        -14    1    4    4    0    0 -0.39429589133E+02  0.27900024577E+02 -0.12025003838E+02  0.49776546565E+02  0.00000000000E+00 0.  1.
</event>
<event>
12    1  0.1050869E+000  0.7817775E+03  0.7818608E-02  0.9586833E-01
         21   -1    0    0  501  502  0.00000000000E+00  0.00000000000E+00  0.10915267288E+04  0.10915267288E+04  0.00000000000E+00 0.  1.
         21   -1    0    0  502  503 -0.00000000000E+00 -0.00000000000E+00 -0.58073229554E+03  0.58073229554E+03  0.00000000000E+00 0.  1.
         -6    2    1    2    0  503 -0.52368684261E+03  0.55392392277E+03  0.41410933632E+03  0.88468219978E+03  0.17348322926E+03 0.  0.
        -24    2    3    3    0    0 -0.52093534006E+03  0.56284323144E+03  0.41086688500E+03  0.87374015590E+03  0.80275345828E+02 0.  0.
          6    2    1    2  501    0  0.52368684261E+03 -0.55392392277E+03  0.96685096906E+02  0.78757682454E+03  0.17277044092E+03 0.  0.
         24    2    5    5    0    0  0.45332184433E+03 -0.44742762216E+03  0.13054674226E+03  0.65543524875E+03  0.82829594800E+02 0.  0.
          5    1    5    5  501    0  0.70364998275E+02 -0.10649630061E+03 -0.33861645354E+02  0.13214157579E+03  0.47000000000E+01 0. -1.
        -11    1    6    6    0    0  0.33485600196E+03 -0.27763935504E+03  0.79291629597E+02  0.44215304594E+03  0.00000000000E+00 0.  1.
         12    1    6    6    0    0  0.11846584237E+03 -0.16978826712E+03  0.51255112663E+02  0.21328220281E+03  0.00000000000E+00 0. -1.
         -5    1    3    3    0  503 -0.27515025530E+01 -0.89193086759E+01  0.32424513289E+01  0.10942043876E+02  0.47000000000E+01 0.  1.
         13    1    4    4    0    0 -0.40661542103E+03  0.46149461671E+03  0.29594815236E+03  0.68256771880E+03  0.00000000000E+00 0. -1.
        -14    1    4    4    0    0 -0.11431991903E+03  0.10134861474E+03  0.11491873263E+03  0.19117243710E+03  0.00000000000E+00 0.  1.
</event>
<event>
12    1  0.1050869E+000  0.4032834E+03  0.7818608E-02  0.1042660E+00
         21   -1    0    0  503  502  0.00000000000E+00  0.00000000000E+00  0.21122038427E+03  0.21122038427E+03  0.00000000000E+00 0. -1.
         21   -1    0    0  501  503 -0.00000000000E+00 -0.00000000000E+00 -0.92939433632E+03  0.92939433632E+03  0.00000000000E+00 0. -1.
          6    2    1    2  501    0  0.14338532889E+03 -0.33457862005E+03 -0.59551209127E+03  0.71921634464E+03  0.17359520157E+03 0.  0.
         24    2    3    3    0    0  0.35146406351E+01 -0.99399439801E+02 -0.20173165837E+03  0.23967679925E+03  0.82805221925E+02 0.  0.
         -6    2    1    2    0  502 -0.14338532889E+03  0.33457862005E+03 -0.12266186078E+03  0.42139837595E+03  0.17328719985E+03 0.  0.
        -24    2    5    5    0    0 -0.44481332201E+02  0.10021040618E+03 -0.95040310076E+02  0.16547748916E+03  0.79557680070E+02 0.  0.
          5    1    3    3  501    0  0.13987068826E+03 -0.23517918024E+03 -0.39378043290E+03  0.47953954538E+03  0.47000000000E+01 0. -1.
        -13    1    4    4    0    0  0.17039277110E+02 -0.70012144719E+02 -0.58430160809E+02  0.92769181654E+02  0.00000000000E+00 0.  1.
         14    1    4    4    0    0 -0.13524636475E+02 -0.29387295082E+02 -0.14330149757E+03  0.14690761760E+03  0.00000000000E+00 0. -1.
         -5    1    5    5    0  502 -0.98903996694E+02  0.23436821387E+03 -0.27621550707E+02  0.25592088679E+03  0.47000000000E+01 0.  1.
         11    1    6    6    0    0 -0.49623894962E+02  0.62580301157E+02 -0.99103925828E+02  0.12728084364E+03  0.00000000000E+00 0. -1.
        -12    1    6    6    0    0  0.51425627611E+01  0.37630105019E+02  0.40636157524E+01  0.38196645514E+02  0.00000000000E+00 0.  1.
</event>
<event>
12    1  0.1050869E+000  0.2113584E+03  0.7818608E-02  0.1141227E+00
         21   -1    0    0  503  502  0.00000000000E+00  0.00000000000E+00  0.22585150550E+03  0.22585150550E+03  0.00000000000E+00 0. -1.
         21   -1    0    0  501  503 -0.00000000000E+00 -0.00000000000E+00 -0.19750321569E+03  0.19750321569E+03  0.00000000000E+00 0. -1.
          6    2    1    2  501    0 -0.86821807482E+02 -0.75395020766E+02 -0.12680385814E+02  0.20805090993E+03  0.17292181334E+03 0.  0.
         24    2    3    3    0    0 -0.11822750067E+03 -0.76451733258E+02 -0.39518909895E+02  0.16645967792E+03  0.79526540860E+02 0.  0.
         -6    2    1    2    0  502  0.86821807482E+02  0.75395020766E+02  0.41028675620E+02  0.21530381126E+03  0.17734131924E+03 0.  0.
        -24    2    5    5    0    0  0.12838586108E+03  0.76682022655E+02  0.33578976870E+02  0.17279716546E+03  0.79801320660E+02 0.  0.
          5    1    3    3  501    0  0.31405693183E+02  0.10567124921E+01  0.26838524081E+02  0.41591232014E+02  0.47000000000E+01 0. -1.
        -13    1    4    4    0    0 -0.71708471302E+02 -0.59167291457E+00 -0.84621674271E+01  0.72208470493E+02  0.00000000000E+00 0.  1.
         14    1    4    4    0    0 -0.46519029364E+02 -0.75860060343E+02 -0.31056742468E+02  0.94251207424E+02  0.00000000000E+00 0. -1.
         -5    1    5    5    0  502 -0.41564053602E+02 -0.12870018890E+01  0.74496987492E+01  0.42506645800E+02  0.47000000000E+01 0.  1.
         11    1    6    6    0    0  0.27889712308E+02  0.22243141244E+02  0.45574108777E+02  0.57875666526E+02  0.00000000000E+00 0. -1.
        -12    1    6    6    0    0  0.10049614878E+03  0.54438881411E+02 -0.11995131906E+02  0.11492149894E+03  0.00000000000E+00 0.  1.
</event>
<event>
12    1  0.1050869E+000  0.1824591E+03  0.7818608E-02  0.1165803E+00
         21   -1    0    0  501  502  0.00000000000E+00  0.00000000000E+00  0.36301968147E+03  0.36301968147E+03  0.00000000000E+00 0. -1.
         21   -1    0    0  502  503 -0.00000000000E+00 -0.00000000000E+00 -0.10798882765E+03  0.10798882765E+03  0.00000000000E+00 0. -1.
         -6    2    1    2    0  503  0.56329178649E+02 -0.17459193185E+02  0.22149708655E+03  0.28697087853E+03  0.17266593752E+03 0.  0.
        -24    2    3    3    0    0  0.78854626201E+02  0.27765772153E+02  0.20213725586E+03  0.23266078443E+03  0.79262729107E+02 0.  0.
          6    2    1    2  501    0 -0.56329178649E+02  0.17459193185E+02  0.33533767261E+02  0.18403763059E+03  0.17107757343E+03 0.  0.
         24    2    5    5    0    0 -0.83051658995E+02  0.14605221665E+02 -0.24769465332E+02  0.11966688382E+03  0.81214198928E+02 0.  0.
          5    1    5    5  501    0  0.26722480346E+02  0.28539715199E+01  0.58303232594E+02  0.64370746773E+02  0.47000000000E+01 0. -1.
        -11    1    6    6    0    0  0.14269166577E+02 -0.17055432463E+01 -0.14567229146E+02  0.20462701619E+02  0.00000000000E+00 0.  1.
         12    1    6    6    0    0 -0.97320825572E+02  0.16310764912E+02 -0.10202236187E+02  0.99204182197E+02  0.00000000000E+00 0. -1.
         -5    1    3    3    0  503 -0.22525447551E+02 -0.45224965338E+02  0.19359830690E+02  0.54310094104E+02  0.47000000000E+01 0.  1.
         13    1    4    4    0    0  0.83005206982E+02  0.36105252786E+02  0.12162617513E+03  0.15161259889E+03  0.00000000000E+00 0. -1.
        -14    1    4    4    0    0 -0.41505807814E+01 -0.83394806336E+01  0.80511080736E+02  0.81048185540E+02  0.00000000000E+00 0.  1.
</event>
<event>
12    1  0.1050869E+000  0.1752590E+03  0.7818608E-02  0.1173721E+00
         21   -1    0    0  503  502  0.00000000000E+00  0.00000000000E+00  0.51616024645E+03  0.51616024645E+03  0.00000000000E+00 0.  1.
         21   -1    0    0  501  503 -0.00000000000E+00 -0.00000000000E+00 -0.59306435495E+02  0.59306435495E+02  0.00000000000E+00 0.  1.
          6    2    1    2  501    0 -0.14557934804E+02  0.14168610628E+02  0.27663172201E+03  0.32747643679E+03  0.17407763795E+03 0.  0.
         24    2    3    3    0    0 -0.22012391987E+02  0.76159283912E+02  0.19731392469E+03  0.22642290900E+03  0.77780247590E+02 0.  0.
         -6    2    1    2    0  502  0.14557934804E+02 -0.14168610628E+02  0.18022208894E+03  0.24799024516E+03  0.16913449488E+03 0.  0.
        -24    2    5    5    0    0 -0.42303511860E+02  0.29550728520E+02  0.62175107416E+02  0.10978103932E+03  0.74318907013E+02 0.  0.
          5    1    3    3  501    0  0.74544571832E+01 -0.61990673284E+02  0.79317797322E+02  0.10105352779E+03  0.47000000000E+01 0. -1.
        -13    1    4    4    0    0  0.19856305592E+02  0.38207035958E+02  0.13772823164E+03  0.14430216997E+03  0.00000000000E+00 0.  1.
         14    1    4    4    0    0 -0.41868697579E+02  0.37952247954E+02  0.59585693056E+02  0.82120739029E+02  0.00000000000E+00 0. -1.
         -5    1    5    5    0  502  0.56861446663E+02 -0.43719339148E+02  0.11804698152E+03  0.13820920584E+03  0.47000000000E+01 0.  1.
         11    1    6    6    0    0 -0.41555863673E+02 -0.15282772848E+02  0.21414090449E+02  0.49183495416E+02  0.00000000000E+00 0. -1.
        -12    1    6    6    0    0 -0.74764818644E+00  0.44833501368E+02  0.40761016967E+02  0.60597543902E+02  0.00000000000E+00 0.  1.
</event>
<event>
12    1  0.1050869E+000  0.1809820E+03  0.7818608E-02  0.1167571E+00
         21   -1    0    0  503  502  0.00000000000E+00  0.00000000000E+00  0.65273230908E+02  0.65273230908E+02  0.00000000000E+00 0.  1.
         21   -1    0    0  501  503 -0.00000000000E+00 -0.00000000000E+00 -0.51958464819E+03  0.51958464819E+03  0.00000000000E+00 0.  1.
          6    2    1    2  501    0  0.27880048876E+01  0.57691989360E+02 -0.16006185138E+03  0.23940559237E+03  0.16840161158E+03 0.  0.
         24    2    3    3    0    0 -0.37298678887E+02  0.75101818843E+02 -0.15771479276E+03  0.19538692516E+03  0.79187246627E+02 0.  0.
         -6    2    1    2    0  502 -0.27880048876E+01 -0.57691989360E+02 -0.29424956591E+03  0.34545228673E+03  0.17151774475E+03 0.  0.
        -24    2    5    5    0    0 -0.24173226124E+02 -0.50425648415E+02 -0.30485892988E+03  0.32005984687E+03  0.79826358869E+02 0.  0.
          5    1    3    3  501    0  0.40086683774E+02 -0.17409829483E+02 -0.23470586189E+01  0.44018667208E+02  0.47000000000E+01 0. -1.
        -13    1    4    4    0    0  0.16778781595E+02  0.52291708662E+01 -0.64918297628E+02  0.67255164163E+02  0.00000000000E+00 0.  1.
         14    1    4    4    0    0 -0.54077460482E+02  0.69872647977E+02 -0.92796495130E+02  0.12813176100E+03  0.00000000000E+00 0. -1.
         -5    1    5    5    0  502  0.21385221237E+02 -0.72663409449E+01  0.10609363976E+02  0.25392439860E+02  0.47000000000E+01 0.  1.
         13    1    6    6    0    0  0.15956201857E+02 -0.54367946595E+02 -0.19350868506E+03  0.20163354182E+03  0.00000000000E+00 0. -1.
        -14    1    6    6    0    0 -0.40129427981E+02  0.39422981800E+01 -0.11135024482E+03  0.11842630505E+03  0.00000000000E+00 0.  1.
</event>
<event>
12    1  0.1050869E+000  0.1921956E+03  0.7818608E-02  0.1156662E+00
         21   -1    0    0  501  502  0.00000000000E+00  0.00000000000E+00  0.33082604627E+03  0.33082604627E+03  0.00000000000E+00 0.  1.
         21   -1    0    0  502  503 -0.00000000000E+00 -0.00000000000E+00 -0.11123403846E+03  0.11123403846E+03  0.00000000000E+00 0.  1.
         -6    2    1    2    0  503  0.79147528160E+02 -0.33791042569E+02  0.10786858999E+03  0.22039690333E+03  0.17185167011E+03 0.  0.
        -24    2    3    3    0    0  0.18753798862E+02  0.44096113488E+02  0.52721779186E+02  0.10736119057E+03  0.80316044742E+02 0.  0.
          6    2    1    2  501    0 -0.79147528160E+02  0.33791042569E+02  0.11172341782E+03  0.22166318140E+03  0.17101543242E+03 0.  0.
         24    2    5    5    0    0 -0.34871241454E+02  0.80069936808E+02  0.10246774989E+03  0.15677957017E+03  0.80330539627E+02 0.  0.
          5    1    5    5  501    0 -0.44276286707E+02 -0.46278894238E+02  0.92556679369E+01  0.64883611224E+02  0.47000000000E+01 0. -1.
        -13    1    6    6    0    0 -0.11960082516E+01 -0.21820404967E+01 -0.11775316431E+02  0.12035356809E+02  0.00000000000E+00 0.  1.
         14    1    6    6    0    0 -0.33675233202E+02  0.82251977304E+02  0.11424306632E+03  0.14474421337E+03  0.00000000000E+00 0. -1.
         -5    1    3    3    0  503  0.60393729298E+02 -0.77887156057E+02  0.55146810805E+02  0.11303571276E+03  0.47000000000E+01 0.  1.
         13    1    4    4    0    0 -0.87084992236E+01  0.20047767027E+02 -0.17644165326E+02  0.28090345166E+02  0.00000000000E+00 0. -1.
        -14    1    4    4    0    0  0.27462298086E+02  0.24048346461E+02  0.70365944512E+02  0.79270845402E+02  0.00000000000E+00 0.  1.
</event>
<event>
12    1  0.1050869E+000  0.2616568E+03  0.7818608E-02  0.1106323E+00
         21   -1    0    0  501  502  0.00000000000E+00  0.00000000000E+00  0.12958898191E+03  0.12958898191E+03  0.00000000000E+00 0. -1.
         21   -1    0    0  502  503 -0.00000000000E+00 -0.00000000000E+00 -0.53725972037E+03  0.53725972037E+03  0.00000000000E+00 0. -1.
         -6    2    1    2    0  503  0.16802744754E+03  0.10050287973E+03 -0.15601144116E+03  0.30463727227E+03  0.17358066115E+03 0.  0.
        -24    2    3    3    0    0  0.15399484032E+03  0.12261461878E+03 -0.83825077272E+02  0.22770350725E+03  0.77932586594E+02 0.  0.
          6    2    1    2  501    0 -0.16802744754E+03 -0.10050287973E+03 -0.25165929730E+03  0.36221143001E+03  0.17184488980E+03 0.  0.
         24    2    5    5    0    0 -0.11842219890E+02 -0.15835539935E+02 -0.93438024074E+02  0.12426512290E+03  0.79499395780E+02 0.  0.
          5    1    5    5  501    0 -0.15618522765E+03 -0.84667339799E+02 -0.15822127322E+03  0.23794630711E+03  0.47000000000E+01 0. -1.
        -13    1    6    6    0    0 -0.28988098824E+02 -0.41099313124E+02 -0.48010861308E+02  0.69530613519E+02  0.00000000000E+00 0.  1.
         14    1    6    6    0    0  0.17145878934E+02  0.25263773189E+02 -0.45427162766E+02  0.54734509381E+02  0.00000000000E+00 0. -1.
         -5    1    3    3    0  503  0.14032607227E+02 -0.22111739045E+02 -0.72186363887E+02  0.76933765021E+02  0.47000000000E+01 0.  1.
         11    1    4    4    0    0  0.15471955437E+02  0.27875053820E+02  0.12451722180E+02  0.34226384790E+02  0.00000000000E+00 0. -1.
        -12    1    4    4    0    0  0.13852288488E+03  0.94739564959E+02 -0.96276799452E+02  0.19347712246E+03  0.00000000000E+00 0.  1.
</event>
<event>
12    1  0.1050869E+000  0.1943995E+03  0.7818608E-02  0.1154612E+00
         21   -1    0    0  503  502  0.00000000000E+00  0.00000000000E+00  0.58710525881E+02  0.58710525881E+02  0.00000000000E+00 0.  1.
         21   -1    0    0  501  503 -0.00000000000E+00 -0.00000000000E+00 -0.12723094857E+04  0.12723094857E+04  0.00000000000E+00 0.  1.
          6    2    1    2  501    0 -0.88790268173E+02  0.19663882026E+02 -0.13845521882E+03  0.23844267509E+03  0.17150708938E+03 0.  0.
         24    2    3    3    0    0  0.74690850646E+01  0.29699279499E+02 -0.10162402371E+03  0.13478362232E+03  0.83074353535E+02 0.  0.
         -6    2    1    2    0  502  0.88790268173E+02 -0.19663882026E+02 -0.10751437410E+04  0.10925773365E+04  0.17181615880E+03 0.  0.
        -24    2    5    5    0    0  0.26008120317E+02 -0.69817462866E+02 -0.48938720456E+03  0.50131615077E+03  0.79165311795E+02 0.  0.
          5    1    3    3  501    0 -0.96259353238E+02 -0.10035397474E+02 -0.36831195107E+02  0.10365905277E+03  0.47000000000E+01 0. -1.
        -11    1    4    4    0    0  0.59462327602E+01  0.19782642070E+02 -0.11568245911E+03  0.11751230556E+03  0.00000000000E+00 0.  1.
         12    1    4    4    0    0  0.15228523044E+01  0.99166374294E+01  0.14058435395E+02  0.17271316765E+02  0.00000000000E+00 0. -1.
         -5    1    5    5    0  502  0.62782147856E+02  0.50153580840E+02 -0.58575653640E+03  0.59126118568E+03  0.47000000000E+01 0.  1.
         13    1    6    6    0    0  0.32098475419E+02 -0.66150297694E+02 -0.48867035846E+03  0.49417091502E+03  0.00000000000E+00 0. -1.
        -14    1    6    6    0    0 -0.60903551021E+01 -0.36671651713E+01 -0.71684610079E+00  0.71452357551E+01  0.00000000000E+00 0.  1.
</event>
<event>
12    1  0.1050869E+000  0.2508313E+03  0.7818608E-02  0.1112865E+00
         21   -1    0    0  501  502  0.00000000000E+00  0.00000000000E+00  0.60322999283E+03  0.60322999283E+03  0.00000000000E+00 0.  1.
         21   -1    0    0  502  503 -0.00000000000E+00 -0.00000000000E+00 -0.10411689869E+03  0.10411689869E+03  0.00000000000E+00 0.  1.
         -6    2    1    2    0  503  0.17509341138E+03  0.56339552752E+02  0.25675439045E+03  0.35894170405E+03  0.17054173089E+03 0.  0.
        -24    2    3    3    0    0  0.88215031882E+02  0.51401334519E+02  0.57464813249E+02  0.14143155622E+03  0.79225572224E+02 0.  0.
          6    2    1    2  501    0 -0.17509341138E+03 -0.56339552752E+02  0.24235870369E+03  0.34840518748E+03  0.16975448594E+03 0.  0.
         24    2    5    5    0    0 -0.12407821061E+03 -0.61026432291E+02  0.83684904200E+02  0.18159996516E+03  0.82799494975E+02 0.  0.
          5    1    5    5  501    0 -0.51015200768E+02  0.46868795392E+01  0.15867379949E+03  0.16680522232E+03  0.47000000000E+01 0. -1.
        -13    1    6    6    0    0 -0.21580025443E+02 -0.76301330857E+01 -0.16847449192E+02  0.28420995291E+02  0.00000000000E+00 0.  1.
         14    1    6    6    0    0 -0.10249818517E+03 -0.53396299205E+02  0.10053235339E+03  0.15317896987E+03  0.00000000000E+00 0. -1.
         -5    1    3    3    0  503  0.86878379500E+02  0.49382182321E+01  0.19928957720E+03  0.21751014782E+03  0.47000000000E+01 0.  1.
         11    1    4    4    0    0  0.56273139593E+02 -0.23653369127E+01 -0.26085866508E+00  0.56323433006E+02  0.00000000000E+00 0. -1.
        -12    1    4    4    0    0  0.31941892289E+02  0.53766671432E+02  0.57725671914E+02  0.85108123219E+02  0.00000000000E+00 0.  1.
</event>
<event>
12    1  0.1050869E+000  0.2033720E+03  0.7818608E-02  0.1147162E+00
         21   -1    0    0  503  502  0.00000000000E+00  0.00000000000E+00  0.23766268226E+03  0.23766268226E+03  0.00000000000E+00 0. -1.
         21   -1    0    0  501  503 -0.00000000000E+00 -0.00000000000E+00 -0.17306397008E+03  0.17306397008E+03  0.00000000000E+00 0. -1.
          6    2    1    2  501    0 -0.65379204813E+02 -0.84275790509E+02  0.30353302375E+02  0.20449152697E+03  0.17180981448E+03 0.  0.
         24    2    3    3    0    0  0.11886810636E+02 -0.60392672423E+02 -0.27060597824E+02  0.10519960178E+03  0.80908028712E+02 0.  0.
         -6    2    1    2    0  502  0.65379204813E+02  0.84275790509E+02  0.34245409809E+02  0.20623512537E+03  0.17315695064E+03 0.  0.
        -24    2    5    5    0    0  0.61886202513E+02  0.12337435904E+03  0.92200476062E+01  0.15944561928E+03  0.79289102025E+02 0.  0.
          5    1    3    3  501    0 -0.77266015449E+02 -0.23883118086E+02  0.57413900199E+02  0.99291925196E+02  0.47000000000E+01 0. -1.
        -11    1    4    4    0    0 -0.87809438087E+01  0.17998271887E+02 -0.10268420577E+01  0.20052360701E+02  0.00000000000E+00 0.  1.
         12    1    4    4    0    0  0.20667754445E+02 -0.78390944310E+02 -0.26033755766E+02  0.85147241077E+02  0.00000000000E+00 0. -1.
         -5    1    5    5    0  502  0.34930023004E+01 -0.39098568535E+02  0.25025362202E+02  0.46789506087E+02  0.47000000000E+01 0.  1.
         11    1    6    6    0    0  0.10107339090E+02 -0.88200340857E+01 -0.92232297961E+01  0.16279412539E+02  0.00000000000E+00 0. -1.
        -12    1    6    6    0    0  0.51778863423E+02  0.13219439313E+03  0.18443277402E+02  0.14316620674E+03  0.00000000000E+00 0.  1.
</event>
<event>
12    1  0.1050869E+000  0.2398639E+03  0.7818608E-02  0.1121797E+00
         21   -1    0    0  503  502  0.00000000000E+00  0.00000000000E+00  0.10630747210E+04  0.10630747210E+04  0.00000000000E+00 0.  1.
         21   -1    0    0  501  503 -0.00000000000E+00 -0.00000000000E+00 -0.54951595217E+02  0.54951595217E+02  0.00000000000E+00 0.  1.
          6    2    1    2  501    0 -0.32799238479E+01  0.16771249701E+03  0.63024086663E+03  0.67044425352E+03  0.15541463107E+03 0.  0.
         24    2    3    3    0    0  0.47137379990E+02  0.98965906853E+02  0.29823014122E+03  0.32763058697E+03  0.79902447236E+02 0.  0.
         -6    2    1    2    0  502  0.32799238479E+01 -0.16771249701E+03  0.37788225915E+03  0.44758206270E+03  0.17145396325E+03 0.  0.
        -24    2    5    5    0    0 -0.52661797139E+02 -0.13557784600E+03  0.32017223929E+03  0.36089499137E+03  0.81119139438E+02 0.  0.
          5    1    3    3  501    0 -0.50417303838E+02  0.68746590157E+02  0.33201072541E+03  0.34281366655E+03  0.47000000000E+01 0. -1.
        -13    1    4    4    0    0  0.35970463926E+02  0.19900595854E+02  0.40081909681E+02  0.57414871541E+02  0.00000000000E+00 0.  1.
         14    1    4    4    0    0  0.11166916063E+02  0.79065310999E+02  0.25814823154E+03  0.27021571542E+03  0.00000000000E+00 0. -1.
         -5    1    5    5    0  502  0.55941720987E+02 -0.32134651008E+02  0.57710019862E+02  0.86687071324E+02  0.47000000000E+01 0.  1.
         11    1    6    6    0    0  0.16788517973E+02 -0.66477124097E+02  0.13073643645E+03  0.14762478850E+03  0.00000000000E+00 0. -1.
        -12    1    6    6    0    0 -0.69450315111E+02 -0.69100721904E+02  0.18943580284E+03  0.21327020288E+03  0.00000000000E+00 0.  1.
</event>
<event>
12    1  0.1050869E+000  0.3106221E+03  0.7818608E-02  0.1080140E+00
         21   -1    0    0  501  502  0.00000000000E+00  0.00000000000E+00  0.21947862640E+03  0.21947862640E+03  0.00000000000E+00 0. -1.
         21   -1    0    0  502  503 -0.00000000000E+00 -0.00000000000E+00 -0.86177505545E+03  0.86177505545E+03  0.00000000000E+00 0.  1.
         -6    2    1    2    0  503  0.24123384106E+03 -0.90721818130E+02 -0.69982292462E+03  0.76534960182E+03  0.17199904892E+03 0.  0.
        -24    2    3    3    0    0  0.21043419208E+03 -0.27861598630E+02 -0.61066034089E+03  0.65189440401E+03  0.83674632776E+02 0.  0.
          6    2    1    2  501    0 -0.24123384106E+03  0.90721818130E+02  0.57526495561E+02  0.31590408003E+03  0.17338360860E+03 0.  0.
         24    2    5    5    0    0 -0.10908990308E+03  0.11326167833E+03  0.27094110930E+02  0.17836032090E+03  0.79683740444E+02 0.  0.
          5    1    5    5  501    0 -0.13214393798E+03 -0.22539860198E+02  0.30432384631E+02  0.13754375913E+03  0.47000000000E+01 0. -1.
        -11    1    6    6    0    0 -0.10215125749E+03  0.80879187330E+02 -0.74495529390E+01  0.13050600825E+03  0.00000000000E+00 0.  1.
         12    1    6    6    0    0 -0.69386455986E+01  0.32382490998E+02  0.34543663869E+02  0.47854312653E+02  0.00000000000E+00 0. -1.
         -5    1    3    3    0  503  0.30799648978E+02 -0.62860219500E+02 -0.89162583724E+02  0.11345519781E+03  0.47000000000E+01 0.  1.
         11    1    4    4    0    0  0.23681759782E+02 -0.14588219593E+02 -0.26320284273E+02  0.38293592956E+02  0.00000000000E+00 0. -1.
        -12    1    4    4    0    0  0.18675243230E+03 -0.13273379037E+02 -0.58434005662E+03  0.61360081106E+03  0.00000000000E+00 0.  1.
</event>
<event>
12    1  0.1050869E+000  0.1904582E+03  0.7818608E-02  0.1159542E+00
         21   -1    0    0  503  502  0.00000000000E+00  0.00000000000E+00  0.19943677887E+03  0.19943677887E+03  0.00000000000E+00 0.  1.
         21   -1    0    0  501  503 -0.00000000000E+00 -0.00000000000E+00 -0.24271067190E+03  0.24271067190E+03  0.00000000000E+00 0.  1.
          6    2    1    2  501    0  0.52005867652E+02 -0.42493932123E+02 -0.13805102937E+03  0.23522841494E+03  0.17822450996E+03 0.  0.
         24    2    3    3    0    0 -0.40087363556E+02 -0.47975356400E+02 -0.61370357949E+02  0.11517332502E+03  0.74765917523E+02 0.  0.
         -6    2    1    2    0  502 -0.52005867652E+02  0.42493932123E+02  0.94777136336E+02  0.20691903583E+03  0.17123795513E+03 0.  0.
        -24    2    5    5    0    0 -0.51964911722E+02  0.91345125905E+02  0.83332442122E+02  0.15652546642E+03  0.80694743647E+02 0.  0.
          5    1    3    3  501    0  0.92093231207E+02  0.54814242777E+01 -0.76680671423E+02  0.12005508992E+03  0.47000000000E+01 0. -1.
        -13    1    4    4    0    0  0.38567254375E+00  0.15626382612E+02  0.31503628008E+01  0.15945449590E+02  0.00000000000E+00 0.  1.
         14    1    4    4    0    0 -0.40473036099E+02 -0.63601739013E+02 -0.64520720750E+02  0.99227875431E+02  0.00000000000E+00 0. -1.
         -5    1    5    5    0  502 -0.40955929974E-01 -0.48851193783E+02  0.11444694214E+02  0.50393569402E+02  0.47000000000E+01 0.  1.
         11    1    6    6    0    0 -0.24425704512E+02 -0.21569386687E+01  0.46038296728E+02  0.52161213473E+02  0.00000000000E+00 0. -1.
        -12    1    6    6    0    0 -0.27539207210E+02  0.93502064574E+02  0.37294145394E+02  0.10436425295E+03  0.00000000000E+00 0.  1.
</event>
<event>
12    1  0.1050869E+000  0.1773202E+03  0.7818608E-02  0.1170640E+00
         21   -1    0    0  503  502  0.00000000000E+00  0.00000000000E+00  0.30153038072E+03  0.30153038072E+03  0.00000000000E+00 0. -1.
         21   -1    0    0  501  503 -0.00000000000E+00 -0.00000000000E+00 -0.11320149402E+03  0.11320149402E+03  0.00000000000E+00 0. -1.
          6    2    1    2  501    0 -0.32943497752E+02 -0.21732041669E+02  0.15426729481E+03  0.23503371715E+03  0.17287247980E+03 0.  0.
         24    2    3    3    0    0  0.17383077498E+01  0.40266032273E+02  0.13408501314E+03  0.16103369486E+03  0.79553033033E+02 0.  0.
         -6    2    1    2    0  502  0.32943497752E+02  0.21732041669E+02  0.34061591885E+02  0.17969815759E+03  0.17196999774E+03 0.  0.
        -24    2    5    5    0    0  0.40993831466E+02  0.66334832096E+02  0.65684092996E+02  0.12423385048E+03  0.70984824894E+02 0.  0.
          5    1    3    3  501    0 -0.34681805502E+02 -0.61998073942E+02  0.20182281679E+02  0.74000022292E+02  0.47000000000E+01 0. -1.
        -13    1    4    4    0    0 -0.14101788780E+02  0.15283024902E+02  0.12942806675E+03  0.13108796954E+03  0.00000000000E+00 0.  1.
         14    1    4    4    0    0  0.15840096530E+02  0.24983007370E+02  0.46569463903E+01  0.29945725322E+02  0.00000000000E+00 0. -1.
         -5    1    5    5    0  502 -0.80503337143E+01 -0.44602790427E+02 -0.31622501111E+02  0.55464307111E+02  0.47000000000E+01 0.  1.
         13    1    6    6    0    0  0.40254809103E+02  0.39895087914E+01  0.39724888503E+02  0.56695966373E+02  0.00000000000E+00 0. -1.
        -14    1    6    6    0    0  0.73902236346E+00  0.62345323305E+02  0.25959204493E+02  0.67537884109E+02  0.00000000000E+00 0.  1.
</event>
<event>
12    1  0.1050869E+000  0.3315942E+03  0.7818608E-02  0.1070595E+00
         21   -1    0    0  501  502  0.00000000000E+00  0.00000000000E+00  0.10540005365E+04  0.10540005365E+04  0.00000000000E+00 0. -1.
         21   -1    0    0  502  503 -0.00000000000E+00 -0.00000000000E+00 -0.45341222428E+03  0.45341222428E+03  0.00000000000E+00 0. -1.
         -6    2    1    2    0  503 -0.27946028845E+03 -0.36853025068E+02  0.96191817658E+03  0.10169905341E+04  0.17183413421E+03 0.  0.
        -24    2    3    3    0    0 -0.30143565607E+02 -0.71457920094E+01  0.21762734331E+03  0.23147650971E+03  0.72525975336E+02 0.  0.
          6    2    1    2  501    0  0.27946028845E+03  0.36853025068E+02 -0.36132986435E+03  0.49042222673E+03  0.17463817257E+03 0.  0.
         24    2    5    5    0    0  0.27024283374E+03  0.27483547584E+02 -0.37570280536E+03  0.47038675785E+03  0.79527161572E+02 0.  0.
          5    1    5    5  501    0  0.92174547151E+01  0.93694774836E+01  0.14372941013E+02  0.20035468877E+02  0.47000000000E+01 0. -1.
        -13    1    6    6    0    0  0.19740944333E+03 -0.15492864998E+02 -0.25081264034E+03  0.31955828536E+03  0.00000000000E+00 0.  1.
         14    1    6    6    0    0  0.72833390404E+02  0.42976412582E+02 -0.12489016502E+03  0.15082847249E+03  0.00000000000E+00 0. -1.
         -5    1    3    3    0  503 -0.24931672285E+03 -0.29707233058E+02  0.74429083327E+03  0.78551402437E+03  0.47000000000E+01 0.  1.
         11    1    4    4    0    0  0.11099886934E+02 -0.23619350148E+02  0.35792059055E+02  0.44296192644E+02  0.00000000000E+00 0. -1.
        -12    1    4    4    0    0 -0.41243452541E+02  0.16473558138E+02  0.18183528425E+03  0.18718031706E+03  0.00000000000E+00 0.  1.
</event>
<event>
12    1  0.1050869E+000  0.2287797E+03  0.7818608E-02  0.1127581E+00
         21   -1    0    0  503  502  0.00000000000E+00  0.00000000000E+00  0.23226244308E+03  0.23226244308E+03  0.00000000000E+00 0. -1.
         21   -1    0    0  501  503 -0.00000000000E+00 -0.00000000000E+00 -0.28750877044E+03  0.28750877044E+03  0.00000000000E+00 0. -1.
          6    2    1    2  501    0  0.14681296364E+03  0.33904991395E+02  0.93623187707E+02  0.24719520939E+03  0.17215276801E+03 0.  0.
         24    2    3    3    0    0  0.11792169102E+02  0.27790254938E+02  0.69658283191E+02  0.10984743325E+03  0.79390356176E+02 0.  0.
         -6    2    1    2    0  502 -0.14681296364E+03 -0.33904991395E+02 -0.14886951506E+03  0.27257600414E+03  0.17155742707E+03 0.  0.
        -24    2    5    5    0    0 -0.12380357635E+02  0.17871548973E+02 -0.66732865155E+02  0.10668008813E+03  0.80341150067E+02 0.  0.
          5    1    3    3  501    0  0.13502079454E+03  0.61147364571E+01  0.23964904516E+02  0.13734777613E+03  0.47000000000E+01 0. -1.
        -13    1    4    4    0    0  0.40746946048E+02  0.17440288869E+02  0.65109609314E+02  0.78763814744E+02  0.00000000000E+00 0.  1.
         14    1    4    4    0    0 -0.28954776946E+02  0.10349966069E+02  0.45486738764E+01  0.31083618510E+02  0.00000000000E+00 0. -1.
         -5    1    5    5    0  502 -0.13443260601E+03 -0.51776540368E+02 -0.82136649910E+02  0.16589591601E+03  0.47000000000E+01 0.  1.
         11    1    6    6    0    0 -0.26969423076E+02 -0.18125688765E+02 -0.37860840115E+01  0.32714290553E+02  0.00000000000E+00 0. -1.
        -12    1    6    6    0    0  0.14589065440E+02  0.35997237738E+02 -0.62946781143E+02  0.73965797579E+02  0.00000000000E+00 0.  1.
</event>
<event>
12    1  0.1050869E+000  0.1877246E+03  0.7818608E-02  0.1162381E+00
         21   -1    0    0  501  502  0.00000000000E+00  0.00000000000E+00  0.35171801206E+03  0.35171801206E+03  0.00000000000E+00 0.  1.
         21   -1    0    0  502  503 -0.00000000000E+00 -0.00000000000E+00 -0.98406547570E+02  0.98406547570E+02  0.00000000000E+00 0.  1.
         -6    2    1    2    0  503  0.44246992311E+02  0.45115236816E+02  0.16431336324E+03  0.24947827047E+03  0.17676918616E+03 0.  0.
        -24    2    3    3    0    0  0.32734037450E+02 -0.44724368309E+02  0.83531386584E+02  0.12802243269E+03  0.79627033087E+02 0.  0.
          6    2    1    2  501    0 -0.44246992311E+02 -0.45115236816E+02  0.88998101251E+02  0.20064628916E+03  0.16836000240E+03 0.  0.
         24    2    5    5    0    0 -0.64809002756E+02 -0.54026867341E+01  0.10996857559E+03  0.15103042777E+03  0.80546301180E+02 0.  0.
          5    1    5    5  501    0  0.20562010445E+02 -0.39712550082E+02 -0.20970474338E+02  0.49615861390E+02  0.47000000000E+01 0. -1.
        -11    1    6    6    0    0 -0.56987584163E+02 -0.38431847246E+02  0.82382616873E+02  0.10729159890E+03  0.00000000000E+00 0.  1.
         12    1    6    6    0    0 -0.78214185929E+01  0.33029160512E+02  0.27585958717E+02  0.43738828873E+02  0.00000000000E+00 0. -1.
         -5    1    3    3    0  503  0.11512954861E+02  0.89839605124E+02  0.80781976656E+02  0.12145583778E+03  0.47000000000E+01 0.  1.
         13    1    4    4    0    0  0.84863531319E+01  0.20141929192E+02  0.41801872244E+02  0.47171093099E+02  0.00000000000E+00 0. -1.
        -14    1    4    4    0    0  0.24247684318E+02 -0.64866297500E+02  0.41729514339E+02  0.80851339588E+02  0.00000000000E+00 0.  1.
</event>
<event>
12    1  0.1050869E+000  0.2559743E+03  0.7818608E-02  0.1109673E+00
         21   -1    0    0  501  502  0.00000000000E+00  0.00000000000E+00  0.95068229633E+02  0.95068229633E+02  0.00000000000E+00 0. -1.
         21   -1    0    0  502  503 -0.00000000000E+00 -0.00000000000E+00 -0.72337317845E+03  0.72337317845E+03  0.00000000000E+00 0. -1.
         -6    2    1    2    0  503  0.85889021960E+02 -0.16916627889E+03 -0.22293422222E+03  0.33901645511E+03  0.17099220858E+03 0.  0.
        -24    2    3    3    0    0 -0.26869089762E+02 -0.81429973062E+02 -0.14294782716E+03  0.17521180160E+03  0.53965782045E+02 0.  0.
          6    2    1    2  501    0 -0.85889021960E+02  0.16916627889E+03 -0.40537072659E+03  0.47942495296E+03  0.17183918511E+03 0.  0.
         24    2    5    5    0    0 -0.14980146443E+02  0.10190118704E+03 -0.33334186941E+03  0.35792224734E+03  0.79895409926E+02 0.  0.
          5    1    5    5  501    0 -0.70908875516E+02  0.67265091846E+02 -0.72028857180E+02  0.12150270563E+03  0.47000000000E+01 0. -1.
        -13    1    6    6    0    0 -0.43550845567E+02  0.51768968431E+02 -0.12996605960E+03  0.14651920996E+03  0.00000000000E+00 0.  1.
         14    1    6    6    0    0  0.28570699124E+02  0.50132218610E+02 -0.20337580982E+03  0.21140303737E+03  0.00000000000E+00 0. -1.
         -5    1    3    3    0  503  0.11275811172E+03 -0.87736305825E+02 -0.79986395058E+02  0.16380465351E+03  0.47000000000E+01 0.  1.
         13    1    4    4    0    0 -0.18271526432E+02 -0.45134497050E+02 -0.32263420982E+02  0.58411470068E+02  0.00000000000E+00 0. -1.
        -14    1    4    4    0    0 -0.85975633296E+01 -0.36295476012E+02 -0.11068440618E+03  0.11680033153E+03  0.00000000000E+00 0.  1.
</event>
<event>
12    1  0.1050869E+000  0.2713321E+03  0.7818608E-02  0.1100598E+00
         21   -1    0    0  501  502  0.00000000000E+00  0.00000000000E+00  0.24617639331E+03  0.24617639331E+03  0.00000000000E+00 0. -1.
         21   -1    0    0  502  503 -0.00000000000E+00 -0.00000000000E+00 -0.30628870806E+03  0.30628870806E+03  0.00000000000E+00 0. -1.
         -6    2    1    2    0  503  0.11535584400E+03 -0.17574969998E+03  0.14094946429E+02  0.27169795862E+03  0.17154062322E+03 0.  0.
        -24    2    3    3    0    0  0.67301536888E+02 -0.35473834463E+02  0.48071127565E+02  0.11950398448E+03  0.78628742857E+02 0.  0.
          6    2    1    2  501    0 -0.11535584400E+03  0.17574969998E+03 -0.74207261173E+02  0.28076714275E+03  0.17067086175E+03 0.  0.
         24    2    5    5    0    0  0.29766207367E+01  0.36569881725E+02 -0.18568151004E+02  0.89739933695E+02  0.79763794716E+02 0.  0.
          5    1    5    5  501    0 -0.11833246473E+03  0.13917981826E+03 -0.55639110169E+02  0.19102720906E+03  0.47000000000E+01 0. -1.
        -13    1    6    6    0    0 -0.20908243681E+02  0.38576621447E+02  0.16825659999E+02  0.46993757143E+02  0.00000000000E+00 0.  1.
         14    1    6    6    0    0  0.23884864417E+02 -0.20067397218E+01 -0.35393811002E+02  0.42746176552E+02  0.00000000000E+00 0. -1.
         -5    1    3    3    0  503  0.48054307110E+02 -0.14027586552E+03 -0.33976181136E+02  0.15219397413E+03  0.47000000000E+01 0.  1.
         13    1    4    4    0    0  0.66834545121E+02 -0.49616296483E+02  0.58659268125E+02  0.10183095323E+03  0.00000000000E+00 0. -1.
        -14    1    4    4    0    0  0.46699176679E+00  0.14142462020E+02 -0.10588140561E+02  0.17673031257E+02  0.00000000000E+00 0.  1.
</event>
<event>
12    1  0.1050869E+000  0.2814829E+03  0.7818608E-02  0.1094958E+00
         21   -1    0    0  503  502  0.00000000000E+00  0.00000000000E+00  0.27051369680E+03  0.27051369680E+03  0.00000000000E+00 0. -1.
         21   -1    0    0  501  503 -0.00000000000E+00 -0.00000000000E+00 -0.29381619254E+03  0.29381619254E+03  0.00000000000E+00 0. -1.
          6    2    1    2  501    0 -0.99428958906E+02 -0.19915016783E+03  0.85442521519E+01  0.28105112186E+03  0.17137625750E+03 0.  0.
         24    2    3    3    0    0 -0.12247250947E+03 -0.94754131510E+02  0.11048272176E+02  0.17400955171E+03  0.78609151851E+02 0.  0.
         -6    2    1    2    0  502  0.99428958906E+02  0.19915016783E+03 -0.31846747892E+02  0.28327876749E+03  0.17229549485E+03 0.  0.
        -24    2    5    5    0    0  0.13393563688E+03  0.18666440124E+03 -0.31951009046E+02  0.24628273983E+03  0.82776611677E+02 0.  0.
          5    1    3    3  501    0  0.23043550567E+02 -0.10439603632E+03 -0.25040200240E+01  0.10704157014E+03  0.47000000000E+01 0. -1.
        -13    1    4    4    0    0 -0.56711706170E+02 -0.75677370072E+02  0.35919178643E+02  0.10116061166E+03  0.00000000000E+00 0.  1.
         14    1    4    4    0    0 -0.65760803304E+02 -0.19076761439E+02 -0.24870906467E+02  0.72848940051E+02  0.00000000000E+00 0. -1.
         -5    1    5    5    0  502 -0.34506677978E+02  0.12485766589E+02  0.10426115426E+00  0.36996027663E+02  0.47000000000E+01 0.  1.
         11    1    6    6    0    0  0.27942898020E+02  0.68613033467E+02 -0.45682787210E+02  0.87037181472E+02  0.00000000000E+00 0. -1.
        -12    1    6    6    0    0  0.10599273886E+03  0.11805136777E+03  0.13731778163E+02  0.15924555836E+03  0.00000000000E+00 0.  1.
</event>
<event>
12    1  0.1050869E+000  0.3288353E+03  0.7818608E-02  0.1071735E+00
         21   -1    0    0  501  502  0.00000000000E+00  0.00000000000E+00  0.19124617089E+04  0.19124617089E+04  0.00000000000E+00 0.  1.
         21   -1    0    0  502  503 -0.00000000000E+00 -0.00000000000E+00 -0.57635674732E+02  0.57635674732E+02  0.00000000000E+00 0.  1.
         -6    2    1    2    0  503 -0.17691880130E+03  0.21659902764E+03  0.10717972153E+04  0.11211074660E+04  0.17296611974E+03 0.  0.
        -24    2    3    3    0    0 -0.41790832982E+02  0.13868055818E+03  0.42958077131E+03  0.46020285365E+03  0.79172321471E+02 0.  0.
          6    2    1    2  501    0  0.17691880130E+03 -0.21659902764E+03  0.78302881895E+03  0.84898991771E+03  0.17156441367E+03 0.  0.
         24    2    5    5    0    0  0.17634268170E+03 -0.19535195556E+03  0.55041696628E+03  0.61536172166E+03  0.80324864070E+02 0.  0.
          5    1    5    5  501    0  0.57611960528E+00 -0.21247072077E+02  0.23261185267E+03  0.23362819605E+03  0.47000000000E+01 0. -1.
        -11    1    6    6    0    0  0.97813243160E+02 -0.14526446455E+03  0.28985179523E+03  0.33864916713E+03  0.00000000000E+00 0.  1.
         12    1    6    6    0    0  0.78529438536E+02 -0.50087491012E+02  0.26056517104E+03  0.27671255453E+03  0.00000000000E+00 0. -1.
         -5    1    3    3    0  503 -0.13512796832E+03  0.77918469453E+02  0.64221644394E+03  0.66090461231E+03  0.47000000000E+01 0.  1.
         13    1    4    4    0    0  0.73112209979E+01  0.71918166148E+01  0.23698736071E+01  0.10525800664E+02  0.00000000000E+00 0. -1.
        -14    1    4    4    0    0 -0.49102053980E+02  0.13148874157E+03  0.42721089770E+03  0.44967705298E+03  0.00000000000E+00 0.  1.
</event>
<event>
12    1  0.1050869E+000  0.1766017E+03  0.7818608E-02  0.1171242E+00
         21   -1    0    0  503  502  0.00000000000E+00  0.00000000000E+00  0.38016281472E+02  0.38016281472E+02  0.00000000000E+00 0.  1.
         21   -1    0    0  501  503 -0.00000000000E+00 -0.00000000000E+00 -0.10317161900E+04  0.10317161900E+04  0.00000000000E+00 0.  1.
          6    2    1    2  501    0  0.22953491510E+02  0.30431065782E+02 -0.25410894539E+03  0.30945032609E+03  0.17243907809E+03 0.  0.
         24    2    3    3    0    0  0.21199683566E+02 -0.48479560665E+02 -0.15737161236E+03  0.18450968254E+03  0.80487913307E+02 0.  0.
         -6    2    1    2    0  502 -0.22953491510E+02 -0.30431065782E+02 -0.73959096318E+03  0.76028214542E+03  0.17199196289E+03 0.  0.
        -24    2    5    5    0    0 -0.30702209719E+02 -0.40563368958E+02 -0.20745238276E+03  0.22796995791E+03  0.79660517296E+02 0.  0.
          5    1    3    3  501    0  0.17538079442E+01  0.78910626447E+02 -0.96737333035E+02  0.12494064355E+03  0.47000000000E+01 0. -1.
        -11    1    4    4    0    0 -0.10175689312E+02 -0.79880167924E+00  0.57326773619E+01  0.11706678728E+02  0.00000000000E+00 0.  1.
         12    1    4    4    0    0  0.31375372878E+02 -0.47680758986E+02 -0.16310428972E+03  0.17280300381E+03  0.00000000000E+00 0. -1.
         -5    1    5    5    0  502  0.77487182082E+01  0.10132303176E+02 -0.53213858042E+03  0.53231218751E+03  0.47000000000E+01 0.  1.
         11    1    6    6    0    0 -0.39869278574E+02 -0.50934436991E+02 -0.20356242799E+03  0.21359199033E+03  0.00000000000E+00 0. -1.
        -12    1    6    6    0    0  0.91670688557E+01  0.10371068033E+02 -0.38899547651E+01  0.14377967576E+02  0.00000000000E+00 0.  1.
</event>
<event>
12    1  0.1050869E+000  0.2751998E+03  0.7818608E-02  0.1098503E+00
         21   -1    0    0  501  502  0.00000000000E+00  0.00000000000E+00  0.28568235124E+03  0.28568235124E+03  0.00000000000E+00 0. -1.
         21   -1    0    0  502  503 -0.00000000000E+00 -0.00000000000E+00 -0.29298487763E+03  0.29298487763E+03  0.00000000000E+00 0. -1.
         -6    2    1    2    0  503  0.15189441611E+03 -0.15013992945E+03  0.87374386639E+02  0.28873731912E+03  0.17355415279E+03 0.  0.
        -24    2    3    3    0    0  0.90191076773E+02 -0.12663293849E+02  0.62239170940E+02  0.13589427384E+03  0.79364664194E+02 0.  0.
          6    2    1    2  501    0 -0.15189441611E+03  0.15013992945E+03 -0.94676913034E+02  0.28992990975E+03  0.17170242470E+03 0.  0.
         24    2    5    5    0    0 -0.17117888969E+03  0.11400498012E+03 -0.11651000627E+03  0.24327801328E+03  0.57534879986E+02 0.  0.
          5    1    5    5  501    0  0.19284473579E+02  0.36134949331E+02  0.21833093240E+02  0.46651896475E+02  0.47000000000E+01 0. -1.
        -11    1    6    6    0    0 -0.30556156155E+02  0.43883877656E+02 -0.47996884506E+02  0.71855231677E+02  0.00000000000E+00 0.  1.
         12    1    6    6    0    0 -0.14062273353E+03  0.70121102466E+02 -0.68513121768E+02  0.17142278160E+03  0.00000000000E+00 0. -1.
         -5    1    3    3    0  503  0.61703339336E+02 -0.13747663560E+03  0.25135215699E+02  0.15284304528E+03  0.47000000000E+01 0.  1.
         13    1    4    4    0    0  0.32564154105E+02  0.29436801724E+02  0.45608300903E+01  0.44133327536E+02  0.00000000000E+00 0. -1.
        -14    1    4    4    0    0  0.57626922667E+02 -0.42100095573E+02  0.57678340850E+02  0.91760946303E+02  0.00000000000E+00 0.  1.
</event>
<event>
12    1  0.1050869E+000  0.2030238E+03  0.7818608E-02  0.1147630E+00
         21   -1    0    0  503  502  0.00000000000E+00  0.00000000000E+00  0.25895251230E+03  0.25895251230E+03  0.00000000000E+00 0. -1.
         21   -1    0    0  501  503 -0.00000000000E+00 -0.00000000000E+00 -0.16618875301E+03  0.16618875301E+03  0.00000000000E+00 0. -1.
          6    2    1    2  501    0 -0.96754197304E+02  0.42930842725E+02  0.94915823419E+02  0.22411532692E+03  0.17324616668E+03 0.  0.
         24    2    3    3    0    0 -0.13761692737E+03  0.41547744408E+02  0.73980757040E+02  0.17794127930E+03  0.74332447169E+02 0.  0.
         -6    2    1    2    0  502  0.96754197304E+02 -0.42930842725E+02 -0.21520641291E+01  0.20102593839E+03  0.17088699358E+03 0.  0.
        -24    2    5    5    0    0  0.84648571471E+02  0.20831482696E+02  0.39127317387E+02  0.12396584718E+03  0.78976281103E+02 0.  0.
          5    1    3    3  501    0  0.40862730063E+02  0.13830983175E+01  0.20935066378E+02  0.46174047618E+02  0.47000000000E+01 0. -1.
        -11    1    4    4    0    0 -0.23866019613E+02 -0.39848721216E+01  0.46429913095E+02  0.52356498431E+02  0.00000000000E+00 0.  1.
         12    1    4    4    0    0 -0.11375090775E+03  0.45532616529E+02  0.27550843946E+02  0.12558478087E+03  0.00000000000E+00 0. -1.
         -5    1    5    5    0  502  0.12105625833E+02 -0.63762325422E+02 -0.41279381517E+02  0.77060091217E+02  0.47000000000E+01 0.  1.
         11    1    6    6    0    0  0.15284814113E+02  0.39299508877E+02 -0.97588759797E-01  0.42167362545E+02  0.00000000000E+00 0. -1.
        -12    1    6    6    0    0  0.69363757358E+02 -0.18468026180E+02  0.39224906147E+02  0.81798484632E+02  0.00000000000E+00 0.  1.
</event>
<event>
12    1  0.1050869E+000  0.1880646E+03  0.7818608E-02  0.1160545E+00
         21   -1    0    0  503  502  0.00000000000E+00  0.00000000000E+00  0.61781917871E+03  0.61781917871E+03  0.00000000000E+00 0. -1.
         21   -1    0    0  501  503 -0.00000000000E+00 -0.00000000000E+00 -0.56874433336E+02  0.56874433336E+02  0.00000000000E+00 0. -1.
          6    2    1    2  501    0 -0.42720018987E+02 -0.66365922436E+02  0.27065303066E+03  0.32957754229E+03  0.17070107702E+03 0.  0.
         24    2    3    3    0    0  0.85497668458E+01 -0.95684027682E+02  0.17744627030E+03  0.21913419749E+03  0.85463945612E+02 0.  0.
         -6    2    1    2    0  502  0.42720018987E+02  0.66365922436E+02  0.29029171472E+03  0.34511606975E+03  0.16913422565E+03 0.  0.
        -24    2    5    5    0    0  0.71272283288E+02  0.54106814647E+02  0.11003984584E+03  0.16214518750E+03  0.78581221677E+02 0.  0.
          5    1    3    3  501    0 -0.51269785833E+02  0.29318105246E+02  0.93206760353E+02  0.11044334480E+03  0.47000000000E+01 0. -1.
        -13    1    4    4    0    0  0.49889705955E+01 -0.93122846248E+01 -0.88353102237E+01  0.13772116006E+02  0.00000000000E+00 0.  1.
         14    1    4    4    0    0  0.35607962503E+01 -0.86371743057E+02  0.18628158053E+03  0.20536208149E+03  0.00000000000E+00 0. -1.
         -5    1    5    5    0  502 -0.28552264301E+02  0.12259107789E+02  0.18025186887E+03  0.18297088225E+03  0.47000000000E+01 0.  1.
         13    1    6    6    0    0  0.47633630902E-01 -0.15532256713E+02  0.32117174807E+02  0.35675848766E+02  0.00000000000E+00 0. -1.
        -14    1    6    6    0    0  0.71224649657E+02  0.69639071360E+02  0.77922671036E+02  0.12646933873E+03  0.00000000000E+00 0.  1.
</event>
<event>
12    1  0.1050869E+000  0.2124567E+03  0.7818608E-02  0.1140069E+00
         21   -1    0    0  503  502  0.00000000000E+00  0.00000000000E+00  0.13501995694E+03  0.13501995694E+03  0.00000000000E+00 0. -1.
         21   -1    0    0  501  503 -0.00000000000E+00 -0.00000000000E+00 -0.34293380306E+03  0.34293380306E+03  0.00000000000E+00 0.  1.
          6    2    1    2  501    0 -0.65742297019E+02 -0.10277708308E+03 -0.58535362044E+02  0.21823894536E+03  0.17122111505E+03 0.  0.
         24    2    3    3    0    0 -0.25294742281E+02 -0.26735736637E+02 -0.90881575300E+02  0.12611588329E+03  0.79316654554E+02 0.  0.
         -6    2    1    2    0  502  0.65742297019E+02  0.10277708308E+03 -0.14937848408E+03  0.25971481464E+03  0.17393296127E+03 0.  0.
        -24    2    5    5    0    0  0.52646474843E+02  0.14167623911E+03 -0.11466935135E+03  0.20575687924E+03  0.79643111274E+02 0.  0.
          5    1    3    3  501    0 -0.40447554738E+02 -0.76041346441E+02  0.32346213256E+02  0.92123062068E+02  0.47000000000E+01 0. -1.
        -13    1    4    4    0    0 -0.42277519896E+02 -0.11547412683E+02 -0.93421836196E+02  0.10319094392E+03  0.00000000000E+00 0.  1.
         14    1    4    4    0    0  0.16982777614E+02 -0.15188323955E+02  0.25402608967E+01  0.22924939378E+02  0.00000000000E+00 0. -1.
         -5    1    5    5    0  502  0.13095822176E+02 -0.38899156030E+02 -0.34709132730E+02  0.53957935406E+02  0.47000000000E+01 0.  1.
         11    1    6    6    0    0  0.45818769390E+02  0.11613761247E+03 -0.47512356992E+02  0.13358416346E+03  0.00000000000E+00 0. -1.
        -12    1    6    6    0    0  0.68277054528E+01  0.25538626635E+02 -0.67156994356E+02  0.72172715780E+02  0.00000000000E+00 0.  1.
</event>
<event>
12    1  0.1050869E+000  0.1957171E+03  0.7818608E-02  0.1153466E+00
         21   -1    0    0  501  502  0.00000000000E+00  0.00000000000E+00  0.44040759296E+03  0.44040759296E+03  0.00000000000E+00 0.  1.
         21   -1    0    0  502  503 -0.00000000000E+00 -0.00000000000E+00 -0.13509676827E+03  0.13509676827E+03  0.00000000000E+00 0.  1.
         -6    2    1    2    0  503 -0.67143414989E+02  0.66214537103E+02  0.32468820259E+03  0.37911426359E+03  0.17150099958E+03 0.  0.
        -24    2    3    3    0    0  0.64594732844E+01  0.29449426766E+02  0.26253794372E+03  0.27589700157E+03  0.79271621990E+02 0.  0.
          6    2    1    2  501    0  0.67143414989E+02 -0.66214537103E+02 -0.19377377897E+02  0.19639009764E+03  0.17117530364E+03 0.  0.
         24    2    5    5    0    0  0.10946489098E+03 -0.27106132119E+02 -0.99216160098E+01  0.13780617405E+03  0.78579885391E+02 0.  0.
          5    1    5    5  501    0 -0.42321475987E+02 -0.39108404984E+02 -0.94557618869E+01  0.58583923588E+02  0.47000000000E+01 0. -1.
        -11    1    6    6    0    0  0.13578994643E+02  0.87112089267E+01  0.24915885519E+02  0.29682917776E+02  0.00000000000E+00 0.  1.
         12    1    6    6    0    0  0.95885896332E+02 -0.35817341046E+02 -0.34837501529E+02  0.10812325628E+03  0.00000000000E+00 0. -1.
         -5    1    3    3    0  503 -0.73602888273E+02  0.36765110337E+02  0.62150258865E+02  0.10321726201E+03  0.47000000000E+01 0.  1.
         13    1    4    4    0    0  0.42571550740E+01  0.43296094010E+02  0.25726501869E+03  0.26091754439E+03  0.00000000000E+00 0. -1.
        -14    1    4    4    0    0  0.22023182104E+01 -0.13846667244E+02  0.52729250264E+01  0.14979457186E+02  0.00000000000E+00 0.  1.
</event>
<event>
12    1  0.1050869E+000  0.1823866E+03  0.7818608E-02  0.1165638E+00
         21   -1    0    0  501  502  0.00000000000E+00  0.00000000000E+00  0.35526760285E+03  0.35526760285E+03  0.00000000000E+00 0. -1.
         21   -1    0    0  502  503 -0.00000000000E+00 -0.00000000000E+00 -0.10282525105E+03  0.10282525105E+03  0.00000000000E+00 0. -1.
         -6    2    1    2    0  503 -0.40530637832E+02 -0.45073582225E+02  0.19553174160E+03  0.26703345995E+03  0.17146383392E+03 0.  0.
        -24    2    3    3    0    0  0.16975993971E+02 -0.11534273501E+02  0.18218292887E+03  0.19897334878E+03  0.77321084565E+02 0.  0.
          6    2    1    2  501    0  0.40530637832E+02  0.45073582225E+02  0.56910610202E+02  0.19105939394E+03  0.17201893513E+03 0.  0.
         24    2    5    5    0    0  0.38231390150E+02  0.16307556976E+01  0.97332497701E+02  0.13148939558E+03  0.79696596435E+02 0.  0.
          5    1    5    5  501    0  0.22992476826E+01  0.43442826527E+02 -0.40421887499E+02  0.59569998368E+02  0.47000000000E+01 0. -1.
        -11    1    6    6    0    0  0.98610916239E+01 -0.38190708067E+02  0.46068908337E+02  0.60647470071E+02  0.00000000000E+00 0.  1.
         12    1    6    6    0    0  0.28370298526E+02  0.39821463764E+02  0.51263589364E+02  0.70841925505E+02  0.00000000000E+00 0. -1.
         -5    1    3    3    0  503 -0.57506631803E+02 -0.33539308724E+02  0.13348812734E+02  0.68060111170E+02  0.47000000000E+01 0.  1.
         11    1    4    4    0    0  0.39218246258E+02  0.13045787644E+02  0.13588248320E+03  0.14202926690E+03  0.00000000000E+00 0. -1.
        -12    1    4    4    0    0 -0.22242252287E+02 -0.24580061144E+02  0.46300445666E+02  0.56944081883E+02  0.00000000000E+00 0.  1.
</event>
<event>
12    1  0.1050869E+000  0.2420400E+03  0.7818608E-02  0.1118446E+00
         21   -1    0    0  503  502  0.00000000000E+00  0.00000000000E+00  0.33867168489E+03  0.33867168489E+03  0.00000000000E+00 0. -1.
         21   -1    0    0  501  503 -0.00000000000E+00 -0.00000000000E+00 -0.17566879184E+03  0.17566879184E+03  0.00000000000E+00 0. -1.
          6    2    1    2  501    0 -0.74121459586E+02  0.15345370781E+03  0.49551436303E+02  0.24703057658E+03  0.17183343597E+03 0.  0.
         24    2    3    3    0    0  0.14851499616E+02  0.20441499052E+02  0.18474489620E+02  0.83946850351E+02  0.77893163967E+02 0.  0.
         -6    2    1    2    0  502  0.74121459586E+02 -0.15345370781E+03  0.11345145674E+03  0.26730990015E+03  0.17187588101E+03 0.  0.
        -24    2    5    5    0    0  0.54500606945E+01 -0.14864397404E+03  0.59283252702E+02  0.17958773138E+03  0.81317372264E+02 0.  0.
          5    1    3    3  501    0 -0.88972959201E+02  0.13301220875E+03  0.31076946683E+02  0.16308372623E+03  0.47000000000E+01 0. -1.
        -13    1    4    4    0    0  0.54127989175E+01  0.50218896085E+02  0.13804336019E+02  0.52362158178E+02  0.00000000000E+00 0.  1.
         14    1    4    4    0    0  0.94387006980E+01 -0.29777397034E+02  0.46701536007E+01  0.31584692173E+02  0.00000000000E+00 0. -1.
         -5    1    5    5    0  502  0.68671398891E+02 -0.48097337627E+01  0.54168204041E+02  0.87722168769E+02  0.47000000000E+01 0.  1.
         13    1    6    6    0    0 -0.11412702208E+02 -0.58505703569E+02  0.64387869970E+02  0.87743745766E+02  0.00000000000E+00 0. -1.
        -14    1    6    6    0    0  0.16862762902E+02 -0.90138270474E+02 -0.51046172680E+01  0.91843985618E+02  0.00000000000E+00 0.  1.
</event>
<event>
12    1  0.1050869E+000  0.1834973E+03  0.7818608E-02  0.1164479E+00
         21   -1    0    0  501  502  0.00000000000E+00  0.00000000000E+00  0.15938923497E+03  0.15938923497E+03  0.00000000000E+00 0.  1.
         21   -1    0    0  502  503 -0.00000000000E+00 -0.00000000000E+00 -0.21417379454E+03  0.21417379454E+03  0.00000000000E+00 0.  1.
         -6    2    1    2    0  503 -0.50422530860E+02 -0.41020894002E+02 -0.52463403174E+01  0.18349649191E+03  0.17151761744E+03 0.  0.
        -24    2    3    3    0    0 -0.51414053571E+02 -0.32673876465E+02 -0.55940136603E+02  0.13189603841E+03  0.10274375386E+03 0.  0.
          6    2    1    2  501    0  0.50422530860E+02  0.41020894002E+02 -0.49538219249E+02  0.19006653760E+03  0.17159868353E+03 0.  0.
         24    2    5    5    0    0  0.68681568755E+02 -0.19912630288E+02 -0.63339262840E+02  0.12480670577E+03  0.80319243371E+02 0.  0.
          5    1    5    5  501    0 -0.18259037895E+02  0.60933524290E+02  0.13801043591E+02  0.65259831838E+02  0.47000000000E+01 0. -1.
        -13    1    6    6    0    0 -0.13241759013E+02 -0.20659503453E+02 -0.74970540023E+01  0.25658625907E+02  0.00000000000E+00 0.  1.
         14    1    6    6    0    0  0.81923327768E+02  0.74687316555E+00 -0.55842208838E+02  0.99148079861E+02  0.00000000000E+00 0. -1.
         -5    1    3    3    0  503  0.99152271079E+00 -0.83470175372E+01  0.50693796285E+02  0.51600453495E+02  0.47000000000E+01 0.  1.
         11    1    4    4    0    0 -0.19608887216E+02 -0.43046119932E+02  0.18101761968E+02  0.50647316666E+02  0.00000000000E+00 0. -1.
        -12    1    4    4    0    0 -0.31805166355E+02  0.10372243467E+02 -0.74041898571E+02  0.81248721746E+02  0.00000000000E+00 0.  1.
</event>
<event>
12    1  0.1050869E+000  0.4434689E+03  0.7818608E-02  0.1029740E+00
         21   -1    0    0  503  502  0.00000000000E+00  0.00000000000E+00  0.44319782257E+03  0.44319782257E+03  0.00000000000E+00 0.  1.
         21   -1    0    0  501  503 -0.00000000000E+00 -0.00000000000E+00 -0.57316007845E+03  0.57316007845E+03  0.00000000000E+00 0.  1.
          6    2    1    2  501    0 -0.24396677611E+02 -0.40735950849E+03  0.17718256950E+03  0.47691131452E+03  0.17179572738E+03 0.  0.
         24    2    3    3    0    0 -0.63740964196E+02 -0.37384721219E+03  0.13683014824E+03  0.41117354157E+03  0.80725109126E+02 0.  0.
         -6    2    1    2    0  502  0.24396677611E+02  0.40735950849E+03 -0.30714482537E+03  0.53944658650E+03  0.17357335309E+03 0.  0.
        -24    2    5    5    0    0 -0.43965897075E+02  0.30825307403E+03 -0.20381538366E+03  0.38071854710E+03  0.80330216819E+02 0.  0.
          5    1    3    3  501    0  0.39344286585E+02 -0.33512296295E+02  0.40352421259E+02  0.65737772942E+02  0.47000000000E+01 0. -1.
        -13    1    4    4    0    0 -0.38642806807E+02 -0.57804577499E+02  0.37156574985E+02  0.78836836329E+02  0.00000000000E+00 0.  1.
         14    1    4    4    0    0 -0.25098157389E+02 -0.31604263469E+03  0.99673573253E+02  0.33233670524E+03  0.00000000000E+00 0. -1.
         -5    1    5    5    0  502  0.68362574685E+02  0.99106434454E+02 -0.10332944171E+03  0.15872803940E+03  0.47000000000E+01 0.  1.
         11    1    6    6    0    0 -0.38113585467E+02  0.30101415625E+03 -0.21047571628E+03  0.36927252105E+03  0.00000000000E+00 0. -1.
        -12    1    6    6    0    0 -0.58523116077E+01  0.72389177808E+01  0.66603326161E+01  0.11446026051E+02  0.00000000000E+00 0.  1.
</event>
<event>
12    1  0.1050869E+000  0.1986339E+03  0.7818608E-02  0.1151218E+00
         21   -1    0    0  503  502  0.00000000000E+00  0.00000000000E+00  0.44221496066E+02  0.44221496066E+02  0.00000000000E+00 0.  1.
         21   -1    0    0  501  503 -0.00000000000E+00 -0.00000000000E+00 -0.89118756642E+03  0.89118756642E+03  0.00000000000E+00 0.  1.
          6    2    1    2  501    0  0.66130430339E+02  0.74392973770E+02 -0.46249388889E+03  0.50334482514E+03  0.17189493122E+03 0.  0.
         24    2    3    3    0    0  0.10185276970E+02 -0.25383548036E+02 -0.18914575888E+03  0.20698945626E+03  0.79501273715E+02 0.  0.
         -6    2    1    2    0  502 -0.66130430339E+02 -0.74392973770E+02 -0.38447218146E+03  0.43206423734E+03  0.17015610040E+03 0.  0.
        -24    2    5    5    0    0 -0.75202723376E+02 -0.98820390956E+02 -0.37639417322E+03  0.40438122037E+03  0.80191511279E+02 0.  0.
          5    1    3    3  501    0  0.55945153369E+02  0.99776521807E+02 -0.27334813001E+03  0.29635536889E+03  0.47000000000E+01 0. -1.
        -13    1    4    4    0    0 -0.32568840586E+02  0.26533745862E+01 -0.81979933158E+02  0.88252360957E+02  0.00000000000E+00 0.  1.
         14    1    4    4    0    0  0.42754117556E+02 -0.28036922623E+02 -0.10716582572E+03  0.11873709530E+03  0.00000000000E+00 0. -1.
         -5    1    5    5    0  502  0.90722930375E+01  0.24427417186E+02 -0.80780082440E+01  0.27683016969E+02  0.47000000000E+01 0.  1.
         11    1    6    6    0    0 -0.70930342507E+02 -0.64327470530E+02 -0.34324455568E+03  0.35635089723E+03  0.00000000000E+00 0. -1.
        -12    1    6    6    0    0 -0.42723808691E+01 -0.34492920426E+02 -0.33149617543E+02  0.48030323142E+02  0.00000000000E+00 0.  1.
</event>
<event>
12    1  0.1050869E+000  0.2797557E+03  0.7818608E-02  0.1095855E+00
         21   -1    0    0  501  502  0.00000000000E+00  0.00000000000E+00  0.35468246346E+03  0.35468246346E+03  0.00000000000E+00 0. -1.
         21   -1    0    0  502  503 -0.00000000000E+00 -0.00000000000E+00 -0.33512463811E+03  0.33512463811E+03  0.00000000000E+00 0. -1.
         -6    2    1    2    0  503  0.89140938784E+02  0.20100620575E+03  0.21151668213E+03  0.35052629581E+03  0.17256817644E+03 0.  0.
        -24    2    3    3    0    0 -0.16047946995E+02  0.12837711842E+03  0.11492288743E+03  0.19023862569E+03  0.79026853116E+02 0.  0.
          6    2    1    2  501    0 -0.89140938784E+02 -0.20100620575E+03 -0.19195885678E+03  0.33928080576E+03  0.17295566120E+03 0.  0.
         24    2    5    5    0    0 -0.46309041990E+02 -0.53704201589E+02 -0.13798696552E+03  0.17659243230E+03  0.84355295347E+02 0.  0.
          5    1    5    5  501    0 -0.42831896794E+02 -0.14730200416E+03 -0.53971891255E+02  0.16268837346E+03  0.47000000000E+01 0. -1.
        -11    1    6    6    0    0  0.22444770256E+02 -0.46891136771E+00 -0.20302720097E+02  0.30268598135E+02  0.00000000000E+00 0.  1.
         12    1    6    6    0    0 -0.68753812246E+02 -0.53235290222E+02 -0.11768424543E+03  0.14632383417E+03  0.00000000000E+00 0. -1.
         -5    1    3    3    0  503  0.10518888578E+03  0.72629087325E+02  0.96593794704E+02  0.16028767012E+03  0.47000000000E+01 0.  1.
         11    1    4    4    0    0 -0.11531323662E+02  0.55302798419E+02  0.10098156864E+03  0.11570932608E+03  0.00000000000E+00 0. -1.
        -12    1    4    4    0    0 -0.45166233325E+01  0.73074320004E+02  0.13941318788E+02  0.74529299607E+02  0.00000000000E+00 0.  1.
</event>
<event>
12    1  0.1050869E+000  0.2584534E+03  0.7818608E-02  0.1108385E+00
         21   -1    0    0  501  502  0.00000000000E+00  0.00000000000E+00  0.40559426274E+03  0.40559426274E+03  0.00000000000E+00 0. -1.
         21   -1    0    0  502  503 -0.00000000000E+00 -0.00000000000E+00 -0.36388201172E+03  0.36388201172E+03  0.00000000000E+00 0. -1.
         -6    2    1    2    0  503  0.17007284012E+03 -0.89375757772E+02  0.30646847793E+03  0.40090034719E+03  0.17287383662E+03 0.  0.
        -24    2    3    3    0    0  0.87614183129E+02 -0.10546768881E+03  0.13008883486E+03  0.20547709155E+03  0.80610493892E+02 0.  0.
          6    2    1    2  501    0 -0.17007284012E+03  0.89375757772E+02 -0.26475622691E+03  0.36857592727E+03  0.16982213475E+03 0.  0.
         24    2    5    5    0    0 -0.15127606047E+03  0.19477963245E+02 -0.23216577586E+03  0.28905707350E+03  0.79932513647E+02 0.  0.
          5    1    5    5  501    0 -0.18796779654E+02  0.69897794528E+02 -0.32590451050E+02  0.79518853770E+02  0.47000000000E+01 0. -1.
        -13    1    6    6    0    0 -0.33619293689E+02  0.46913947233E+00 -0.12273180581E+03  0.12725397108E+03  0.00000000000E+00 0.  1.
         14    1    6    6    0    0 -0.11765676678E+03  0.19008823773E+02 -0.10943397005E+03  0.16180310242E+03  0.00000000000E+00 0. -1.
         -5    1    3    3    0  503  0.82458656995E+02  0.16091931038E+02  0.17637964307E+03  0.19542325564E+03  0.47000000000E+01 0.  1.
         11    1    4    4    0    0  0.36280697894E+02 -0.62871170395E+02  0.17590694221E+02  0.74689394359E+02  0.00000000000E+00 0. -1.
        -12    1    4    4    0    0  0.51333485235E+02 -0.42596518416E+02  0.11249814064E+03  0.13078769719E+03  0.00000000000E+00 0.  1.
</event>
<event>
12    1  0.1050869E+000  0.2919420E+03  0.7818608E-02  0.1089351E+00
         21   -1    0    0  503  502  0.00000000000E+00  0.00000000000E+00  0.53056615403E+03  0.53056615403E+03  0.00000000000E+00 0. -1.
         21   -1    0    0  501  503 -0.00000000000E+00 -0.00000000000E+00 -0.16822269422E+03  0.16822269422E+03  0.00000000000E+00 0. -1.
          6    2    1    2  501    0  0.14184549485E+03  0.18788457966E+03  0.10677803669E+03  0.31085638922E+03  0.17265394846E+03 0.  0.
         24    2    3    3    0    0  0.90113536034E+02  0.17748335445E+03  0.13161693048E+03  0.25234620470E+03  0.82065828175E+02 0.  0.
         -6    2    1    2    0  502 -0.14184549485E+03 -0.18788457966E+03  0.25556542312E+03  0.38793245903E+03  0.17250260170E+03 0.  0.
        -24    2    5    5    0    0 -0.15270209441E+03 -0.98365884992E+02  0.20056922472E+03  0.28220576284E+03  0.80114304032E+02 0.  0.
          5    1    3    3  501    0  0.51731958816E+02  0.10401225207E+02 -0.24838893786E+02  0.58510184526E+02  0.47000000000E+01 0. -1.
        -13    1    4    4    0    0  0.58282308714E+01  0.10139476220E+03  0.67464962771E+02  0.12192779535E+03  0.00000000000E+00 0.  1.
         14    1    4    4    0    0  0.84285305163E+02  0.76088592250E+02  0.64151967706E+02  0.13041840935E+03  0.00000000000E+00 0. -1.
         -5    1    5    5    0  502  0.10856599556E+02 -0.89518694663E+02  0.54996198398E+02  0.10572669619E+03  0.47000000000E+01 0.  1.
         13    1    6    6    0    0 -0.15242138481E+01  0.58289289470E+00 -0.68993704974E+01  0.70897323816E+01  0.00000000000E+00 0. -1.
        -14    1    6    6    0    0 -0.15117788056E+03 -0.98948777887E+02  0.20746859521E+03  0.27511603046E+03  0.00000000000E+00 0.  1.
</event>
<event>
12    1  0.1050869E+000  0.1830272E+03  0.7818608E-02  0.1165134E+00
         21   -1    0    0  501  502  0.00000000000E+00  0.00000000000E+00  0.73343056674E+03  0.73343056674E+03  0.00000000000E+00 0. -1.
         21   -1    0    0  502  503 -0.00000000000E+00 -0.00000000000E+00 -0.34349794271E+03  0.34349794271E+03  0.00000000000E+00 0. -1.
         -6    2    1    2    0  503  0.54457781082E+02  0.23503276703E+02 -0.30669224366E+03  0.35666108280E+03  0.17213059497E+03 0.  0.
        -24    2    3    3    0    0  0.49810506011E+02  0.75874112685E+02 -0.25961082486E+03  0.28592882973E+03  0.78227538654E+02 0.  0.
          6    2    1    2  501    0 -0.54457781082E+02 -0.23503276703E+02  0.69662486769E+03  0.72026742666E+03  0.17314995145E+03 0.  0.
         24    2    5    5    0    0 -0.55513720596E+02  0.34610602963E+02  0.59043343100E+03  0.59911855443E+03  0.77792922557E+02 0.  0.
          5    1    5    5  501    0  0.10559395149E+01 -0.58113879666E+02  0.10619143669E+03  0.12114887224E+03  0.47000000000E+01 0. -1.
        -13    1    6    6    0    0 -0.45379565755E+02 -0.14482848326E+02  0.20629420836E+03  0.21172236133E+03  0.00000000000E+00 0.  1.
         14    1    6    6    0    0 -0.10134154842E+02  0.49093451289E+02  0.38413922264E+03  0.38739619310E+03  0.00000000000E+00 0. -1.
         -5    1    3    3    0  503  0.46472750708E+01 -0.52370835982E+02 -0.47081418804E+02  0.70732253065E+02  0.47000000000E+01 0.  1.
         13    1    4    4    0    0  0.95142730025E+01 -0.16486665560E+01 -0.12548532242E+03  0.12585628962E+03  0.00000000000E+00 0. -1.
        -14    1    4    4    0    0  0.40296233008E+02  0.77522779241E+02 -0.13412550243E+03  0.16007254011E+03  0.00000000000E+00 0.  1.
</event>
<event>
12    1  0.1050869E+000  0.1943369E+03  0.7818608E-02  0.1155922E+00
         21   -1    0    0  501  502  0.00000000000E+00  0.00000000000E+00  0.46263422649E+03  0.46263422649E+03  0.00000000000E+00 0. -1.
         21   -1    0    0  502  503 -0.00000000000E+00 -0.00000000000E+00 -0.82568394543E+02  0.82568394543E+02  0.00000000000E+00 0. -1.
         -6    2    1    2    0  503  0.87744153368E+02 -0.27265175381E+02  0.24812763685E+03  0.31517324108E+03  0.17124374875E+03 0.  0.
        -24    2    3    3    0    0 -0.61689490891E+01 -0.72823947370E+01  0.18100720635E+03  0.19792894687E+03  0.79505786276E+02 0.  0.
          6    2    1    2  501    0 -0.87744153368E+02  0.27265175381E+02  0.13193819510E+03  0.23002937995E+03  0.16450958050E+03 0.  0.
         24    2    5    5    0    0 -0.91906583492E+02  0.33070245618E+02  0.32778259285E+02  0.13050145655E+03  0.80098406017E+02 0.  0.
          5    1    5    5  501    0  0.41624301240E+01 -0.58050702367E+01  0.99159935811E+02  0.99527923394E+02  0.47000000000E+01 0. -1.
        -13    1    6    6    0    0 -0.33779959900E+02 -0.67492054812E+01  0.47347927183E+02  0.58553084240E+02  0.00000000000E+00 0.  1.
         14    1    6    6    0    0 -0.58126623592E+02  0.39819451099E+02 -0.14569667897E+02  0.71948372314E+02  0.00000000000E+00 0. -1.
         -5    1    3    3    0  503  0.93913102457E+02 -0.19982780644E+02  0.67120430496E+02  0.11724429421E+03  0.47000000000E+01 0.  1.
         11    1    4    4    0    0  0.34539868025E+01  0.31370331208E+02  0.37584810924E+02  0.49077955510E+02  0.00000000000E+00 0. -1.
        -12    1    4    4    0    0 -0.96229358915E+01 -0.38652725945E+02  0.14342239543E+03  0.14885099136E+03  0.00000000000E+00 0.  1.
</event>
<event>
12    1  0.1050869E+000  0.1765569E+03  0.7818608E-02  0.1171291E+00
         21   -1    0    0  503  502  0.00000000000E+00  0.00000000000E+00  0.93074787306E+03  0.93074787306E+03  0.00000000000E+00 0. -1.
         21   -1    0    0  501  503 -0.00000000000E+00 -0.00000000000E+00 -0.50098513370E+02  0.50098513370E+02  0.00000000000E+00 0. -1.
          6    2    1    2  501    0 -0.28315832733E+02 -0.28533744413E+02  0.72379630845E+03  0.74501908333E+03  0.17191968313E+03 0.  0.
         24    2    3    3    0    0 -0.46566399302E+02  0.41855159221E+02  0.46476733478E+03  0.47593586175E+03  0.81154082613E+02 0.  0.
         -6    2    1    2    0  502  0.28315832733E+02  0.28533744413E+02  0.15685305124E+03  0.23582730310E+03  0.17145167322E+03 0.  0.
        -24    2    5    5    0    0 -0.39235764316E+02  0.56234467984E+02  0.10079306123E+03  0.14365702139E+03  0.76002223733E+02 0.  0.
          5    1    3    3  501    0  0.18250566569E+02 -0.70388903634E+02  0.25902897368E+03  0.26908322159E+03  0.47000000000E+01 0. -1.
        -13    1    4    4    0    0  0.14095201431E+02  0.26746635945E+02  0.70009523425E+02  0.76258708407E+02  0.00000000000E+00 0.  1.
         14    1    4    4    0    0 -0.60661600733E+02  0.15108523275E+02  0.39475781135E+03  0.39967715334E+03  0.00000000000E+00 0. -1.
         -5    1    5    5    0  502  0.67551597049E+02 -0.27700723571E+02  0.56059990012E+02  0.92170281709E+02  0.47000000000E+01 0.  1.
         13    1    6    6    0    0 -0.76032186013E+01  0.54262672092E+02  0.22573896192E+02  0.59260672498E+02  0.00000000000E+00 0. -1.
        -14    1    6    6    0    0 -0.31632545715E+02  0.19717958918E+01  0.78219165036E+02  0.84396348892E+02  0.00000000000E+00 0.  1.
</event>
<event>
12    1  0.1050869E+000  0.1953974E+03  0.7818608E-02  0.1153899E+00
         21   -1    0    0  501  502  0.00000000000E+00  0.00000000000E+00  0.25753770784E+02  0.25753770784E+02  0.00000000000E+00 0. -1.
         21   -1    0    0  502  503 -0.00000000000E+00 -0.00000000000E+00 -0.17253397348E+04  0.17253397348E+04  0.00000000000E+00 0.  1.
         -6    2    1    2    0  503  0.76739146194E+02  0.51143534831E+02 -0.51810373137E+03  0.55372523650E+03  0.17226608305E+03 0.  0.
        -24    2    3    3    0    0  0.15590436875E+02  0.18645237138E+02 -0.99667202146E+02  0.12957134581E+03  0.79148442062E+02 0.  0.
          6    2    1    2  501    0 -0.76739146194E+02 -0.51143534831E+02 -0.11814822327E+04  0.11973682691E+04  0.17113137652E+03 0.  0.
         24    2    5    5    0    0 -0.99891594953E+02 -0.22120658378E+02 -0.11013111046E+04  0.11088930578E+04  0.79309584759E+02 0.  0.
          5    1    5    5  501    0  0.23152448759E+02 -0.29022876454E+02 -0.80171128101E+02  0.88475211343E+02  0.47000000000E+01 0. -1.
        -11    1    6    6    0    0 -0.10474434146E+02 -0.37293645583E+02 -0.33845260720E+03  0.34066214508E+03  0.00000000000E+00 0.  1.
         12    1    6    6    0    0 -0.89417160807E+02  0.15172987205E+02 -0.76285849738E+03  0.76823091269E+03  0.00000000000E+00 0. -1.
         -5    1    3    3    0  503  0.61148709319E+02  0.32498297694E+02 -0.41843652922E+03  0.42415389070E+03  0.47000000000E+01 0.  1.
         13    1    4    4    0    0 -0.82493370846E+01  0.62821132003E+01 -0.10208283177E+03  0.10260809447E+03  0.00000000000E+00 0. -1.
        -14    1    4    4    0    0  0.23839773959E+02  0.12363123937E+02  0.24156296288E+01  0.26963251333E+02  0.00000000000E+00 0.  1.
</event>
<event>
12    1  0.1050869E+000  0.3501866E+03  0.7818608E-02  0.1062584E+00
         21   -1    0    0  501  502  0.00000000000E+00  0.00000000000E+00  0.35490282879E+03  0.35490282879E+03  0.00000000000E+00 0. -1.
         21   -1    0    0  502  503 -0.00000000000E+00 -0.00000000000E+00 -0.35934623129E+03  0.35934623129E+03  0.00000000000E+00 0. -1.
         -6    2    1    2    0  503 -0.16222915214E+01 -0.30462264771E+03  0.68899118611E+02  0.35690019077E+03  0.17272251820E+03 0.  0.
        -24    2    3    3    0    0  0.93706377860E+01 -0.95610744385E+02 -0.29071642735E+02  0.12575698774E+03  0.75765666757E+02 0.  0.
          6    2    1    2  501    0  0.16222915214E+01  0.30462264771E+03 -0.73342521108E+02  0.35734886931E+03  0.17181821692E+03 0.  0.
         24    2    5    5    0    0  0.57624752820E+02  0.25924032798E+03 -0.62313569040E+02  0.28427658729E+03  0.80025229822E+02 0.  0.
          5    1    5    5  501    0 -0.56002461299E+02  0.45382319736E+02 -0.11028952068E+02  0.73072282022E+02  0.47000000000E+01 0. -1.
        -11    1    6    6    0    0  0.52386384771E+02  0.89892721697E+02 -0.46970898878E+02  0.11415471985E+03  0.00000000000E+00 0.  1.
         12    1    6    6    0    0  0.52383680491E+01  0.16934760628E+03 -0.15342670162E+02  0.17012186744E+03  0.00000000000E+00 0. -1.
         -5    1    3    3    0  503 -0.10992929307E+02 -0.20901190333E+03  0.97970761347E+02  0.23114320303E+03  0.47000000000E+01 0.  1.
         11    1    4    4    0    0  0.40471774455E+02 -0.73997005990E+02 -0.17319224995E+02  0.86101550377E+02  0.00000000000E+00 0. -1.
        -12    1    4    4    0    0 -0.31101136669E+02 -0.21613738396E+02 -0.11752417740E+02  0.39655437361E+02  0.00000000000E+00 0.  1.
</event>
<event>
12    1  0.1050869E+000  0.2245187E+03  0.7818608E-02  0.1130595E+00
         21   -1    0    0  503  502  0.00000000000E+00  0.00000000000E+00  0.95006839809E+02  0.95006839809E+02  0.00000000000E+00 0. -1.
         21   -1    0    0  501  503 -0.00000000000E+00 -0.00000000000E+00 -0.56965973054E+03  0.56965973054E+03  0.00000000000E+00 0.  1.
          6    2    1    2  501    0  0.50968663004E+02 -0.13496331709E+03 -0.14965585704E+03  0.26965809217E+03  0.17177226073E+03 0.  0.
         24    2    3    3    0    0  0.55596995973E+02 -0.16598587792E+03 -0.12800141434E+03  0.23125463353E+03  0.80324378778E+02 0.  0.
         -6    2    1    2    0  502 -0.50968663004E+02  0.13496331709E+03 -0.32499703369E+03  0.39500847819E+03  0.17203407906E+03 0.  0.
        -24    2    5    5    0    0 -0.55416143472E+02  0.66991986937E+02 -0.86357254237E+02  0.14679301504E+03  0.80819172438E+02 0.  0.
          5    1    3    3  501    0 -0.46283329681E+01  0.31022560829E+02 -0.21654442702E+02  0.38403458636E+02  0.47000000000E+01 0. -1.
        -13    1    4    4    0    0 -0.16697057915E+02 -0.10608452854E+02 -0.52865797580E+01  0.20476301925E+02  0.00000000000E+00 0.  1.
         14    1    4    4    0    0  0.72294053888E+02 -0.15537742507E+03 -0.12271483458E+03  0.21077833161E+03  0.00000000000E+00 0. -1.
         -5    1    5    5    0  502  0.44474804672E+01  0.67971330158E+02 -0.23863977946E+03  0.24821546315E+03  0.47000000000E+01 0.  1.
         13    1    6    6    0    0 -0.15794541118E+02  0.17173795554E+02 -0.79404119618E+02  0.82761228816E+02  0.00000000000E+00 0. -1.
        -14    1    6    6    0    0 -0.39621602354E+02  0.49818191383E+02 -0.69531346196E+01  0.64031786222E+02  0.00000000000E+00 0.  1.
</event>
<event>
12    1  0.1050869E+000  0.2634866E+03  0.7818608E-02  0.1105080E+00
         21   -1    0    0  503  502  0.00000000000E+00  0.00000000000E+00  0.46916037202E+03  0.46916037202E+03  0.00000000000E+00 0. -1.
         21   -1    0    0  501  503 -0.00000000000E+00 -0.00000000000E+00 -0.20976847219E+03  0.20976847219E+03  0.00000000000E+00 0.  1.
          6    2    1    2  501    0  0.78419525907E+02  0.18401373806E+03  0.31399714462E+03  0.40984346641E+03  0.17136738981E+03 0.  0.
         24    2    3    3    0    0  0.73963872846E+02  0.20915040340E+03  0.29647104258E+03  0.37852320075E+03  0.78550548622E+02 0.  0.
         -6    2    1    2    0  502 -0.78419525907E+02 -0.18401373806E+03 -0.54605244790E+02  0.26908537779E+03  0.17150664694E+03 0.  0.
        -24    2    5    5    0    0 -0.88879961524E+02 -0.57424285925E+02 -0.54038907398E+02  0.14197628747E+03  0.77716578127E+02 0.  0.
          5    1    3    3  501    0  0.44556530615E+01 -0.25136665337E+02  0.17526102043E+02  0.31320265665E+02  0.47000000000E+01 0. -1.
        -13    1    4    4    0    0  0.12356580568E+02  0.13135630492E+02  0.27239842436E+00  0.18036187864E+02  0.00000000000E+00 0.  1.
         14    1    4    4    0    0  0.61607292278E+02  0.19601477291E+03  0.29619864415E+03  0.36048701288E+03  0.00000000000E+00 0. -1.
         -5    1    5    5    0  502  0.10460435617E+02 -0.12658945214E+03 -0.56633739210E+00  0.12710909033E+03  0.47000000000E+01 0.  1.
         13    1    6    6    0    0 -0.14838779185E+01  0.13488712468E+02 -0.20416348456E+02  0.24514782112E+02  0.00000000000E+00 0. -1.
        -14    1    6    6    0    0 -0.87396083606E+02 -0.70912998393E+02 -0.33622558942E+02  0.11746150536E+03  0.00000000000E+00 0.  1.
</event>
<event>
12    1  0.1050869E+000  0.2058423E+03  0.7818608E-02  0.1145328E+00
         21   -1    0    0  501  502  0.00000000000E+00  0.00000000000E+00  0.16394407287E+03  0.16394407287E+03  0.00000000000E+00 0. -1.
         21   -1    0    0  502  503 -0.00000000000E+00 -0.00000000000E+00 -0.27459815168E+03  0.27459815168E+03  0.00000000000E+00 0. -1.
         -6    2    1    2    0  503  0.48000758167E+02  0.98823517724E+02  0.17311341349E+01  0.20584957750E+03  0.17407151201E+03 0.  0.
        -24    2    3    3    0    0  0.35934990166E+02  0.32804361805E+02  0.69399051116E+02  0.11042867469E+03  0.70787104939E+02 0.  0.
          6    2    1    2  501    0 -0.48000758167E+02 -0.98823517724E+02 -0.11238521295E+03  0.23269264704E+03  0.17159624547E+03 0.  0.
         24    2    5    5    0    0 -0.77574394571E+02 -0.79053286147E+02 -0.13341206931E+03  0.19110321671E+03  0.80339594567E+02 0.  0.
          5    1    5    5  501    0  0.29573636404E+02 -0.19770231577E+02  0.21026856365E+02  0.41589430332E+02  0.47000000000E+01 0. -1.
        -13    1    6    6    0    0 -0.36916343897E+02 -0.86808571942E+02 -0.81137827188E+02  0.12442624968E+03  0.00000000000E+00 0.  1.
         14    1    6    6    0    0 -0.40658050674E+02  0.77552857948E+01 -0.52274242124E+02  0.66676967027E+02  0.00000000000E+00 0. -1.
         -5    1    3    3    0  503  0.12065768001E+02  0.66019155918E+02 -0.67667916981E+02  0.95420902816E+02  0.47000000000E+01 0.  1.
         11    1    4    4    0    0  0.39565671318E+02 -0.34487894768E+00  0.77219616202E+01  0.40313645080E+02  0.00000000000E+00 0. -1.
        -12    1    4    4    0    0 -0.36306811526E+01  0.33149240753E+02  0.61677089495E+02  0.70115029607E+02  0.00000000000E+00 0.  1.
</event>
<event>
12    1  0.1050869E+000  0.2570709E+03  0.7818608E-02  0.1109054E+00
         21   -1    0    0  503  502  0.00000000000E+00  0.00000000000E+00  0.42111988847E+02  0.42111988847E+02  0.00000000000E+00 0.  1.
         21   -1    0    0  501  503 -0.00000000000E+00 -0.00000000000E+00 -0.17991076381E+04  0.17991076381E+04  0.00000000000E+00 0.  1.
          6    2    1    2  501    0  0.60904318319E+02 -0.18106436646E+03 -0.54420177722E+03  0.60147997303E+03  0.17067203295E+03 0.  0.
         24    2    3    3    0    0  0.16144674479E+02 -0.11661028371E+03 -0.47780478986E+03  0.49858000009E+03  0.80162276021E+02 0.  0.
         -6    2    1    2    0  502 -0.60904318319E+02  0.18106436646E+03 -0.12127938720E+04  0.12397396539E+04  0.17202265160E+03 0.  0.
        -24    2    5    5    0    0 -0.43567779194E+02  0.12184573054E+03 -0.11049588437E+04  0.11154099078E+04  0.80378372495E+02 0.  0.
          5    1    3    3  501    0  0.44759643840E+02 -0.64454082753E+02 -0.66396987363E+02  0.10289997294E+03  0.47000000000E+01 0. -1.
        -11    1    4    4    0    0 -0.13358010068E+02 -0.31973361668E+02 -0.46113132999E+02  0.57681481642E+02  0.00000000000E+00 0.  1.
         12    1    4    4    0    0  0.29502684547E+02 -0.84636922041E+02 -0.43169165686E+03  0.44089851845E+03  0.00000000000E+00 0. -1.
         -5    1    5    5    0  502 -0.17336539125E+02  0.59218635925E+02 -0.10783502837E+03  0.12432974614E+03  0.47000000000E+01 0.  1.
         13    1    6    6    0    0 -0.16468607557E+02  0.13826243695E+02 -0.47954046626E+02  0.52554454021E+02  0.00000000000E+00 0. -1.
        -14    1    6    6    0    0 -0.27099171637E+02  0.10801948684E+03 -0.10570047970E+04  0.10628554538E+04  0.00000000000E+00 0.  1.
</event>
<event>
12    1  0.1050869E+000  0.2824153E+03  0.7818608E-02  0.1094437E+00
         21   -1    0    0  503  502  0.00000000000E+00  0.00000000000E+00  0.19613788890E+04  0.19613788890E+04  0.00000000000E+00 0.  1.
         21   -1    0    0  501  503 -0.00000000000E+00 -0.00000000000E+00 -0.40753189994E+02  0.40753189994E+02  0.00000000000E+00 0.  1.
          6    2    1    2  501    0  0.18854986925E+03  0.12121899830E+03  0.10208533944E+04  0.10590792612E+04  0.17106177239E+03 0.  0.
         24    2    3    3    0    0  0.95645688312E+02  0.70920468134E+02  0.81559189809E+03  0.82817776526E+03  0.80687397745E+02 0.  0.
         -6    2    1    2    0  502 -0.18854986925E+03 -0.12121899830E+03  0.89977230468E+03  0.94305281783E+03  0.17179440682E+03 0.  0.
        -24    2    5    5    0    0 -0.18852437978E+03 -0.14700667434E+03  0.85360015087E+03  0.88995891355E+03  0.79001557961E+02 0.  0.
          5    1    3    3  501    0  0.92904180933E+02  0.50298530168E+02  0.20526149629E+03  0.23090149595E+03  0.47000000000E+01 0. -1.
        -13    1    4    4    0    0  0.37208050296E+01 -0.16504664379E+02  0.88780685223E+02  0.90378417805E+02  0.00000000000E+00 0.  1.
         14    1    4    4    0    0  0.91924883282E+02  0.87425132513E+02  0.72681121286E+03  0.73779934746E+03  0.00000000000E+00 0. -1.
         -5    1    5    5    0  502 -0.25489464185E-01  0.25787676040E+02  0.46172153803E+02  0.53093904284E+02  0.47000000000E+01 0.  1.
         13    1    6    6    0    0 -0.60155886698E+02 -0.83476239642E+02  0.26736499454E+03  0.28648045936E+03  0.00000000000E+00 0. -1.
        -14    1    6    6    0    0 -0.12836849308E+03 -0.63530434700E+02  0.58623515633E+03  0.60347845419E+03  0.00000000000E+00 0.  1.
</event>
<event>
12    1  0.1050869E+000  0.1946638E+03  0.7818608E-02  0.1154829E+00
         21   -1    0    0  503  502  0.00000000000E+00  0.00000000000E+00  0.33899002583E+03  0.33899002583E+03  0.00000000000E+00 0.  1.
         21   -1    0    0  501  503 -0.00000000000E+00 -0.00000000000E+00 -0.11680338864E+03  0.11680338864E+03  0.00000000000E+00 0.  1.
          6    2    1    2  501    0 -0.77271575859E+02 -0.42184394741E+02  0.57361692311E+02  0.20072230596E+03  0.17102239844E+03 0.  0.
         24    2    3    3    0    0 -0.72069227696E+02 -0.91472143622E+02  0.50667963759E+02  0.15049041750E+03  0.80740303250E+02 0.  0.
         -6    2    1    2    0  502  0.77271575859E+02  0.42184394741E+02  0.16482494488E+03  0.25507110852E+03  0.17361908982E+03 0.  0.
        -24    2    5    5    0    0  0.10563036717E+03  0.68670680112E+02  0.99510213601E+02  0.17895377489E+03  0.79048935221E+02 0.  0.
          5    1    3    3  501    0 -0.52023481627E+01  0.49287748880E+02  0.66937285514E+01  0.50231888457E+02  0.47000000000E+01 0. -1.
        -13    1    4    4    0    0 -0.23349354730E+02 -0.49035771920E+02  0.64598156312E+02  0.84395622476E+02  0.00000000000E+00 0.  1.
         14    1    4    4    0    0 -0.48719872965E+02 -0.42436371702E+02 -0.13930192553E+02  0.66094795026E+02  0.00000000000E+00 0. -1.
         -5    1    5    5    0  502 -0.28358791312E+02 -0.26486285371E+02  0.65314731278E+02  0.76117333633E+02  0.47000000000E+01 0.  1.
         13    1    6    6    0    0  0.80971561815E+02  0.74848097495E+01  0.42440211951E+02  0.91725611420E+02  0.00000000000E+00 0. -1.
        -14    1    6    6    0    0  0.24658805355E+02  0.61185870363E+02  0.57070001650E+02  0.87228163467E+02  0.00000000000E+00 0.  1.
</event>
<event>
12    1  0.1050869E+000  0.3510169E+03  0.7818608E-02  0.1062273E+00
         21   -1    0    0  503  502  0.00000000000E+00  0.00000000000E+00  0.26234433274E+03  0.26234433274E+03  0.00000000000E+00 0. -1.
         21   -1    0    0  501  503 -0.00000000000E+00 -0.00000000000E+00 -0.53398266466E+03  0.53398266466E+03  0.00000000000E+00 0. -1.
          6    2    1    2  501    0 -0.30416528637E+03  0.31677939282E+02  0.35339123588E+01  0.35030831762E+03  0.17083154154E+03 0.  0.
         24    2    3    3    0    0 -0.28225493922E+03  0.34241435925E+02  0.49156133648E+02  0.29941517562E+03  0.79954957741E+02 0.  0.
         -6    2    1    2    0  502  0.30416528637E+03 -0.31677939282E+02 -0.27517224428E+03  0.44601867979E+03  0.17231623670E+03 0.  0.
        -24    2    5    5    0    0  0.25434022258E+03 -0.38314802963E+02 -0.14379634204E+03  0.30527670798E+03  0.79746520292E+02 0.  0.
          5    1    3    3  501    0 -0.21910347155E+02 -0.25634966429E+01 -0.45622221289E+02  0.50893142003E+02  0.47000000000E+01 0. -1.
        -11    1    4    4    0    0 -0.15740726624E+03  0.57481401409E+02  0.17135515651E+02  0.16844816672E+03  0.00000000000E+00 0.  1.
         12    1    4    4    0    0 -0.12484767297E+03 -0.23239965485E+02  0.32020617997E+02  0.13096700890E+03  0.00000000000E+00 0. -1.
         -5    1    5    5    0  502  0.49825063788E+02  0.66368636810E+01 -0.13137590224E+03  0.14074197181E+03  0.47000000000E+01 0.  1.
         13    1    6    6    0    0  0.53549442676E+02  0.23614345855E+02 -0.40208442538E+02  0.71006330650E+02  0.00000000000E+00 0. -1.
        -14    1    6    6    0    0  0.20079077991E+03 -0.61929148818E+02 -0.10358789950E+03  0.23427037733E+03  0.00000000000E+00 0.  1.
</event>
<event>
12    1  0.1050869E+000  0.2050017E+03  0.7818608E-02  0.1145931E+00
         21   -1    0    0  501  502  0.00000000000E+00  0.00000000000E+00  0.15161533256E+04  0.15161533256E+04  0.00000000000E+00 0. -1.
         21   -1    0    0  502  503 -0.00000000000E+00 -0.00000000000E+00 -0.69092693043E+02  0.69092693043E+02  0.00000000000E+00 0. -1.
         -6    2    1    2    0  503 -0.10256516828E+02 -0.11238757046E+03  0.13373800768E+04  0.13527475738E+04  0.16912825455E+03 0.  0.
        -24    2    3    3    0    0  0.59138638405E+02 -0.70421788506E+02  0.74946713580E+03  0.75924902232E+03  0.79381883299E+02 0.  0.
          6    2    1    2  501    0  0.10256516828E+02  0.11238757046E+03  0.10968055579E+03  0.23249844487E+03  0.17114187219E+03 0.  0.
         24    2    5    5    0    0  0.66778155536E+02  0.59484384092E+02  0.30438803131E+02  0.12161657920E+03  0.76592150981E+02 0.  0.
          5    1    5    5  501    0 -0.56521638709E+02  0.52903186369E+02  0.79241752658E+02  0.11088186567E+03  0.47000000000E+01 0. -1.
        -11    1    6    6    0    0  0.37565492076E+02  0.69924581412E+02  0.40358096331E+02  0.89047117977E+02  0.00000000000E+00 0.  1.
         12    1    6    6    0    0  0.29212663461E+02 -0.10440197320E+02 -0.99192932004E+01  0.32569461220E+02  0.00000000000E+00 0. -1.
         -5    1    3    3    0  503 -0.69395155232E+02 -0.41965781955E+02  0.58791294099E+03  0.59349855148E+03  0.47000000000E+01 0.  1.
         11    1    4    4    0    0  0.39700573231E+02 -0.77699987467E+02  0.70252482023E+03  0.70792269818E+03  0.00000000000E+00 0. -1.
        -12    1    4    4    0    0  0.19438065174E+02  0.72781989611E+01  0.46942315579E+02  0.51326324140E+02  0.00000000000E+00 0.  1.
</event>
<event>
12    1  0.1050869E+000  0.2136836E+03  0.7818608E-02  0.1138892E+00
         21   -1    0    0  501  502  0.00000000000E+00  0.00000000000E+00  0.33015251659E+02  0.33015251659E+02  0.00000000000E+00 0. -1.
         21   -1    0    0  502  503 -0.00000000000E+00 -0.00000000000E+00 -0.15344590676E+04  0.15344590676E+04  0.00000000000E+00 0. -1.
         -6    2    1    2    0  503 -0.10174772726E+03 -0.74639158376E+02 -0.10008472954E+04  0.10231788598E+04  0.17110250275E+03 0.  0.
        -24    2    3    3    0    0 -0.12990067946E+03 -0.43237370406E+02 -0.89671612031E+03  0.91073308339E+03  0.81186772506E+02 0.  0.
          6    2    1    2  501    0  0.10174772726E+03  0.74639158376E+02 -0.50059652051E+03  0.54429545944E+03  0.17244438771E+03 0.  0.
         24    2    5    5    0    0  0.50078824057E+02  0.84785689519E+02 -0.46262121021E+03  0.47920443206E+03  0.76954543783E+02 0.  0.
          5    1    5    5  501    0  0.51668903201E+02 -0.10146531143E+02 -0.37975310303E+02  0.65091027376E+02  0.47000000000E+01 0. -1.
        -13    1    6    6    0    0  0.56136419144E+02  0.62469949724E+02 -0.22004036541E+03  0.23552400001E+03  0.00000000000E+00 0.  1.
         14    1    6    6    0    0 -0.60575950873E+01  0.22315739794E+02 -0.24258084480E+03  0.24368043205E+03  0.00000000000E+00 0. -1.
         -5    1    3    3    0  503  0.28152952203E+02 -0.31401787970E+02 -0.10413117512E+03  0.11244577643E+03  0.47000000000E+01 0.  1.
         11    1    4    4    0    0 -0.12429410077E+03 -0.31212086271E+02 -0.59125964540E+03  0.60498858344E+03  0.00000000000E+00 0. -1.
        -12    1    4    4    0    0 -0.56065786890E+01 -0.12025284135E+02 -0.30545647491E+03  0.30574449995E+03  0.00000000000E+00 0.  1.
</event>
<event>
12    1  0.1050869E+000  0.2393264E+03  0.7818608E-02  0.1120272E+00
         21   -1    0    0  501  502  0.00000000000E+00  0.00000000000E+00  0.18051347367E+03  0.18051347367E+03  0.00000000000E+00 0. -1.
         21   -1    0    0  502  503 -0.00000000000E+00 -0.00000000000E+00 -0.33631348314E+03  0.33631348314E+03  0.00000000000E+00 0.  1.
         -6    2    1    2    0  503  0.16432267312E+03 -0.13284469365E+02 -0.13969406488E+03  0.27695923391E+03  0.17324424221E+03 0.  0.
        -24    2    3    3    0    0  0.92083237970E+02 -0.66534418127E+02 -0.44172789890E+02  0.14580856861E+03  0.80017196913E+02 0.  0.
          6    2    1    2  501    0 -0.16432267312E+03  0.13284469365E+02 -0.16105944588E+02  0.23986772290E+03  0.17348978359E+03 0.  0.
         24    2    5    5    0    0 -0.36671659078E+02 -0.40941051012E+02 -0.21295021154E+02  0.10100014223E+03  0.82015672686E+02 0.  0.
          5    1    5    5  501    0 -0.12765101404E+03  0.54225520377E+02  0.51890765662E+01  0.13886758067E+03  0.47000000000E+01 0. -1.
        -11    1    6    6    0    0 -0.46586064249E+02 -0.56100149263E+02  0.16024701953E+00  0.72921285018E+02  0.00000000000E+00 0.  1.
         12    1    6    6    0    0  0.99144051714E+01  0.15159098251E+02 -0.21455268173E+02  0.28078857207E+02  0.00000000000E+00 0. -1.
         -5    1    3    3    0  503  0.72239435149E+02  0.53249948762E+02 -0.95521274994E+02  0.13115066531E+03  0.47000000000E+01 0.  1.
         11    1    4    4    0    0  0.54160537436E+02 -0.88399835688E+01 -0.52893269228E+02  0.76218154363E+02  0.00000000000E+00 0. -1.
        -12    1    4    4    0    0  0.37922700534E+02 -0.57694434558E+02  0.87204793373E+01  0.69590414244E+02  0.00000000000E+00 0.  1.
</event>
<event>
12    1  0.1050869E+000  0.1822078E+03  0.7818608E-02  0.1165746E+00
         21   -1    0    0  503  502  0.00000000000E+00  0.00000000000E+00  0.98111548116E+02  0.98111548116E+02  0.00000000000E+00 0. -1.
         21   -1    0    0  501  503 -0.00000000000E+00 -0.00000000000E+00 -0.34426290700E+03  0.34426290700E+03  0.00000000000E+00 0. -1.
          6    2    1    2  501    0 -0.50428724274E+02  0.31745912036E+02 -0.15324008996E+03  0.23808023720E+03  0.17218831265E+03 0.  0.
         24    2    3    3    0    0 -0.33837797129E+02  0.10405229488E+02 -0.17936864095E+03  0.20019257731E+03  0.81551783176E+02 0.  0.
         -6    2    1    2    0  502  0.50428724274E+02 -0.31745912036E+02 -0.92911268928E+02  0.20429421792E+03  0.17190917491E+03 0.  0.
        -24    2    5    5    0    0  0.33880865520E+02 -0.78657250937E+01  0.19298132674E+02  0.88289326789E+02  0.78821346223E+02 0.  0.
          5    1    3    3  501    0 -0.16590927145E+02  0.21340682548E+02  0.26128550991E+02  0.37887659891E+02  0.47000000000E+01 0. -1.
        -11    1    4    4    0    0 -0.34128322143E+02 -0.22324510979E+02 -0.40337614056E+02  0.57360694473E+02  0.00000000000E+00 0.  1.
         12    1    4    4    0    0  0.29052501392E+00  0.32729740467E+02 -0.13903102689E+03  0.14283188284E+03  0.00000000000E+00 0. -1.
         -5    1    5    5    0  502  0.16547858755E+02 -0.23880186943E+02 -0.11220940160E+03  0.11600489113E+03  0.47000000000E+01 0.  1.
         11    1    6    6    0    0  0.29979336859E+02 -0.34505984710E+02 -0.11746716811E+02  0.47195433838E+02  0.00000000000E+00 0. -1.
        -12    1    6    6    0    0  0.39015286609E+01  0.26640259616E+02  0.31044849485E+02  0.41093892951E+02  0.00000000000E+00 0.  1.
</event>
<event>
12    1  0.1050869E+000  0.2788892E+03  0.7818608E-02  0.1096329E+00
         21   -1    0    0  501  502  0.00000000000E+00  0.00000000000E+00  0.87661599686E+03  0.87661599686E+03  0.00000000000E+00 0.  1.
         21   -1    0    0  502  503 -0.00000000000E+00 -0.00000000000E+00 -0.97634939990E+02  0.97634939990E+02  0.00000000000E+00 0.  1.
         -6    2    1    2    0  503  0.17475161993E+03 -0.13050248232E+03  0.24188390105E+03  0.36917067667E+03  0.17381064514E+03 0.  0.
        -24    2    3    3    0    0  0.16857318753E+03 -0.15640200718E+03  0.23935744475E+03  0.34201498856E+03  0.82484899443E+02 0.  0.
          6    2    1    2  501    0 -0.17475161993E+03  0.13050248232E+03  0.53709715581E+03  0.60508026018E+03  0.17343511732E+03 0.  0.
         24    2    5    5    0    0 -0.84383858966E+02  0.17912938141E+02  0.13764753248E+03  0.18031582045E+03  0.78265208746E+02 0.  0.
          5    1    5    5  501    0 -0.90367760960E+02  0.11258954418E+03  0.39944962333E+03  0.42476443973E+03  0.47000000000E+01 0. -1.
        -11    1    6    6    0    0 -0.69201903305E+02  0.15305916822E+02  0.14636077265E+03  0.16261811179E+03  0.00000000000E+00 0.  1.
         12    1    6    6    0    0 -0.15181955661E+02  0.26070213184E+01 -0.87132401653E+01  0.17697708666E+02  0.00000000000E+00 0. -1.
         -5    1    3    3    0  503  0.61784323913E+01  0.25899524862E+02  0.25264562985E+01  0.27155688103E+02  0.47000000000E+01 0.  1.
         11    1    4    4    0    0  0.56931569452E+02 -0.80450055477E+02  0.15212396731E+03  0.18125980376E+03  0.00000000000E+00 0. -1.
        -12    1    4    4    0    0  0.11164161808E+03 -0.75951951704E+02  0.87233477442E+02  0.16075518481E+03  0.00000000000E+00 0.  1.
</event>
<event>
12    1  0.1050869E+000  0.2300313E+03  0.7818608E-02  0.1127034E+00
         21   -1    0    0  501  502  0.00000000000E+00  0.00000000000E+00  0.14591877167E+04  0.14591877167E+04  0.00000000000E+00 0.  1.
         21   -1    0    0  502  503 -0.00000000000E+00 -0.00000000000E+00 -0.97280511534E+02  0.97280511534E+02  0.00000000000E+00 0.  1.
         -6    2    1    2    0  503 -0.85617883557E+02  0.12362627361E+03  0.61455568021E+02  0.23582865833E+03  0.17095172340E+03 0.  0.
        -24    2    3    3    0    0 -0.50147751780E+01  0.68515729163E+02 -0.20944283640E+02  0.10797773442E+03  0.80628623952E+02 0.  0.
          6    2    1    2  501    0  0.85617883557E+02 -0.12362627361E+03  0.13004516371E+04  0.13206395699E+04  0.17407049014E+03 0.  0.
         24    2    5    5    0    0  0.21053222430E+02 -0.20505983618E+01  0.31466091584E+03  0.32527296584E+03  0.79646514178E+02 0.  0.
          5    1    5    5  501    0  0.64564661127E+02 -0.12157567525E+03  0.98579072131E+03  0.99536660407E+03  0.47000000000E+01 0. -1.
        -11    1    6    6    0    0  0.34898936231E+02  0.20725302867E+02  0.27170114552E+03  0.27471619247E+03  0.00000000000E+00 0.  1.
         12    1    6    6    0    0 -0.13845713801E+02 -0.22775901229E+02  0.42959770315E+02  0.50556773364E+02  0.00000000000E+00 0. -1.
         -5    1    3    3    0  503 -0.80603108379E+02  0.55110544452E+02  0.82399851662E+02  0.12785092391E+03  0.47000000000E+01 0.  1.
         11    1    4    4    0    0  0.26016282440E+02 -0.17899770110E+01  0.56018076944E+01  0.26672668017E+02  0.00000000000E+00 0. -1.
        -12    1    4    4    0    0 -0.31031057618E+02  0.70305706174E+02 -0.26546091335E+02  0.81305066402E+02  0.00000000000E+00 0.  1.
</event>
<event>
12    1  0.1050869E+000  0.1814306E+03  0.7818608E-02  0.1166615E+00
         21   -1    0    0  501  502  0.00000000000E+00  0.00000000000E+00  0.42790751162E+03  0.42790751162E+03  0.00000000000E+00 0.  1.
         21   -1    0    0  502  503 -0.00000000000E+00 -0.00000000000E+00 -0.13038332225E+03  0.13038332225E+03  0.00000000000E+00 0.  1.
         -6    2    1    2    0  503  0.33111563078E+02 -0.46338536842E+02 -0.30727262293E+02  0.18323606445E+03  0.17142827964E+03 0.  0.
        -24    2    3    3    0    0  0.48994158378E+02  0.31756581083E+02 -0.31263163406E+02  0.10340197732E+03  0.79408283765E+02 0.  0.
          6    2    1    2  501    0 -0.33111563078E+02  0.46338536842E+02  0.32825145167E+03  0.37505476942E+03  0.17225977168E+03 0.  0.
         24    2    5    5    0    0 -0.48085362934E+02  0.90534888316E+02  0.27863792828E+03  0.30678234550E+03  0.77249882217E+02 0.  0.
          5    1    5    5  501    0  0.14973799856E+02 -0.44196351475E+02  0.49613523387E+02  0.68272423926E+02  0.47000000000E+01 0. -1.
        -13    1    6    6    0    0 -0.44631164043E+02  0.75768871031E+01  0.93855239530E+02  0.10420247602E+03  0.00000000000E+00 0.  1.
         14    1    6    6    0    0 -0.34541988915E+01  0.82958001213E+02  0.18478268875E+03  0.20257986947E+03  0.00000000000E+00 0. -1.
         -5    1    3    3    0  503 -0.15882595300E+02 -0.78095117925E+02  0.53590111283E+00  0.79834087125E+02  0.47000000000E+01 0.  1.
         13    1    4    4    0    0  0.23859666464E+02 -0.24757926419E+02 -0.65209748568E+00  0.34389879840E+02  0.00000000000E+00 0. -1.
        -14    1    4    4    0    0  0.25134491914E+02  0.56514507501E+02 -0.30611065920E+02  0.69012097481E+02  0.00000000000E+00 0.  1.
</event>
<event>
12    1  0.1050869E+000  0.2031762E+03  0.7818608E-02  0.1147268E+00
         21   -1    0    0  501  502  0.00000000000E+00  0.00000000000E+00  0.11117133696E+04  0.11117133696E+04  0.00000000000E+00 0.  1.
         21   -1    0    0  502  503 -0.00000000000E+00 -0.00000000000E+00 -0.42454686658E+02  0.42454686658E+02  0.00000000000E+00 0.  1.
         -6    2    1    2    0  503 -0.59456636413E+02 -0.89614015444E+02  0.74299767800E+03  0.77027665629E+03  0.17237985480E+03 0.  0.
        -24    2    3    3    0    0 -0.96501095493E+02 -0.49750507243E+02  0.38085139015E+03  0.40403436622E+03  0.80052565888E+02 0.  0.
          6    2    1    2  501    0  0.59456636413E+02  0.89614015444E+02  0.32626100499E+03  0.38389140001E+03  0.17134935147E+03 0.  0.
         24    2    5    5    0    0  0.56846179098E+01  0.13367758366E+02  0.64990873626E+02  0.10642231483E+03  0.83011346173E+02 0.  0.
          5    1    5    5  501    0  0.53772018504E+02  0.76246257078E+02  0.26127013136E+03  0.27746908519E+03  0.47000000000E+01 0. -1.
        -11    1    6    6    0    0 -0.35217408985E+01 -0.53177187118E+01  0.80311592301E+02  0.80564462694E+02  0.00000000000E+00 0.  1.
         12    1    6    6    0    0  0.92063588082E+01  0.18685477078E+02 -0.15320718674E+02  0.25857852131E+02  0.00000000000E+00 0. -1.
         -5    1    3    3    0  503  0.37044459080E+02 -0.39863508201E+02  0.36214628785E+03  0.36624229007E+03  0.47000000000E+01 0.  1.
         13    1    4    4    0    0 -0.30839442254E+02 -0.20098215558E+02  0.26544589580E+03  0.26798606878E+03  0.00000000000E+00 0. -1.
        -14    1    4    4    0    0 -0.65661653239E+02 -0.29652291686E+02  0.11540549435E+03  0.13604829744E+03  0.00000000000E+00 0.  1.
</event>
<event>
12    1  0.1050869E+000  0.1939231E+03  0.7818608E-02  0.1155427E+00
         21   -1    0    0  501  502  0.00000000000E+00  0.00000000000E+00  0.14097436345E+03  0.14097436345E+03  0.00000000000E+00 0.  1.
         21   -1    0    0  502  503 -0.00000000000E+00 -0.00000000000E+00 -0.27022754878E+03  0.27022754878E+03  0.00000000000E+00 0.  1.
         -6    2    1    2    0  503  0.53896416051E+02  0.73840770274E+02 -0.32871672914E+02  0.19464810025E+03  0.16867143514E+03 0.  0.
        -24    2    3    3    0    0  0.77466286885E+02  0.12976911466E+02 -0.65968707946E+02  0.12131698920E+03  0.64780518721E+02 0.  0.
          6    2    1    2  501    0 -0.53896416051E+02 -0.73840770274E+02 -0.96381512411E+02  0.21655381197E+03  0.17102302338E+03 0.  0.
         24    2    5    5    0    0 -0.30484290466E+02 -0.31857256491E+02 -0.12944973886E+03  0.15801885955E+03  0.79174164521E+02 0.  0.
          5    1    5    5  501    0 -0.23412125585E+02 -0.41983513783E+02  0.33068226450E+02  0.58534952417E+02  0.47000000000E+01 0. -1.
        -11    1    6    6    0    0 -0.35572255388E+02 -0.27769172590E+02 -0.21704153906E+02  0.50075768556E+02  0.00000000000E+00 0.  1.
         12    1    6    6    0    0  0.50879649218E+01 -0.40880839005E+01 -0.10774558496E+03  0.10794309100E+03  0.00000000000E+00 0. -1.
         -5    1    3    3    0  503 -0.23569870834E+02  0.60863858807E+02  0.33097035032E+02  0.73331111051E+02  0.47000000000E+01 0.  1.
         11    1    4    4    0    0  0.23655416508E+02  0.35507792038E+02 -0.35492708775E+02  0.55498778381E+02  0.00000000000E+00 0. -1.
        -12    1    4    4    0    0  0.53810870377E+02 -0.22530880572E+02 -0.30475999171E+02  0.65818210820E+02  0.00000000000E+00 0.  1.
</event>
<event>
12    1  0.1050869E+000  0.1883383E+03  0.7818608E-02  0.1160456E+00
         21   -1    0    0  503  502  0.00000000000E+00  0.00000000000E+00  0.13106987979E+04  0.13106987979E+04  0.00000000000E+00 0.  1.
         21   -1    0    0  501  503 -0.00000000000E+00 -0.00000000000E+00 -0.34588198095E+02  0.34588198095E+02  0.00000000000E+00 0.  1.
          6    2    1    2  501    0  0.73809023346E+02  0.19918931773E+01  0.95528594574E+03  0.97326581591E+03  0.17094844466E+03 0.  0.
         24    2    3    3    0    0 -0.84958558177E+01  0.41848814404E+02  0.58113147625E+03  0.58806934092E+03  0.79298513322E+02 0.  0.
         -6    2    1    2    0  502 -0.73809023346E+02 -0.19918931773E+01  0.32082465403E+03  0.37202118005E+03  0.17326153700E+03 0.  0.
        -24    2    5    5    0    0 -0.47217471035E+02  0.31436787941E+01  0.60303499967E+02  0.11005391784E+03  0.78968224220E+02 0.  0.
          5    1    3    3  501    0  0.82304879164E+02 -0.39856921227E+02  0.37415446949E+03  0.38519647499E+03  0.47000000000E+01 0. -1.
        -11    1    4    4    0    0  0.15981051155E+01  0.22076743471E+02  0.54640685412E+03  0.54685499611E+03  0.00000000000E+00 0.  1.
         12    1    4    4    0    0 -0.10093960933E+02  0.19772070934E+02  0.34724622122E+02  0.41214344807E+02  0.00000000000E+00 0. -1.
         -5    1    5    5    0  502 -0.26591552311E+02 -0.51355719714E+01  0.26052115407E+03  0.26196726221E+03  0.47000000000E+01 0.  1.
         13    1    6    6    0    0  0.21738277536E+02  0.14488378586E+01  0.70063608369E+01  0.22885386900E+02  0.00000000000E+00 0. -1.
        -14    1    6    6    0    0 -0.68955748571E+02  0.16948409354E+01  0.53297139130E+02  0.87168530940E+02  0.00000000000E+00 0.  1.
</event>
<event>
12    1  0.1050869E+000  0.1753629E+03  0.7818608E-02  0.1172390E+00
         21   -1    0    0  503  502  0.00000000000E+00  0.00000000000E+00  0.65528851125E+03  0.65528851125E+03  0.00000000000E+00 0.  1.
         21   -1    0    0  501  503 -0.00000000000E+00 -0.00000000000E+00 -0.24448061830E+03  0.24448061830E+03  0.00000000000E+00 0.  1.
          6    2    1    2  501    0 -0.13180192657E+02  0.29267457189E+02 -0.19903821719E+03  0.26521067573E+03  0.17230841270E+03 0.  0.
         24    2    3    3    0    0  0.14229341285E+02  0.82546903436E+02 -0.13668250743E+03  0.17860636588E+03  0.78750623341E+02 0.  0.
         -6    2    1    2    0  502  0.13180192657E+02 -0.29267457189E+02  0.60984611014E+03  0.63455845382E+03  0.17240026603E+03 0.  0.
        -24    2    5    5    0    0  0.75014111247E+02 -0.23097086750E+02  0.41625903631E+03  0.43118797387E+03  0.80566067290E+02 0.  0.
          5    1    3    3  501    0 -0.27409533942E+02 -0.53279446247E+02 -0.62355709765E+02  0.86604309844E+02  0.47000000000E+01 0. -1.
        -11    1    4    4    0    0  0.28150817326E+02  0.70496744894E+02 -0.14059895195E+03  0.15978211679E+03  0.00000000000E+00 0.  1.
         12    1    4    4    0    0 -0.13921476041E+02  0.12050158543E+02  0.39164445244E+01  0.18824249090E+02  0.00000000000E+00 0. -1.
         -5    1    5    5    0  502 -0.61833918590E+02 -0.61703704390E+01  0.19358707384E+03  0.20337047995E+03  0.47000000000E+01 0.  1.
         13    1    6    6    0    0  0.13211153890E+02 -0.44781529619E+02  0.15810080539E+03  0.16485079510E+03  0.00000000000E+00 0. -1.
        -14    1    6    6    0    0  0.61802957357E+02  0.21684442869E+02  0.25815823092E+03  0.26633717877E+03  0.00000000000E+00 0.  1.
</event>
<event>
12    1  0.1050869E+000  0.2607484E+03  0.7818608E-02  0.1106754E+00
         21   -1    0    0  501  502  0.00000000000E+00  0.00000000000E+00  0.34194421796E+03  0.34194421796E+03  0.00000000000E+00 0.  1.
         21   -1    0    0  502  503 -0.00000000000E+00 -0.00000000000E+00 -0.32129842716E+03  0.32129842716E+03  0.00000000000E+00 0.  1.
         -6    2    1    2    0  503 -0.10243324701E+03  0.16489916038E+03 -0.19467359553E+03  0.32508270831E+03  0.17348387608E+03 0.  0.
        -24    2    3    3    0    0  0.44702219838E+01  0.87630917565E+02 -0.44680198085E+02  0.12528570556E+03  0.77466297958E+02 0.  0.
          6    2    1    2  501    0  0.10243324701E+03 -0.16489916038E+03  0.21531938633E+03  0.33815993681E+03  0.17408446670E+03 0.  0.
         24    2    5    5    0    0  0.28652258284E+02 -0.16184865718E+03  0.18309463493E+03  0.25745389942E+03  0.75782090580E+02 0.  0.
          5    1    5    5  501    0  0.73780988727E+02 -0.30505031974E+01  0.32224751403E+02  0.80706037384E+02  0.47000000000E+01 0. -1.
        -11    1    6    6    0    0  0.36109809927E+02 -0.42480044599E+02  0.90091687253E+02  0.10594802818E+03  0.00000000000E+00 0.  1.
         12    1    6    6    0    0 -0.74575516426E+01 -0.11936861258E+03  0.93002947675E+02  0.15150587125E+03  0.00000000000E+00 0. -1.
         -5    1    3    3    0  503 -0.10690346899E+03  0.77268242815E+02 -0.14999339745E+03  0.19979700275E+03  0.47000000000E+01 0.  1.
         13    1    4    4    0    0  0.32446916905E+02  0.74782308286E+02 -0.47539114374E+02  0.94367173555E+02  0.00000000000E+00 0. -1.
        -14    1    4    4    0    0 -0.27976694921E+02  0.12848609279E+02  0.28589162892E+01  0.30918532007E+02  0.00000000000E+00 0.  1.
</event>
<event>
12    1  0.1050869E+000  0.2773471E+03  0.7818608E-02  0.1097460E+00
         21   -1    0    0  503  502  0.00000000000E+00  0.00000000000E+00  0.33524586859E+03  0.33524586859E+03  0.00000000000E+00 0.  1.
         21   -1    0    0  501  503 -0.00000000000E+00 -0.00000000000E+00 -0.22908239801E+03  0.22908239801E+03  0.00000000000E+00 0. -1.
          6    2    1    2  501    0  0.21951836373E+02  0.21356016694E+03  0.30504871895E+02  0.27901963036E+03  0.17558923343E+03 0.  0.
         24    2    3    3    0    0 -0.29748445106E+02  0.45009696851E+02  0.35435960190E+02  0.10258668077E+03  0.79733788319E+02 0.  0.
         -6    2    1    2    0  502 -0.21951836373E+02 -0.21356016694E+03  0.75658598691E+02  0.28530863624E+03  0.17200862284E+03 0.  0.
        -24    2    5    5    0    0 -0.32449210530E+02 -0.21490614744E+03  0.25945655756E+02  0.23426479995E+03  0.83481830188E+02 0.  0.
          5    1    3    3  501    0  0.51700281480E+02  0.16855047009E+03 -0.49310882949E+01  0.17643294960E+03  0.47000000000E+01 0. -1.
        -13    1    4    4    0    0 -0.13029868398E+02  0.67216970059E+02  0.24647091061E+02  0.72769345415E+02  0.00000000000E+00 0.  1.
         14    1    4    4    0    0 -0.16718576709E+02 -0.22207273208E+02  0.10788869129E+02  0.29817335354E+02  0.00000000000E+00 0. -1.
         -5    1    5    5    0  502  0.10497374156E+02  0.13459805018E+01  0.49712942935E+02  0.51043836287E+02  0.47000000000E+01 0.  1.
         13    1    6    6    0    0 -0.83869873509E+00  0.44744136446E+01 -0.88037684136E+01  0.99111115074E+01  0.00000000000E+00 0. -1.
        -14    1    6    6    0    0 -0.31610511795E+02 -0.21938056108E+03  0.34749424169E+02  0.22435368844E+03  0.00000000000E+00 0.  1.
</event>
<event>
12    1  0.1050869E+000  0.2586247E+03  0.7818608E-02  0.1108857E+00
         21   -1    0    0  501  502  0.00000000000E+00  0.00000000000E+00  0.78927173286E+03  0.78927173286E+03  0.00000000000E+00 0. -1.
         21   -1    0    0  502  503 -0.00000000000E+00 -0.00000000000E+00 -0.83123120280E+02  0.83123120280E+02  0.00000000000E+00 0. -1.
         -6    2    1    2    0  503 -0.18075610870E+03  0.42520940402E+02  0.32467395844E+03  0.41151562204E+03  0.17161330568E+03 0.  0.
        -24    2    3    3    0    0 -0.19643917133E+03  0.98601413524E+01  0.24168723274E+03  0.32084273254E+03  0.76431473462E+02 0.  0.
          6    2    1    2  501    0  0.18075610870E+03 -0.42520940402E+02  0.38147465414E+03  0.46087923110E+03  0.18001653452E+03 0.  0.
         24    2    5    5    0    0  0.18253447625E+03  0.15482273202E+02  0.30165095073E+03  0.36207918552E+03  0.80929010314E+02 0.  0.
          5    1    5    5  501    0 -0.17783675457E+01 -0.58003213605E+02  0.79823703411E+02  0.98800045576E+02  0.47000000000E+01 0. -1.
        -11    1    6    6    0    0  0.36719067990E+02 -0.19889326204E+02  0.28911010322E+02  0.50790961487E+02  0.00000000000E+00 0.  1.
         12    1    6    6    0    0  0.14581540826E+03  0.35371599406E+02  0.27273994041E+03  0.31128822404E+03  0.00000000000E+00 0. -1.
         -5    1    3    3    0  503  0.15683062623E+02  0.32660799050E+02  0.82986725698E+02  0.90672889498E+02  0.47000000000E+01 0.  1.
         13    1    4    4    0    0 -0.57123619552E+02  0.18140754198E+01  0.23389988599E+02  0.61753464251E+02  0.00000000000E+00 0. -1.
        -14    1    4    4    0    0 -0.13931555178E+03  0.80460659326E+01  0.21829724414E+03  0.25908926829E+03  0.00000000000E+00 0.  1.
</event>
<event>
12    1  0.1050869E+000  0.2054848E+03  0.7818608E-02  0.1145234E+00
         21   -1    0    0  501  502  0.00000000000E+00  0.00000000000E+00  0.32703705462E+03  0.32703705462E+03  0.00000000000E+00 0.  1.
         21   -1    0    0  502  503 -0.00000000000E+00 -0.00000000000E+00 -0.13477357006E+03  0.13477357006E+03  0.00000000000E+00 0. -1.
         -6    2    1    2    0  503  0.14406813076E+02 -0.10955710661E+03  0.48217998763E+02  0.21086616597E+03  0.17300071871E+03 0.  0.
        -24    2    3    3    0    0  0.50195700252E+01 -0.14685244009E+03  0.37677835676E+02  0.17071336694E+03  0.78310913082E+02 0.  0.
          6    2    1    2  501    0 -0.14406813076E+02  0.10955710661E+03  0.14404548580E+03  0.25094445871E+03  0.17324463486E+03 0.  0.
         24    2    5    5    0    0 -0.16199727613E+02 -0.48153531582E+01  0.99198861049E+02  0.12799087460E+03  0.79092547983E+02 0.  0.
          5    1    5    5  501    0  0.17929145372E+01  0.11437245976E+03  0.44846624747E+02  0.12295358411E+03  0.47000000000E+01 0. -1.
        -13    1    6    6    0    0 -0.69220368555E+01 -0.16174419101E+02  0.10896125534E+03  0.11037246755E+03  0.00000000000E+00 0.  1.
         14    1    6    6    0    0 -0.92776907575E+01  0.11359065943E+02 -0.97623942877E+01  0.17618407054E+02  0.00000000000E+00 0. -1.
         -5    1    3    3    0  503  0.93872430507E+01  0.37295333485E+02  0.10540163087E+02  0.40152799028E+02  0.47000000000E+01 0.  1.
         13    1    4    4    0    0  0.22441046326E+02 -0.20494442237E+02 -0.13527431593E+02  0.33265810201E+02  0.00000000000E+00 0. -1.
        -14    1    4    4    0    0 -0.17421476301E+02 -0.12635799785E+03  0.51205267269E+02  0.13744755674E+03  0.00000000000E+00 0.  1.
</event>
<event>
12    1  0.1050869E+000  0.1907779E+03  0.7818608E-02  0.1158766E+00
         21   -1    0    0  503  502  0.00000000000E+00  0.00000000000E+00  0.42863354096E+03  0.42863354096E+03  0.00000000000E+00 0. -1.
         21   -1    0    0  501  503 -0.00000000000E+00 -0.00000000000E+00 -0.17691624119E+03  0.17691624119E+03  0.00000000000E+00 0.  1.
          6    2    1    2  501    0 -0.21085483013E+02 -0.80128183665E+02  0.34719577471E+03  0.39615795221E+03  0.17184613384E+03 0.  0.
         24    2    3    3    0    0 -0.52847423348E+02 -0.12073419298E+01  0.12222670379E+03  0.15559508521E+03  0.80474564869E+02 0.  0.
         -6    2    1    2    0  502  0.21085483013E+02  0.80128183665E+02 -0.95478474948E+02  0.20939182993E+03  0.16692416198E+03 0.  0.
        -24    2    5    5    0    0 -0.35679143915E+02  0.40064280643E+02 -0.62699544583E+01  0.96221209526E+02  0.79630778847E+02 0.  0.
          5    1    3    3  501    0  0.31761940335E+02 -0.78920841736E+02  0.22496907092E+03  0.24056286701E+03  0.47000000000E+01 0. -1.
        -13    1    4    4    0    0 -0.31506833415E+02 -0.38310419912E+02  0.87059423476E+02  0.10019836347E+03  0.00000000000E+00 0.  1.
         14    1    4    4    0    0 -0.21340589933E+02  0.37103077982E+02  0.35167280319E+02  0.55396721739E+02  0.00000000000E+00 0. -1.
         -5    1    5    5    0  502  0.56764626929E+02  0.40063903023E+02 -0.89208520489E+02  0.11317062041E+03  0.47000000000E+01 0.  1.
         13    1    6    6    0    0 -0.47200434478E+02  0.13050657507E+02 -0.30888933581E+02  0.57899282328E+02  0.00000000000E+00 0. -1.
        -14    1    6    6    0    0  0.11521290562E+02  0.27013623136E+02  0.24618979123E+02  0.38321927199E+02  0.00000000000E+00 0.  1.
</event>
<event>
12    1  0.1050869E+000  0.1766447E+03  0.7818608E-02  0.1171926E+00
         21   -1    0    0  503  502  0.00000000000E+00  0.00000000000E+00  0.19155197895E+04  0.19155197895E+04  0.00000000000E+00 0. -1.
         21   -1    0    0  501  503 -0.00000000000E+00 -0.00000000000E+00 -0.18173316760E+02  0.18173316760E+02  0.00000000000E+00 0. -1.
          6    2    1    2  501    0 -0.86323128719E+01 -0.17789856166E+02  0.12763243895E+04  0.12880370354E+04  0.17217567046E+03 0.  0.
         24    2    3    3    0    0 -0.13410797359E+02  0.13216747441E+02  0.12268026658E+04  0.12292260288E+04  0.74815219519E+02 0.  0.
         -6    2    1    2    0  502  0.86323128719E+01  0.17789856166E+02  0.62102208324E+03  0.64565607087E+03  0.17553443585E+03 0.  0.
        -24    2    5    5    0    0  0.51703077673E+02 -0.11041706765E+02  0.54919257963E+03  0.55695478908E+03  0.76098751851E+02 0.  0.
          5    1    3    3  501    0  0.47784844874E+01 -0.31006603607E+02  0.49521723626E+02  0.58811006556E+02  0.47000000000E+01 0. -1.
        -13    1    4    4    0    0  0.20306505526E+02  0.97275868504E+01  0.13257576335E+03  0.13447420995E+03  0.00000000000E+00 0.  1.
         14    1    4    4    0    0 -0.33717302885E+02  0.34891605909E+01  0.10942269025E+04  0.10947518189E+04  0.00000000000E+00 0. -1.
         -5    1    5    5    0  502 -0.43070764801E+02  0.28831562931E+02  0.71829503612E+02  0.88701281788E+02  0.47000000000E+01 0.  1.
         13    1    6    6    0    0 -0.12926819922E+01 -0.11929400654E+02  0.11382317241E+02  0.16539007603E+02  0.00000000000E+00 0. -1.
        -14    1    6    6    0    0  0.52995759665E+02  0.88769388880E+00  0.53781026239E+03  0.54041578148E+03  0.00000000000E+00 0.  1.
</event>
<event>
12    1  0.1050869E+000  0.2144864E+03  0.7818608E-02  0.1138184E+00
         21   -1    0    0  501  502  0.00000000000E+00  0.00000000000E+00  0.81968223986E+03  0.81968223986E+03  0.00000000000E+00 0. -1.
         21   -1    0    0  502  503 -0.00000000000E+00 -0.00000000000E+00 -0.60968746733E+02  0.60968746733E+02  0.00000000000E+00 0. -1.
         -6    2    1    2    0  503  0.63161340793E+02  0.11152843587E+03  0.50505913783E+03  0.54846889875E+03  0.17118835596E+03 0.  0.
        -24    2    3    3    0    0 -0.18973925299E+02  0.99840797036E+01  0.17429422624E+03  0.19282163679E+03  0.79636766783E+02 0.  0.
          6    2    1    2  501    0 -0.63161340793E+02 -0.11152843587E+03  0.25365435530E+03  0.33218208784E+03  0.17197808157E+03 0.  0.
         24    2    5    5    0    0 -0.78975504154E+02 -0.12565620165E+03  0.12713633102E+03  0.20381315859E+03  0.57875259672E+02 0.  0.
          5    1    5    5  501    0  0.15814163361E+02  0.14127765776E+02  0.12651802428E+03  0.12836892925E+03  0.47000000000E+01 0. -1.
        -13    1    6    6    0    0 -0.25280321139E+02 -0.46554752006E+02  0.12292745893E+02  0.54383372209E+02  0.00000000000E+00 0.  1.
         14    1    6    6    0    0 -0.53695183015E+02 -0.79101449642E+02  0.11484358513E+03  0.14942978639E+03  0.00000000000E+00 0. -1.
         -5    1    3    3    0  503  0.82135266093E+02  0.10154435617E+03  0.33076491158E+03  0.35564726196E+03  0.47000000000E+01 0.  1.
         11    1    4    4    0    0  0.29697998050E+02  0.75682979832E+01  0.94274995736E+02  0.99131352475E+02  0.00000000000E+00 0. -1.
        -12    1    4    4    0    0 -0.48671923350E+02  0.24157817204E+01  0.80019230505E+02  0.93690284312E+02  0.00000000000E+00 0.  1.
</event>
<event>
12    1  0.1050869E+000  0.2351376E+03  0.7818608E-02  0.1124086E+00
         21   -1    0    0  501  502  0.00000000000E+00  0.00000000000E+00  0.42288250098E+03  0.42288250098E+03  0.00000000000E+00 0. -1.
         21   -1    0    0  502  503 -0.00000000000E+00 -0.00000000000E+00 -0.13661622012E+03  0.13661622012E+03  0.00000000000E+00 0. -1.
         -6    2    1    2    0  503 -0.12492309887E+03  0.96193324110E+02  0.21698942167E+03  0.31995951601E+03  0.17444410719E+03 0.  0.
        -24    2    3    3    0    0  0.76835531702E+01  0.28847414566E+02  0.45228758187E+02  0.92706768570E+02  0.75217644574E+02 0.  0.
          6    2    1    2  501    0  0.12492309887E+03 -0.96193324110E+02  0.69276859185E+02  0.23953920509E+03  0.16649567960E+03 0.  0.
         24    2    5    5    0    0  0.69538294289E+02 -0.25967273311E+02 -0.21013797600E+02  0.11236347041E+03  0.81695141457E+02 0.  0.
          5    1    5    5  501    0  0.55384804582E+02 -0.70226050799E+02  0.90290656785E+02  0.12717573468E+03  0.47000000000E+01 0. -1.
        -13    1    6    6    0    0  0.61749794493E+02  0.75521374476E+01  0.13464559186E+02  0.63650343707E+02  0.00000000000E+00 0.  1.
         14    1    6    6    0    0  0.77884997961E+01 -0.33519410758E+02 -0.34478356787E+02  0.48713126705E+02  0.00000000000E+00 0. -1.
         -5    1    3    3    0  503 -0.13260665204E+03  0.67345909544E+02  0.17176066348E+03  0.22725274744E+03  0.47000000000E+01 0.  1.
         13    1    4    4    0    0  0.13499930450E+02 -0.23829286705E+02  0.10430739540E+02  0.29306711763E+02  0.00000000000E+00 0. -1.
        -14    1    4    4    0    0 -0.58163772801E+01  0.52676701270E+02  0.34798018646E+02  0.63400056807E+02  0.00000000000E+00 0.  1.
</event>
<event>
12    1  0.1050869E+000  0.2594992E+03  0.7818608E-02  0.1107455E+00
         21   -1    0    0  503  502  0.00000000000E+00  0.00000000000E+00  0.11057687465E+04  0.11057687465E+04  0.00000000000E+00 0. -1.
         21   -1    0    0  501  503 -0.00000000000E+00 -0.00000000000E+00 -0.61518177003E+02  0.61518177003E+02  0.00000000000E+00 0. -1.
          6    2    1    2  501    0 -0.12396802545E+03  0.14928818212E+03  0.58136544430E+03  0.63662463479E+03  0.17219208211E+03 0.  0.
         24    2    3    3    0    0 -0.12322645633E+03  0.12650629125E+03  0.31647121376E+03  0.37070997207E+03  0.77995211313E+02 0.  0.
         -6    2    1    2    0  502  0.12396802545E+03 -0.14928818212E+03  0.46288512515E+03  0.53066228867E+03  0.17229275338E+03 0.  0.
        -24    2    5    5    0    0  0.28879948145E+02 -0.42276843081E+02  0.81723252032E+02  0.12347727832E+03  0.77113977156E+02 0.  0.
          5    1    3    3  501    0 -0.74156912015E+00  0.22781890871E+02  0.26489423054E+03  0.26591466272E+03  0.47000000000E+01 0. -1.
        -11    1    4    4    0    0 -0.84355018664E+02  0.11567581646E+03  0.18963203619E+03  0.23760676092E+03  0.00000000000E+00 0.  1.
         12    1    4    4    0    0 -0.38871437671E+02  0.10830474789E+02  0.12683917757E+03  0.13310321115E+03  0.00000000000E+00 0. -1.
         -5    1    5    5    0  502  0.95088077310E+02 -0.10701133904E+03  0.38116187312E+03  0.40718501035E+03  0.47000000000E+01 0.  1.
         13    1    6    6    0    0 -0.23401828495E+02  0.67304992272E+00  0.11950872586E+02  0.26285393828E+02  0.00000000000E+00 0. -1.
        -14    1    6    6    0    0  0.52281776640E+02 -0.42949893004E+02  0.69772379446E+02  0.97191884492E+02  0.00000000000E+00 0.  1.
</event>
<event>
12    1  0.1050869E+000  0.1905721E+03  0.7818608E-02  0.1160355E+00
         21   -1    0    0  503  502  0.00000000000E+00  0.00000000000E+00  0.69933915880E+03  0.69933915880E+03  0.00000000000E+00 0. -1.
         21   -1    0    0  501  503 -0.00000000000E+00 -0.00000000000E+00 -0.54865099377E+02  0.54865099377E+02  0.00000000000E+00 0. -1.
          6    2    1    2  501    0 -0.87085476794E+01 -0.79387398146E+02  0.45216799950E+03  0.49068687809E+03  0.17303038683E+03 0.  0.
         24    2    3    3    0    0  0.61596983522E+02 -0.41811855023E+02  0.23839869188E+03  0.26248916548E+03  0.80772557871E+02 0.  0.
         -6    2    1    2    0  502  0.87085476794E+01  0.79387398146E+02  0.19230605992E+03  0.26351738008E+03  0.16149796017E+03 0.  0.
        -24    2    5    5    0    0 -0.74120556998E+01  0.11279142213E+03  0.12122956939E+03  0.18320760373E+03  0.78048536786E+02 0.  0.
          5    1    3    3  501    0 -0.70305531202E+02 -0.37575543123E+02  0.21376930762E+03  0.22819771261E+03  0.47000000000E+01 0. -1.
        -11    1    4    4    0    0 -0.34658673110E+01 -0.60839855335E+01  0.13513284737E+03  0.13531412918E+03  0.00000000000E+00 0.  1.
         12    1    4    4    0    0  0.65062850833E+02 -0.35727869490E+02  0.10326584451E+03  0.12717503631E+03  0.00000000000E+00 0. -1.
         -5    1    5    5    0  502  0.16120603379E+02 -0.33404023988E+02  0.71076490528E+02  0.80309776352E+02  0.47000000000E+01 0.  1.
         13    1    6    6    0    0 -0.37543282256E+02  0.26479466683E+02  0.40721845567E+02  0.61391602885E+02  0.00000000000E+00 0. -1.
        -14    1    6    6    0    0  0.30131226557E+02  0.86311955450E+02  0.80507723822E+02  0.12181600085E+03  0.00000000000E+00 0.  1.
</event>
<event>
12    1  0.1050869E+000  0.4798010E+03  0.7818608E-02  0.1019196E+00
         21   -1    0    0  501  502  0.00000000000E+00  0.00000000000E+00  0.14435071738E+03  0.14435071738E+03  0.00000000000E+00 0.  1.
         21   -1    0    0  502  503 -0.00000000000E+00 -0.00000000000E+00 -0.18507709064E+04  0.18507709064E+04  0.00000000000E+00 0.  1.
         -6    2    1    2    0  503  0.48817075875E+02  0.44536108900E+03 -0.48194432118E+03  0.67999798857E+03  0.17145649373E+03 0.  0.
        -24    2    3    3    0    0  0.25088636100E+02  0.14748349743E+03 -0.10823015087E+03  0.20148104059E+03  0.80622716912E+02 0.  0.
          6    2    1    2  501    0 -0.48817075875E+02 -0.44536108900E+03 -0.12244758679E+04  0.13151236352E+04  0.17169571482E+03 0.  0.
         24    2    5    5    0    0 -0.58967836635E+02 -0.24901525998E+03 -0.86123066148E+03  0.90205718480E+03  0.80641843438E+02 0.  0.
          5    1    5    5  501    0  0.10150760759E+02 -0.19634582902E+03 -0.36324520638E+03  0.41306645044E+03  0.47000000000E+01 0. -1.
        -13    1    6    6    0    0 -0.40187762684E+02 -0.34501645418E+02 -0.16740873253E+03  0.17558787981E+03  0.00000000000E+00 0.  1.
         14    1    6    6    0    0 -0.18780073951E+02 -0.21451361457E+03 -0.69382192895E+03  0.72646930500E+03  0.00000000000E+00 0. -1.
         -5    1    3    3    0  503  0.23728439776E+02  0.29787759157E+03 -0.37371417030E+03  0.47851694798E+03  0.47000000000E+01 0.  1.
         13    1    4    4    0    0  0.26481426087E+02  0.14938493509E+03 -0.76951409617E+02  0.17011362145E+03  0.00000000000E+00 0. -1.
        -14    1    4    4    0    0 -0.13927899868E+01 -0.19014376571E+01 -0.31278741256E+02  0.31367419143E+02  0.00000000000E+00 0.  1.
</event>
<event>
12    1  0.1050869E+000  0.2181815E+03  0.7818608E-02  0.1135729E+00
         21   -1    0    0  501  502  0.00000000000E+00  0.00000000000E+00  0.32480698078E+03  0.32480698078E+03  0.00000000000E+00 0. -1.
         21   -1    0    0  502  503 -0.00000000000E+00 -0.00000000000E+00 -0.14525892351E+03  0.14525892351E+03  0.00000000000E+00 0.  1.
         -6    2    1    2    0  503 -0.12840127890E+03  0.25419556507E+02  0.10273251467E+03  0.24115787906E+03  0.17455689842E+03 0.  0.
        -24    2    3    3    0    0 -0.89039200391E+02  0.55329315338E+01  0.13918141703E+03  0.18375175081E+03  0.80216248616E+02 0.  0.
          6    2    1    2  501    0  0.12840127890E+03 -0.25419556507E+02  0.76815542599E+02  0.22890802522E+03  0.17136281437E+03 0.  0.
         24    2    5    5    0    0  0.40875511494E+02 -0.56211612812E+02 -0.19497135413E+02  0.95090490354E+02  0.61899193950E+02 0.  0.
          5    1    5    5  501    0  0.87525767410E+02  0.30792056306E+02  0.96312678012E+02  0.13381753487E+03  0.47000000000E+01 0. -1.
        -13    1    6    6    0    0 -0.42174467735E+01 -0.67943915776E+01 -0.26637322575E+02  0.27811824251E+02  0.00000000000E+00 0.  1.
         14    1    6    6    0    0  0.45092958267E+02 -0.49417221235E+02  0.71401871625E+01  0.67278666103E+02  0.00000000000E+00 0. -1.
         -5    1    3    3    0  503 -0.39362078513E+02  0.19886624973E+02 -0.36448902362E+02  0.57406128254E+02  0.47000000000E+01 0.  1.
         13    1    4    4    0    0 -0.84543524592E+02 -0.51067967367E+01  0.60155900031E+02  0.10388656906E+03  0.00000000000E+00 0. -1.
        -14    1    4    4    0    0 -0.44956757992E+01  0.10639728271E+02  0.79025516999E+02  0.79865181747E+02  0.00000000000E+00 0.  1.
</event>
<event>
12    1  0.1050869E+000  0.1736687E+03  0.7818608E-02  0.1174332E+00
         21   -1    0    0  501  502  0.00000000000E+00  0.00000000000E+00  0.10536292357E+03  0.10536292357E+03  0.00000000000E+00 0. -1.
         21   -1    0    0  502  503 -0.00000000000E+00 -0.00000000000E+00 -0.48113869254E+03  0.48113869254E+03  0.00000000000E+00 0. -1.
         -6    2    1    2    0  503 -0.86091053612E+01  0.46515300051E+01 -0.13656701940E+00  0.17265911401E+03  0.17238154650E+03 0.  0.
        -24    2    3    3    0    0 -0.45920527465E+02  0.54634290072E+02 -0.10025609293E+02  0.10933217125E+03  0.82215633144E+02 0.  0.
          6    2    1    2  501    0  0.86091053612E+01 -0.46515300051E+01 -0.37563920195E+03  0.41384250209E+03  0.17339277109E+03 0.  0.
         24    2    5    5    0    0 -0.49507790427E+02  0.28665590073E+02 -0.15428711444E+03  0.18252790957E+03  0.78988522726E+02 0.  0.
          5    1    5    5  501    0  0.58116895788E+02 -0.33317120078E+02 -0.22135208751E+03  0.23131459252E+03  0.47000000000E+01 0. -1.
        -13    1    6    6    0    0  0.16357021302E+02  0.17992658671E+02 -0.16355434472E+02  0.29305087420E+02  0.00000000000E+00 0.  1.
         14    1    6    6    0    0 -0.65864811729E+02  0.10672931402E+02 -0.13793167997E+03  0.15322282215E+03  0.00000000000E+00 0. -1.
         -5    1    3    3    0  503  0.37311422104E+02 -0.49982760067E+02  0.98890422733E+01  0.63326942768E+02  0.47000000000E+01 0.  1.
         11    1    4    4    0    0  0.16502770538E+02  0.22375908740E+02  0.18608648536E+02  0.33456008842E+02  0.00000000000E+00 0. -1.
        -12    1    4    4    0    0 -0.62423298002E+02  0.32258381332E+02 -0.28634257828E+02  0.75876162403E+02  0.00000000000E+00 0.  1.
</event>
<event>
12    1  0.1050869E+000  0.3114775E+03  0.7818608E-02  0.1080003E+00
         21   -1    0    0  503  502  0.00000000000E+00  0.00000000000E+00  0.14238873542E+03  0.14238873542E+03  0.00000000000E+00 0. -1.
         21   -1    0    0  501  503 -0.00000000000E+00 -0.00000000000E+00 -0.72078286461E+03  0.72078286461E+03  0.00000000000E+00 0. -1.
          6    2    1    2  501    0 -0.16968682947E+03  0.19201709325E+03 -0.18144944243E+03  0.36047484213E+03  0.17707068492E+03 0.  0.
         24    2    3    3    0    0 -0.15984304963E+03  0.10107145191E+03 -0.71736987423E+02  0.21755205716E+03  0.80109071303E+02 0.  0.
         -6    2    1    2    0  502  0.16968682947E+03 -0.19201709325E+03 -0.39694468676E+03  0.50269675789E+03  0.17168215357E+03 0.  0.
        -24    2    5    5    0    0  0.38198712529E+02 -0.13487691287E+03 -0.24911438945E+03  0.29671129260E+03  0.79553056876E+02 0.  0.
          5    1    3    3  501    0 -0.98437798413E+01  0.90945641334E+02 -0.10971245501E+03  0.14292278497E+03  0.47000000000E+01 0. -1.
        -13    1    4    4    0    0 -0.63728923150E+02  0.48680801149E+02 -0.72463623120E+02  0.10808410023E+03  0.00000000000E+00 0.  1.
         14    1    4    4    0    0 -0.96114126479E+02  0.52390650763E+02  0.72663569680E+00  0.10946795694E+03  0.00000000000E+00 0. -1.
         -5    1    5    5    0  502  0.13148811694E+03 -0.57140180374E+02 -0.14783029731E+03  0.20598546529E+03  0.47000000000E+01 0.  1.
         13    1    6    6    0    0 -0.12734555952E+02 -0.18169658061E+01 -0.44971972120E+01  0.13626997571E+02  0.00000000000E+00 0. -1.
        -14    1    6    6    0    0  0.50933268482E+02 -0.13305994707E+03 -0.24461719224E+03  0.28308429503E+03  0.00000000000E+00 0.  1.
</event>
<event>
12    1  0.1050869E+000  0.1864157E+03  0.7818608E-02  0.1161982E+00
         21   -1    0    0  501  502  0.00000000000E+00  0.00000000000E+00  0.89212055554E+02  0.89212055554E+02  0.00000000000E+00 0. -1.
         21   -1    0    0  502  503 -0.00000000000E+00 -0.00000000000E+00 -0.44898254367E+03  0.44898254367E+03  0.00000000000E+00 0. -1.
         -6    2    1    2    0  503 -0.42896849973E+02  0.55696417043E+02 -0.80591988138E+02  0.20309082770E+03  0.17265162940E+03 0.  0.
        -24    2    3    3    0    0 -0.54919212054E+02 -0.10478547188E+02 -0.91658573027E+00  0.98716871037E+02  0.81352693220E+02 0.  0.
          6    2    1    2  501    0  0.42896849973E+02 -0.55696417043E+02 -0.27917849998E+03  0.33510377152E+03  0.17149831553E+03 0.  0.
         24    2    5    5    0    0  0.26367951126E+02 -0.10325244144E+03 -0.23168586185E+03  0.26573215896E+03  0.74692075965E+02 0.  0.
          5    1    5    5  501    0  0.16528898846E+02  0.47556024399E+02 -0.47492638128E+02  0.69371612566E+02  0.47000000000E+01 0. -1.
        -13    1    6    6    0    0  0.18311680775E+02 -0.20883901085E+02 -0.13782085404E+03  0.14059175931E+03  0.00000000000E+00 0.  1.
         14    1    6    6    0    0  0.80562703513E+01 -0.82368540357E+02 -0.93865007809E+02  0.12514039965E+03  0.00000000000E+00 0. -1.
         -5    1    3    3    0  503  0.12022362081E+02  0.66174964231E+02 -0.79675402408E+02  0.10437395666E+03  0.47000000000E+01 0.  1.
         13    1    4    4    0    0  0.84047796979E+01  0.14115234589E+02 -0.22119440030E+02  0.27552673128E+02  0.00000000000E+00 0. -1.
        -14    1    4    4    0    0 -0.63323991752E+02 -0.24593781777E+02  0.21202854299E+02  0.71164197908E+02  0.00000000000E+00 0.  1.
</event>
<event>
12    1  0.1050869E+000  0.1786503E+03  0.7818608E-02  0.1170417E+00
         21   -1    0    0  503  502  0.00000000000E+00  0.00000000000E+00  0.24607103802E+03  0.24607103802E+03  0.00000000000E+00 0. -1.
         21   -1    0    0  501  503 -0.00000000000E+00 -0.00000000000E+00 -0.15234155221E+04  0.15234155221E+04  0.00000000000E+00 0. -1.
          6    2    1    2  501    0  0.43110671286E+02 -0.18629971712E+02 -0.14868387236E+04  0.14975330795E+04  0.17236684238E+03 0.  0.
         24    2    3    3    0    0  0.86722630203E+02 -0.87139748458E+01 -0.12995843593E+04  0.13049542205E+04  0.79932864969E+02 0.  0.
         -6    2    1    2    0  502 -0.43110671286E+02  0.18629971712E+02  0.20949423955E+03  0.27195348059E+03  0.16692888718E+03 0.  0.
        -24    2    5    5    0    0 -0.16249080841E+02 -0.40226159822E+02  0.53351096400E+02  0.10287255200E+03  0.76513044019E+02 0.  0.
          5    1    3    3  501    0 -0.43611958917E+02 -0.99159968660E+01 -0.18725436436E+03  0.19257885898E+03  0.47000000000E+01 0. -1.
        -11    1    4    4    0    0  0.18532524982E+02  0.18102873502E+02 -0.10589225295E+03  0.10901530968E+03  0.00000000000E+00 0.  1.
         12    1    4    4    0    0  0.68190105221E+02 -0.26816848348E+02 -0.11936921063E+04  0.11959389109E+04  0.00000000000E+00 0. -1.
         -5    1    5    5    0  502 -0.26861590445E+02  0.58856131534E+02  0.15614314315E+03  0.16908092859E+03  0.47000000000E+01 0.  1.
         11    1    6    6    0    0  0.29385553201E+01  0.22306623950E+02  0.15139788360E+02  0.27118882185E+02  0.00000000000E+00 0. -1.
        -12    1    6    6    0    0 -0.19187636161E+02 -0.62532783772E+02  0.38211308040E+02  0.75753669811E+02  0.00000000000E+00 0.  1.
</event>
<event>
12    1  0.1050869E+000  0.2735812E+03  0.7818608E-02  0.1099416E+00
         21   -1    0    0  501  502  0.00000000000E+00  0.00000000000E+00  0.18563190742E+03  0.18563190742E+03  0.00000000000E+00 0.  1.
         21   -1    0    0  502  503 -0.00000000000E+00 -0.00000000000E+00 -0.92637688220E+03  0.92637688220E+03  0.00000000000E+00 0.  1.
         -6    2    1    2    0  503  0.18456223044E+03 -0.10540685163E+03  0.48523166540E+02  0.27667001358E+03  0.17034663909E+03 0.  0.
        -24    2    3    3    0    0  0.17846137927E+03 -0.44488065978E+02  0.31689993734E+01  0.20033254369E+03  0.79343768490E+02 0.  0.
          6    2    1    2  501    0 -0.18456223044E+03  0.10540685163E+03 -0.78926814132E+03  0.83533877604E+03  0.17225809294E+03 0.  0.
         24    2    5    5    0    0 -0.14369642187E+03  0.46713518232E+01 -0.46238609395E+03  0.49082227699E+03  0.80219227861E+02 0.  0.
          5    1    5    5  501    0 -0.40865808569E+02  0.10073549981E+03 -0.32688204736E+03  0.34451649905E+03  0.47000000000E+01 0. -1.
        -11    1    6    6    0    0 -0.12282855996E+03  0.33717652089E+02 -0.33119650119E+03  0.35484483596E+03  0.00000000000E+00 0.  1.
         12    1    6    6    0    0 -0.20867861911E+02 -0.29046300266E+02 -0.13118959276E+03  0.13597744103E+03  0.00000000000E+00 0. -1.
         -5    1    3    3    0  503  0.61008511699E+01 -0.60918785653E+02  0.45354167167E+02  0.76337469894E+02  0.47000000000E+01 0.  1.
         11    1    4    4    0    0  0.47906795676E+02  0.36389722414E+01 -0.30843367351E+02  0.57093051245E+02  0.00000000000E+00 0. -1.
        -12    1    4    4    0    0  0.13055458359E+03 -0.48127038220E+02  0.34012366725E+02  0.14323949244E+03  0.00000000000E+00 0.  1.
</event>
<event>
12    1  0.1050869E+000  0.3214504E+03  0.7818608E-02  0.1074994E+00
         21   -1    0    0  503  502  0.00000000000E+00  0.00000000000E+00  0.15195375513E+03  0.15195375513E+03  0.00000000000E+00 0.  1.
         21   -1    0    0  501  503 -0.00000000000E+00 -0.00000000000E+00 -0.68195349704E+03  0.68195349704E+03  0.00000000000E+00 0.  1.
          6    2    1    2  501    0 -0.24416563277E+03 -0.11938230550E+03 -0.24168057767E+03  0.40209909333E+03  0.17147941025E+03 0.  0.
         24    2    3    3    0    0 -0.11219736882E+03 -0.89468606207E+02 -0.20387019905E+03  0.26152111914E+03  0.78976937324E+02 0.  0.
         -6    2    1    2    0  502  0.24416563277E+03  0.11938230550E+03 -0.28831916423E+03  0.43180815883E+03  0.17164310204E+03 0.  0.
        -24    2    5    5    0    0  0.15382042871E+03  0.13710923413E+01 -0.14455684323E+03  0.22497828364E+03  0.77819939645E+02 0.  0.
          5    1    3    3  501    0 -0.13196826396E+03 -0.29913699296E+02 -0.37810378627E+02  0.14057797420E+03  0.47000000000E+01 0. -1.
        -13    1    4    4    0    0 -0.51178446039E+02  0.53709016185E+00 -0.40481356929E+02  0.65255360421E+02  0.00000000000E+00 0.  1.
         14    1    4    4    0    0 -0.61018922780E+02 -0.90005696369E+02 -0.16338884212E+03  0.19626575872E+03  0.00000000000E+00 0. -1.
         -5    1    5    5    0  502  0.90345204069E+02  0.11801121316E+03 -0.14376232100E+03  0.20682987519E+03  0.47000000000E+01 0.  1.
         13    1    6    6    0    0  0.52894206226E+02  0.37884717281E+02 -0.54839160995E+02  0.85090436797E+02  0.00000000000E+00 0. -1.
        -14    1    6    6    0    0  0.10092622248E+03 -0.36513624940E+02 -0.89717682232E+02  0.13988784685E+03  0.00000000000E+00 0.  1.
</event>
<event>
12    1  0.1050869E+000  0.3735714E+03  0.7818608E-02  0.1053505E+00
         21   -1    0    0  501  502  0.00000000000E+00  0.00000000000E+00  0.19307431780E+03  0.19307431780E+03  0.00000000000E+00 0.  1.
         21   -1    0    0  502  503 -0.00000000000E+00 -0.00000000000E+00 -0.71942179326E+03  0.71942179326E+03  0.00000000000E+00 0.  1.
         -6    2    1    2    0  503  0.16460587367E+03 -0.28574731118E+03 -0.26821418129E+03  0.45988528431E+03  0.17552495031E+03 0.  0.
        -24    2    3    3    0    0  0.18771124994E+03 -0.28133888025E+03 -0.26159856837E+03  0.43500257927E+03  0.80039703261E+02 0.  0.
          6    2    1    2  501    0 -0.16460587367E+03  0.28574731118E+03 -0.25813329416E+03  0.45261082676E+03  0.17168908948E+03 0.  0.
         24    2    5    5    0    0 -0.14103180410E+03  0.27605516477E+03 -0.17427802207E+03  0.36484140659E+03  0.81486190372E+02 0.  0.
          5    1    5    5  501    0 -0.23574069569E+02  0.96921464093E+01 -0.83855272095E+02  0.87769420165E+02  0.47000000000E+01 0. -1.
        -13    1    6    6    0    0 -0.93343706251E+02  0.99339667642E+02 -0.89919555996E+02  0.16330016416E+03  0.00000000000E+00 0.  1.
         14    1    6    6    0    0 -0.47688097849E+02  0.17671549713E+03 -0.84358466073E+02  0.20154124243E+03  0.00000000000E+00 0. -1.
         -5    1    3    3    0  503 -0.23105376270E+02 -0.44084309277E+01 -0.66156129223E+01  0.24882705041E+02  0.47000000000E+01 0.  1.
         11    1    4    4    0    0  0.39929740764E+02 -0.50932793908E+02 -0.14679740659E+02  0.66362854660E+02  0.00000000000E+00 0. -1.
        -12    1    4    4    0    0  0.14778150917E+03 -0.23040608635E+03 -0.24691882771E+03  0.36863972461E+03  0.00000000000E+00 0.  1.
</event>
<event>
12    1  0.1050869E+000  0.3443715E+03  0.7818608E-02  0.1065045E+00
         21   -1    0    0  503  502  0.00000000000E+00  0.00000000000E+00  0.52163762322E+03  0.52163762322E+03  0.00000000000E+00 0. -1.
         21   -1    0    0  501  503 -0.00000000000E+00 -0.00000000000E+00 -0.28964517282E+03  0.28964517282E+03  0.00000000000E+00 0. -1.
          6    2    1    2  501    0  0.29267729015E+03 -0.57853636244E+02 -0.72916814477E+02  0.35200648586E+03  0.17200193271E+03 0.  0.
         24    2    3    3    0    0  0.10479459495E+03  0.31653739569E+01  0.21610564065E+02  0.13296141731E+03  0.78865678789E+02 0.  0.
         -6    2    1    2    0  502 -0.29267729015E+03  0.57853636244E+02  0.30490926488E+03  0.45927631018E+03  0.17017059055E+03 0.  0.
        -24    2    5    5    0    0 -0.67010507982E+02  0.20933407033E+02  0.14792305839E+03  0.18186802096E+03  0.79158891703E+02 0.  0.
          5    1    3    3  501    0  0.18788269520E+03 -0.61019010201E+02 -0.94527378542E+02  0.21904506855E+03  0.47000000000E+01 0. -1.
        -13    1    4    4    0    0  0.46059077344E+01 -0.14700684708E+02  0.26960759952E+02  0.31051684240E+02  0.00000000000E+00 0.  1.
         14    1    4    4    0    0  0.10018868722E+03  0.17866058665E+02 -0.53501958870E+01  0.10190973307E+03  0.00000000000E+00 0. -1.
         -5    1    5    5    0  502 -0.22566678217E+03  0.36920229211E+02  0.15698620649E+03  0.27740828922E+03  0.47000000000E+01 0.  1.
         13    1    6    6    0    0  0.12759753895E+02  0.20879433925E+02  0.49162297864E+02  0.54915331300E+02  0.00000000000E+00 0. -1.
        -14    1    6    6    0    0 -0.79770261878E+02  0.53973108080E-01  0.98760760522E+02  0.12695268966E+03  0.00000000000E+00 0.  1.
</event>
<event>
12    1  0.1050869E+000  0.1762934E+03  0.7818608E-02  0.1171973E+00
         21   -1    0    0  501  502  0.00000000000E+00  0.00000000000E+00  0.31944909906E+03  0.31944909906E+03  0.00000000000E+00 0.  1.
         21   -1    0    0  502  503 -0.00000000000E+00 -0.00000000000E+00 -0.11041258946E+03  0.11041258946E+03  0.00000000000E+00 0.  1.
         -6    2    1    2    0  503 -0.19768443158E+02  0.14507855362E+02  0.27734814451E+02  0.17846171153E+03  0.17457976211E+03 0.  0.
        -24    2    3    3    0    0 -0.45474066209E+02 -0.56484967192E+01  0.76843569637E+02  0.11929400563E+03  0.78907093299E+02 0.  0.
          6    2    1    2  501    0  0.19768443158E+02 -0.14507855362E+02  0.18130169515E+03  0.25139997698E+03  0.17242498238E+03 0.  0.
         24    2    5    5    0    0  0.10130465799E+02  0.17796623308E+02  0.19821576180E+03  0.21339148319E+03  0.76335383256E+02 0.  0.
          5    1    5    5  501    0  0.96379773588E+01 -0.32304478671E+02 -0.16914066644E+02  0.38008493790E+02  0.47000000000E+01 0. -1.
        -13    1    6    6    0    0 -0.40148088807E+01 -0.29422788124E+02  0.78087246168E+02  0.83543025834E+02  0.00000000000E+00 0.  1.
         14    1    6    6    0    0  0.14145274680E+02  0.47219411433E+02  0.12012851563E+03  0.12984845736E+03  0.00000000000E+00 0. -1.
         -5    1    3    3    0  503  0.25705623051E+02  0.20156352082E+02 -0.49108755186E+02  0.59167705901E+02  0.47000000000E+01 0.  1.
         11    1    4    4    0    0 -0.62850563710E+02  0.97787879279E+01  0.71017961864E+02  0.95338182064E+02  0.00000000000E+00 0. -1.
        -12    1    4    4    0    0  0.17376497501E+02 -0.15427284647E+02  0.58256077734E+01  0.23955823570E+02  0.00000000000E+00 0.  1.
</event>
<event>
12    1  0.1050869E+000  0.3596941E+03  0.7818608E-02  0.1058740E+00
         21   -1    0    0  501  502  0.00000000000E+00  0.00000000000E+00  0.64360125411E+02  0.64360125411E+02  0.00000000000E+00 0. -1.
         21   -1    0    0  502  503 -0.00000000000E+00 -0.00000000000E+00 -0.20131829876E+04  0.20131829876E+04  0.00000000000E+00 0. -1.
         -6    2    1    2    0  503  0.10682437029E+02  0.31542088367E+03 -0.10261429222E+04  0.10873587795E+04  0.17255541195E+03 0.  0.
        -24    2    3    3    0    0  0.41832574771E+02  0.21466267545E+03 -0.85597468553E+03  0.88710427546E+03  0.80195415851E+02 0.  0.
          6    2    1    2  501    0 -0.10682437029E+02 -0.31542088367E+03 -0.92267994003E+03  0.99018433358E+03  0.17182052967E+03 0.  0.
         24    2    5    5    0    0  0.77730801471E+01 -0.74629056877E+02 -0.38868812287E+03  0.40410357058E+03  0.81186957010E+02 0.  0.
          5    1    5    5  501    0 -0.18455517176E+02 -0.24079182680E+03 -0.53399181716E+03  0.58608076300E+03  0.47000000000E+01 0. -1.
        -13    1    6    6    0    0  0.32319660434E+02 -0.67677637888E+02 -0.19821034235E+03  0.21192489928E+03  0.00000000000E+00 0.  1.
         14    1    6    6    0    0 -0.24546580287E+02 -0.69514189890E+01 -0.19047778053E+03  0.19217867130E+03  0.00000000000E+00 0. -1.
         -5    1    3    3    0  503 -0.31150137742E+02  0.10075820822E+03 -0.17016823666E+03  0.20025450400E+03  0.47000000000E+01 0.  1.
         11    1    4    4    0    0  0.15165456750E+02  0.27556791356E+01 -0.27320939476E+02  0.31369070432E+02  0.00000000000E+00 0. -1.
        -12    1    4    4    0    0  0.26667118021E+02  0.21190699631E+03 -0.82865374605E+03  0.85573520502E+03  0.00000000000E+00 0.  1.
</event>
<event>
12    1  0.1050869E+000  0.2950172E+03  0.7818608E-02  0.1088314E+00
         21   -1    0    0  503  502  0.00000000000E+00  0.00000000000E+00  0.22974534590E+03  0.22974534590E+03  0.00000000000E+00 0. -1.
         21   -1    0    0  501  503 -0.00000000000E+00 -0.00000000000E+00 -0.83339045888E+03  0.83339045888E+03  0.00000000000E+00 0. -1.
          6    2    1    2  501    0 -0.28358439192E+02 -0.23775102751E+03  0.92134563179E+02  0.30906944157E+03  0.17235251617E+03 0.  0.
         24    2    3    3    0    0 -0.49645168038E+02 -0.16747541887E+03  0.61967280303E+00  0.19164350255E+03  0.78830130292E+02 0.  0.
         -6    2    1    2    0  502  0.28358439192E+02  0.23775102751E+03 -0.69577967616E+03  0.75406636321E+03  0.16485439094E+03 0.  0.
        -24    2    5    5    0    0  0.33020874030E+02  0.15673878537E+03 -0.30168718781E+03  0.35167886210E+03  0.83698493408E+02 0.  0.
          5    1    3    3  501    0  0.21286728846E+02 -0.70275608637E+02  0.91514890376E+02  0.11742593902E+03  0.47000000000E+01 0. -1.
        -11    1    4    4    0    0 -0.56493428818E+02 -0.15949320146E+03  0.19204433781E+02  0.17028916316E+03  0.00000000000E+00 0.  1.
         12    1    4    4    0    0  0.68482607806E+01 -0.79822174093E+01 -0.18584760978E+02  0.21354339398E+02  0.00000000000E+00 0. -1.
         -5    1    5    5    0  502 -0.46624348378E+01  0.81012242135E+02 -0.39409248834E+03  0.40238750110E+03  0.47000000000E+01 0.  1.
         11    1    6    6    0    0 -0.44884946559E+01  0.37115780408E+02 -0.15149850509E+03  0.15604334264E+03  0.00000000000E+00 0. -1.
        -12    1    6    6    0    0  0.37509368686E+02  0.11962300496E+03 -0.15018868273E+03  0.19563551946E+03  0.00000000000E+00 0.  1.
</event>
<event>
12    1  0.1050869E+000  0.4100059E+03  0.7818608E-02  0.1040688E+00
         21   -1    0    0  503  502  0.00000000000E+00  0.00000000000E+00  0.54978704232E+03  0.54978704232E+03  0.00000000000E+00 0.  1.
         21   -1    0    0  501  503 -0.00000000000E+00 -0.00000000000E+00 -0.30300009116E+03  0.30300009116E+03  0.00000000000E+00 0.  1.
          6    2    1    2  501    0  0.37232029986E+03 -0.84796569108E+01  0.12820611839E+03  0.42597771030E+03  0.16225255194E+03 0.  0.
         24    2    3    3    0    0  0.11679142852E+03 -0.33826122970E+02  0.17922665380E+02  0.14647462009E+03  0.79681541305E+02 0.  0.
         -6    2    1    2    0  502 -0.37232029986E+03  0.84796569108E+01  0.11858083277E+03  0.42680942319E+03  0.17149507152E+03 0.  0.
        -24    2    5    5    0    0 -0.28081060685E+03  0.51345627014E+02  0.13309615338E+03  0.32461206588E+03  0.78533030893E+02 0.  0.
          5    1    3    3  501    0  0.25552887133E+03  0.25346466059E+02  0.11028345301E+03  0.27950309021E+03  0.47000000000E+01 0. -1.
        -13    1    4    4    0    0  0.37899465971E+02  0.24703765031E+02 -0.52562365148E+01  0.45544193371E+02  0.00000000000E+00 0.  1.
         14    1    4    4    0    0  0.78891962553E+02 -0.58529888000E+02  0.23178901894E+02  0.10093042672E+03  0.00000000000E+00 0. -1.
         -5    1    5    5    0  502 -0.91509693012E+02 -0.42865970104E+02 -0.14515320613E+02  0.10219735731E+03  0.47000000000E+01 0.  1.
         13    1    6    6    0    0 -0.25232236414E+03  0.19174244512E+02  0.11165866512E+03  0.27658974058E+03  0.00000000000E+00 0. -1.
        -14    1    6    6    0    0 -0.28488242708E+02  0.32171382502E+02  0.21437488266E+02  0.48022325307E+02  0.00000000000E+00 0.  1.
</event>
<event>
12    1  0.1050869E+000  0.2360521E+03  0.7818608E-02  0.1123030E+00
         21   -1    0    0  503  502  0.00000000000E+00  0.00000000000E+00  0.36445601290E+03  0.36445601290E+03  0.00000000000E+00 0. -1.
         21   -1    0    0  501  503 -0.00000000000E+00 -0.00000000000E+00 -0.25125152010E+03  0.25125152010E+03  0.00000000000E+00 0. -1.
          6    2    1    2  501    0 -0.15421875771E+03 -0.43756910797E+02  0.25158933555E+03  0.34498953397E+03  0.17326999832E+03 0.  0.
         24    2    3    3    0    0 -0.57943795001E+02 -0.75293076921E+02  0.84594078016E+02  0.14961066035E+03  0.78744274998E+02 0.  0.
         -6    2    1    2    0  502  0.15421875771E+03  0.43756910797E+02 -0.13838484275E+03  0.27071799903E+03  0.16864097315E+03 0.  0.
        -24    2    5    5    0    0  0.12616625503E+03 -0.31707299157E+02 -0.91193884634E+02  0.17727889363E+03  0.78665143513E+02 0.  0.
          5    1    3    3  501    0 -0.96274962705E+02  0.31536166123E+02  0.16699525753E+03  0.19537887362E+03  0.47000000000E+01 0. -1.
        -11    1    4    4    0    0 -0.47945981123E+02 -0.68673777295E+02  0.22993454521E+02  0.86853921873E+02  0.00000000000E+00 0.  1.
         12    1    4    4    0    0 -0.99978138778E+01 -0.66192996255E+01  0.61600623495E+02  0.62756738481E+02  0.00000000000E+00 0. -1.
         -5    1    5    5    0  502  0.28052502676E+02  0.75464209954E+02 -0.47190958116E+02  0.93439105402E+02  0.47000000000E+01 0.  1.
         11    1    6    6    0    0  0.27110890577E+02 -0.41945376199E+02 -0.46077064033E+02  0.67952268559E+02  0.00000000000E+00 0. -1.
        -12    1    6    6    0    0  0.99055364453E+02  0.10238077042E+02 -0.45116820601E+02  0.10932662507E+03  0.00000000000E+00 0.  1.
</event>
<event>
12    1  0.1050869E+000  0.1988317E+03  0.7818608E-02  0.1151297E+00
         21   -1    0    0  501  502  0.00000000000E+00  0.00000000000E+00  0.56692134328E+02  0.56692134328E+02  0.00000000000E+00 0.  1.
         21   -1    0    0  502  503 -0.00000000000E+00 -0.00000000000E+00 -0.70522951662E+03  0.70522951662E+03  0.00000000000E+00 0.  1.
         -6    2    1    2    0  503  0.78961816725E+02 -0.59854583681E+02 -0.26695532929E+03  0.33286515466E+03  0.17238481273E+03 0.  0.
        -24    2    3    3    0    0  0.10315235334E+03 -0.79175761051E+02 -0.25818944143E+03  0.30034714816E+03  0.81470317310E+02 0.  0.
          6    2    1    2  501    0 -0.78961816725E+02  0.59854583681E+02 -0.38158205300E+03  0.42905649629E+03  0.16931353800E+03 0.  0.
         24    2    5    5    0    0 -0.18479525758E+02  0.93808928274E+02 -0.22142217773E+03  0.25445901440E+03  0.81117207309E+02 0.  0.
          5    1    5    5  501    0 -0.60482290967E+02 -0.33954344593E+02 -0.16015987527E+03  0.17459748189E+03  0.47000000000E+01 0. -1.
        -11    1    6    6    0    0  0.16987849809E+02 -0.11509499525E+01 -0.71392924970E+02  0.73395241417E+02  0.00000000000E+00 0.  1.
         12    1    6    6    0    0 -0.35467375567E+02  0.94959878226E+02 -0.15002925276E+03  0.18106377298E+03  0.00000000000E+00 0. -1.
         -5    1    3    3    0  503 -0.24190536612E+02  0.19321177371E+02 -0.87658878586E+01  0.32518006496E+02  0.47000000000E+01 0.  1.
         13    1    4    4    0    0  0.80609012446E+02 -0.65764692220E+02 -0.11624374569E+03  0.15599812833E+03  0.00000000000E+00 0. -1.
        -14    1    4    4    0    0  0.22543340891E+02 -0.13411068831E+02 -0.14194569574E+03  0.14434901983E+03  0.00000000000E+00 0.  1.
</event>
<event>
12    1  0.1050869E+000  0.2067062E+03  0.7818608E-02  0.1144209E+00
         21   -1    0    0  503  502  0.00000000000E+00  0.00000000000E+00  0.43405092793E+03  0.43405092793E+03  0.00000000000E+00 0. -1.
         21   -1    0    0  501  503 -0.00000000000E+00 -0.00000000000E+00 -0.12182670096E+03  0.12182670096E+03  0.00000000000E+00 0. -1.
          6    2    1    2  501    0 -0.11404964178E+03 -0.15970776523E+02  0.27792802298E+03  0.34634557431E+03  0.17160677257E+03 0.  0.
         24    2    3    3    0    0 -0.11440715507E+03 -0.50595812894E+02  0.13250398982E+03  0.19678200795E+03  0.74275957903E+02 0.  0.
         -6    2    1    2    0  502  0.11404964178E+03  0.15970776523E+02  0.34296203983E+02  0.20953205458E+03  0.17165391285E+03 0.  0.
        -24    2    5    5    0    0 -0.47880256729E+01  0.41271176047E+02  0.41660915258E+02  0.87717316586E+02  0.65057363971E+02 0.  0.
          5    1    3    3  501    0  0.35751329477E+00  0.34625036371E+02  0.14542403317E+03  0.14956356636E+03  0.47000000000E+01 0. -1.
        -13    1    4    4    0    0 -0.13474412416E+02 -0.19028554287E+02  0.70355569814E+02  0.74118498852E+02  0.00000000000E+00 0.  1.
         14    1    4    4    0    0 -0.10093274265E+03 -0.31567258607E+02  0.62148420002E+02  0.12266350910E+03  0.00000000000E+00 0. -1.
         -5    1    5    5    0  502  0.11883766745E+03 -0.25300399525E+02 -0.73647112744E+01  0.12181473800E+03  0.47000000000E+01 0.  1.
         13    1    6    6    0    0 -0.96120611037E+01 -0.15783666109E+02  0.17889098732E+02  0.25720336078E+02  0.00000000000E+00 0. -1.
        -14    1    6    6    0    0  0.48240354308E+01  0.57054842156E+02  0.23771816526E+02  0.61996980509E+02  0.00000000000E+00 0.  1.
</event>
<event>
12    1  0.1050869E+000  0.1940629E+03  0.7818608E-02  0.1155174E+00
         21   -1    0    0  503  502  0.00000000000E+00  0.00000000000E+00  0.12760732147E+03  0.12760732147E+03  0.00000000000E+00 0. -1.
         21   -1    0    0  501  503 -0.00000000000E+00 -0.00000000000E+00 -0.35699928350E+03  0.35699928350E+03  0.00000000000E+00 0. -1.
          6    2    1    2  501    0 -0.55803858858E+02 -0.68224149266E+02 -0.11640673593E+02  0.19292863864E+03  0.17122309751E+03 0.  0.
         24    2    3    3    0    0  0.33860649537E+02 -0.13132642331E+02  0.57323143993E+01  0.86163902356E+02  0.77925276766E+02 0.  0.
         -6    2    1    2    0  502  0.55803858858E+02  0.68224149266E+02 -0.21775128843E+03  0.29167796633E+03  0.17289247301E+03 0.  0.
        -24    2    5    5    0    0  0.97456396391E+02  0.27571544713E+02 -0.18204053394E+03  0.22323151919E+03  0.80222290472E+02 0.  0.
          5    1    3    3  501    0 -0.89664508395E+02 -0.55091506935E+02 -0.17372987992E+02  0.10676473628E+03  0.47000000000E+01 0. -1.
        -11    1    4    4    0    0  0.16995948755E+02 -0.45786602051E+02 -0.74844387298E+00  0.48845013765E+02  0.00000000000E+00 0.  1.
         12    1    4    4    0    0  0.16864700782E+02  0.32653959720E+02  0.64807582723E+01  0.37318888591E+02  0.00000000000E+00 0. -1.
         -5    1    5    5    0  502 -0.41652537532E+02  0.40652604553E+02 -0.35710754492E+02  0.68446447141E+02  0.47000000000E+01 0.  1.
         11    1    6    6    0    0  0.64375356432E+02 -0.10851024815E+02 -0.51375628550E+02  0.83074583744E+02  0.00000000000E+00 0. -1.
        -12    1    6    6    0    0  0.33081039959E+02  0.38422569528E+02 -0.13066490539E+03  0.14015693545E+03  0.00000000000E+00 0.  1.
</event>
<event>
12    1  0.1050869E+000  0.2071921E+03  0.7818608E-02  0.1143892E+00
         21   -1    0    0  503  502  0.00000000000E+00  0.00000000000E+00  0.13001379205E+02  0.13001379205E+02  0.00000000000E+00 0. -1.
         21   -1    0    0  501  503 -0.00000000000E+00 -0.00000000000E+00 -0.33917833321E+04  0.33917833321E+04  0.00000000000E+00 0. -1.
          6    2    1    2  501    0 -0.39701662917E+02  0.10812799421E+03 -0.14005891060E+04  0.14157710078E+04  0.17172599559E+03 0.  0.
         24    2    3    3    0    0  0.24623050242E+02  0.44213595051E+01 -0.66177604246E+03  0.66693219495E+03  0.78899805193E+02 0.  0.
         -6    2    1    2    0  502  0.39701662917E+02 -0.10812799421E+03 -0.19781928469E+04  0.19890137035E+04  0.17222278590E+03 0.  0.
        -24    2    5    5    0    0 -0.43463346647E+01 -0.52741486562E+02 -0.49632004289E+03  0.50544469984E+03  0.79625401704E+02 0.  0.
          5    1    3    3  501    0 -0.64324713159E+02  0.10370663471E+03 -0.73881306356E+03  0.74883881289E+03  0.47000000000E+01 0. -1.
        -11    1    4    4    0    0 -0.27637857039E+02 -0.10330923565E+01 -0.31310447522E+03  0.31432360844E+03  0.00000000000E+00 0.  1.
         12    1    4    4    0    0  0.52260907281E+02  0.54544518615E+01 -0.34867156725E+03  0.35260858651E+03  0.00000000000E+00 0. -1.
         -5    1    5    5    0  502  0.44047997581E+02 -0.55386507649E+02 -0.14818728040E+04  0.14835690037E+04  0.47000000000E+01 0.  1.
         11    1    6    6    0    0 -0.26360268767E+01 -0.71179953315E+02 -0.30390429185E+03  0.31213995739E+03  0.00000000000E+00 0. -1.
        -12    1    6    6    0    0 -0.17103077880E+01  0.18438466753E+02 -0.19241575103E+03  0.19330474245E+03  0.00000000000E+00 0.  1.
</event>
<event>
12    1  0.1050869E+000  0.2337795E+03  0.7818608E-02  0.1124437E+00
         21   -1    0    0  501  502  0.00000000000E+00  0.00000000000E+00  0.43171685985E+03  0.43171685985E+03  0.00000000000E+00 0. -1.
         21   -1    0    0  502  503 -0.00000000000E+00 -0.00000000000E+00 -0.12941655626E+03  0.12941655626E+03  0.00000000000E+00 0. -1.
         -6    2    1    2    0  503  0.10657726670E+03  0.11261993868E+03  0.20067713878E+03  0.30622139109E+03  0.17163409326E+03 0.  0.
        -24    2    3    3    0    0  0.52485690964E+02  0.53548825875E+02  0.19821459989E+02  0.10836750186E+03  0.75686198713E+02 0.  0.
          6    2    1    2  501    0 -0.10657726670E+03 -0.11261993868E+03  0.10162316481E+03  0.25491202502E+03  0.17495973396E+03 0.  0.
         24    2    5    5    0    0 -0.88263008160E+02 -0.14998066137E+03  0.79851632766E+02  0.20771747795E+03  0.80533905887E+02 0.  0.
          5    1    5    5  501    0 -0.18314258537E+02  0.37360722683E+02  0.21771532046E+02  0.47194547066E+02  0.47000000000E+01 0. -1.
        -13    1    6    6    0    0 -0.28940873519E+02 -0.10153074706E+03  0.77715605530E+02  0.13109455405E+03  0.00000000000E+00 0.  1.
         14    1    6    6    0    0 -0.59322134641E+02 -0.48449914303E+02  0.21360272359E+01  0.76622923898E+02  0.00000000000E+00 0. -1.
         -5    1    3    3    0  503  0.54091575733E+02  0.59071112808E+02  0.18085567879E+03  0.19785388923E+03  0.47000000000E+01 0.  1.
         11    1    4    4    0    0  0.19393083965E+02  0.48470195832E+02 -0.20386781440E+02  0.56045271408E+02  0.00000000000E+00 0. -1.
        -12    1    4    4    0    0  0.33092606999E+02  0.50786300431E+01  0.40208241429E+02  0.52322230456E+02  0.00000000000E+00 0.  1.
</event>
<event>
12    1  0.1050869E+000  0.2568533E+03  0.7818608E-02  0.1109136E+00
         21   -1    0    0  501  502  0.00000000000E+00  0.00000000000E+00  0.10581616085E+03  0.10581616085E+03  0.00000000000E+00 0.  1.
         21   -1    0    0  502  503 -0.00000000000E+00 -0.00000000000E+00 -0.64213059418E+03  0.64213059418E+03  0.00000000000E+00 0.  1.
         -6    2    1    2    0  503  0.76579221693E+02  0.17397459469E+03 -0.20178867060E+03  0.32618719465E+03  0.17189497253E+03 0.  0.
        -24    2    3    3    0    0  0.67954041802E+01  0.16662123298E+02 -0.62448363188E+02  0.10470399865E+03  0.82093394361E+02 0.  0.
          6    2    1    2  501    0 -0.76579221693E+02 -0.17397459469E+03 -0.33452576273E+03  0.42175956038E+03  0.17274867305E+03 0.  0.
         24    2    5    5    0    0 -0.57546479488E+01 -0.31036268713E+02 -0.17973073637E+03  0.19942855609E+03  0.80450266871E+02 0.  0.
          5    1    5    5  501    0 -0.70824573744E+02 -0.14293832598E+03 -0.15479502637E+03  0.22233100429E+03  0.47000000000E+01 0. -1.
        -11    1    6    6    0    0 -0.37136129881E+02  0.36569256316E+01 -0.10312320192E+03  0.10966704164E+03  0.00000000000E+00 0.  1.
         12    1    6    6    0    0  0.31381481932E+02 -0.34693194344E+02 -0.76607534441E+02  0.89761514444E+02  0.00000000000E+00 0. -1.
         -5    1    3    3    0  503  0.69783817513E+02  0.15731247140E+03 -0.13934030741E+03  0.22148319600E+03  0.47000000000E+01 0.  1.
         13    1    4    4    0    0  0.27576318424E+02 -0.95633351515E+01  0.48108043697E+01  0.29581321061E+02  0.00000000000E+00 0. -1.
        -14    1    4    4    0    0 -0.20780914244E+02  0.26225458449E+02 -0.67259167557E+02  0.75122677589E+02  0.00000000000E+00 0.  1.
</event>
<event>
12    1  0.1050869E+000  0.3882329E+03  0.7818608E-02  0.1048161E+00
         21   -1    0    0  503  502  0.00000000000E+00  0.00000000000E+00  0.28920707704E+03  0.28920707704E+03  0.00000000000E+00 0.  1.
         21   -1    0    0  501  503 -0.00000000000E+00 -0.00000000000E+00 -0.52322690679E+03  0.52322690679E+03  0.00000000000E+00 0.  1.
          6    2    1    2  501    0  0.33237168820E+03  0.96058389813E+02 -0.15888219381E+03  0.41948583229E+03  0.17614385773E+03 0.  0.
         24    2    3    3    0    0  0.31493189915E+03  0.95827334952E+02 -0.18561572425E+03  0.38722174579E+03  0.84394929304E+02 0.  0.
         -6    2    1    2    0  502 -0.33237168820E+03 -0.96058389813E+02 -0.75137635933E+02  0.39294815154E+03  0.17048293785E+03 0.  0.
        -24    2    5    5    0    0 -0.22314194233E+03 -0.24394450105E+02  0.69915594406E+01  0.23856501655E+03  0.80479622244E+02 0.  0.
          5    1    3    3  501    0  0.17439789043E+02  0.23105486092E+00  0.26733530440E+02  0.32264086505E+02  0.47000000000E+01 0. -1.
        -11    1    4    4    0    0  0.27341427079E+03  0.11168378813E+03 -0.16349092396E+03  0.33757653091E+03  0.00000000000E+00 0.  1.
         12    1    4    4    0    0  0.41517628362E+02 -0.15856453179E+02 -0.22124800290E+02  0.49645214877E+02  0.00000000000E+00 0. -1.
         -5    1    5    5    0  502 -0.10922974586E+03 -0.71663939708E+02 -0.82129195373E+02  0.15438313499E+03  0.47000000000E+01 0.  1.
         13    1    6    6    0    0 -0.41621696668E+02 -0.32880334617E+02 -0.15987721128E+02  0.55399361593E+02  0.00000000000E+00 0. -1.
        -14    1    6    6    0    0 -0.18152024566E+03  0.84858845125E+01  0.22979280569E+02  0.18316565496E+03  0.00000000000E+00 0.  1.
</event>
<event>
12    1  0.1050869E+000  0.1811368E+03  0.7818608E-02  0.1167216E+00
         21   -1    0    0  501  502  0.00000000000E+00  0.00000000000E+00  0.12877727849E+03  0.12877727849E+03  0.00000000000E+00 0.  1.
         21   -1    0    0  502  503 -0.00000000000E+00 -0.00000000000E+00 -0.42038707613E+03  0.42038707613E+03  0.00000000000E+00 0.  1.
         -6    2    1    2    0  503  0.80617930470E+01 -0.55366881744E+02  0.28571404097E+02  0.18129680657E+03  0.17006387870E+03 0.  0.
        -24    2    3    3    0    0  0.27314107072E+02  0.28021464753E+02 -0.42993861297E+01  0.89498948332E+02  0.80376079150E+02 0.  0.
          6    2    1    2  501    0 -0.80617930470E+01  0.55366881744E+02 -0.32018120173E+03  0.36786754805E+03  0.17227897975E+03 0.  0.
         24    2    5    5    0    0  0.28159993168E+02  0.82479693607E+02 -0.28783932345E+03  0.31205348661E+03  0.83246725509E+02 0.  0.
          5    1    5    5  501    0 -0.36221786215E+02 -0.27112811864E+02 -0.32341878284E+02  0.55814061442E+02  0.47000000000E+01 0. -1.
        -11    1    6    6    0    0 -0.97260195336E+01 -0.11399686744E+02 -0.15743066945E+02  0.21734591569E+02  0.00000000000E+00 0.  1.
         12    1    6    6    0    0  0.37886012701E+02  0.93879380351E+02 -0.27209625650E+03  0.29031889504E+03  0.00000000000E+00 0. -1.
         -5    1    3    3    0  503 -0.19252314025E+02 -0.83388346496E+02  0.32870790226E+02  0.91797858237E+02  0.47000000000E+01 0.  1.
         13    1    4    4    0    0  0.47000565243E-01 -0.27154820222E+01  0.33534949735E+02  0.33644745584E+02  0.00000000000E+00 0. -1.
        -14    1    4    4    0    0  0.27267106507E+02  0.30736946775E+02 -0.37834335865E+02  0.55854202748E+02  0.00000000000E+00 0.  1.
</event>
<event>
12    1  0.1050869E+000  0.2108973E+03  0.7818608E-02  0.1140940E+00
         21   -1    0    0  501  502  0.00000000000E+00  0.00000000000E+00  0.40388159656E+03  0.40388159656E+03  0.00000000000E+00 0.  1.
         21   -1    0    0  502  503 -0.00000000000E+00 -0.00000000000E+00 -0.12265916715E+03  0.12265916715E+03  0.00000000000E+00 0. -1.
         -6    2    1    2    0  503 -0.70303929734E+02 -0.98906084247E+02  0.55849364006E+02  0.21816700715E+03  0.17248952290E+03 0.  0.
        -24    2    3    3    0    0 -0.13220103361E+02 -0.72161081468E+02 -0.28581354589E+02  0.11269428722E+03  0.80629496649E+02 0.  0.
          6    2    1    2  501    0  0.70303929734E+02  0.98906084247E+02  0.22537306541E+03  0.30837375656E+03  0.17197761217E+03 0.  0.
         24    2    5    5    0    0  0.37814066739E+02  0.12979494764E+03  0.20665386027E+03  0.25956585023E+03  0.79949862830E+02 0.  0.
          5    1    5    5  501    0  0.32489862995E+02 -0.30888863393E+02  0.18719205136E+02  0.48807906328E+02  0.47000000000E+01 0. -1.
        -11    1    6    6    0    0  0.43872199781E+02  0.46198777557E+02  0.13507089723E+03  0.14934270735E+03  0.00000000000E+00 0.  1.
         12    1    6    6    0    0 -0.60581330421E+01  0.83596170083E+02  0.71582963040E+02  0.11022314288E+03  0.00000000000E+00 0. -1.
         -5    1    3    3    0  503 -0.57083826372E+02 -0.26745002779E+02  0.84430718596E+02  0.10547271993E+03  0.47000000000E+01 0.  1.
         13    1    4    4    0    0 -0.30332341473E+02 -0.42293593896E+02 -0.49983844502E+02  0.72160818559E+02  0.00000000000E+00 0. -1.
        -14    1    4    4    0    0  0.17112238112E+02 -0.29867487572E+02  0.21402489913E+02  0.40533468659E+02  0.00000000000E+00 0.  1.
</event>
<event>
12    1  0.1050869E+000  0.5406346E+03  0.7818608E-02  0.1003774E+00
         21   -1    0    0  501  502  0.00000000000E+00  0.00000000000E+00  0.14617047966E+04  0.14617047966E+04  0.00000000000E+00 0.  1.
         21   -1    0    0  502  503 -0.00000000000E+00 -0.00000000000E+00 -0.20198136101E+03  0.20198136101E+03  0.00000000000E+00 0.  1.
         -6    2    1    2    0  503 -0.50410685036E+03 -0.86471132966E+02  0.53680474853E+03  0.76186949708E+03  0.17517082841E+03 0.  0.
        -24    2    3    3    0    0 -0.30523119136E+03  0.39105777204E+01  0.37470486183E+03  0.48980545198E+03  0.79525307373E+02 0.  0.
          6    2    1    2  501    0  0.50410685036E+03  0.86471132966E+02  0.72291868711E+03  0.90181666057E+03  0.17047254236E+03 0.  0.
         24    2    5    5    0    0  0.22970471351E+03 -0.18970982125E+02  0.29913079736E+03  0.38603294831E+03  0.80112731052E+02 0.  0.
          5    1    5    5  501    0  0.27440213686E+03  0.10544211509E+03  0.42378788975E+03  0.51578371227E+03  0.47000000000E+01 0. -1.
        -11    1    6    6    0    0  0.43509551828E+02 -0.16431520962E+02  0.11548019786E+03  0.12449398411E+03  0.00000000000E+00 0.  1.
         12    1    6    6    0    0  0.18619516168E+03 -0.25394611630E+01  0.18365059950E+03  0.26153896420E+03  0.00000000000E+00 0. -1.
         -5    1    3    3    0  503 -0.19887565900E+03 -0.90381710687E+02  0.16209988669E+03  0.27206404510E+03  0.47000000000E+01 0.  1.
         11    1    4    4    0    0 -0.10292757718E+03 -0.34543655411E+02  0.11164135748E+03  0.15572778485E+03  0.00000000000E+00 0. -1.
        -12    1    4    4    0    0 -0.20230361418E+03  0.38454233131E+02  0.26306350435E+03  0.33407766713E+03  0.00000000000E+00 0.  1.
</event>
<event>
12    1  0.1050869E+000  0.2285995E+03  0.7818608E-02  0.1127965E+00
         21   -1    0    0  503  502  0.00000000000E+00  0.00000000000E+00  0.35340193879E+03  0.35340193879E+03  0.00000000000E+00 0.  1.
         21   -1    0    0  501  503 -0.00000000000E+00 -0.00000000000E+00 -0.27944841092E+03  0.27944841092E+03  0.00000000000E+00 0.  1.
          6    2    1    2  501    0 -0.11969902546E+03 -0.88996511597E+02  0.25502209034E+03  0.34122809635E+03  0.17073989402E+03 0.  0.
         24    2    3    3    0    0 -0.45822202034E+02 -0.55490482345E+02  0.46748339427E+02  0.11766494117E+03  0.80503188210E+02 0.  0.
         -6    2    1    2    0  502  0.11969902546E+03  0.88996511597E+02 -0.18106856247E+03  0.29162225337E+03  0.17323244088E+03 0.  0.
        -24    2    5    5    0    0  0.71617546906E+02 -0.69267412855E+01 -0.14004724661E+03  0.17665296452E+03  0.80099849069E+02 0.  0.
          5    1    3    3  501    0 -0.73876823422E+02 -0.33506029252E+02  0.20827375091E+03  0.22356315518E+03  0.47000000000E+01 0. -1.
        -13    1    4    4    0    0 -0.38049450603E+02 -0.43570173902E+02  0.69750937419E+02  0.90616301049E+02  0.00000000000E+00 0.  1.
         14    1    4    4    0    0 -0.77727514302E+01 -0.11920308443E+02 -0.23002597992E+02  0.27048640124E+02  0.00000000000E+00 0. -1.
         -5    1    5    5    0  502  0.48081478550E+02  0.95923252883E+02 -0.41021315853E+02  0.11496928884E+03  0.47000000000E+01 0.  1.
         11    1    6    6    0    0  0.68866042505E+02  0.26285170818E+02 -0.87266140270E+02  0.11423143724E+03  0.00000000000E+00 0. -1.
        -12    1    6    6    0    0  0.27515044010E+01 -0.33211912103E+02 -0.52781106342E+02  0.62421527286E+02  0.00000000000E+00 0.  1.
</event>
<event>
12    1  0.1050869E+000  0.2312606E+03  0.7818608E-02  0.1125840E+00
         21   -1    0    0  501  502  0.00000000000E+00  0.00000000000E+00  0.20623890110E+03  0.20623890110E+03  0.00000000000E+00 0. -1.
         21   -1    0    0  502  503 -0.00000000000E+00 -0.00000000000E+00 -0.31541763540E+03  0.31541763540E+03  0.00000000000E+00 0. -1.
         -6    2    1    2    0  503 -0.47776785914E+02 -0.14597708246E+03  0.55986502987E+02  0.23747168784E+03  0.17223932227E+03 0.  0.
        -24    2    3    3    0    0  0.19459866062E+02 -0.64611671644E+02 -0.21562950480E+02  0.10641023211E+03  0.79402910304E+02 0.  0.
          6    2    1    2  501    0  0.47776785914E+02  0.14597708246E+03 -0.16516523728E+03  0.28418484866E+03  0.17288592402E+03 0.  0.
         24    2    5    5    0    0 -0.41115568049E+02  0.58206090959E+02 -0.73056356235E+02  0.12890531521E+03  0.78745857930E+02 0.  0.
          5    1    5    5  501    0  0.88892353963E+02  0.87770991498E+02 -0.92108881048E+02  0.15527953345E+03  0.47000000000E+01 0. -1.
        -11    1    6    6    0    0  0.20453981126E+02 -0.83413446657E+00 -0.18912333658E+02  0.27870010560E+02  0.00000000000E+00 0.  1.
         12    1    6    6    0    0 -0.61569549175E+02  0.59040225425E+02 -0.54144022577E+02  0.10103530465E+03  0.00000000000E+00 0. -1.
         -5    1    3    3    0  503 -0.67236651976E+02 -0.81365410813E+02  0.77549453466E+02  0.13106145573E+03  0.47000000000E+01 0.  1.
         13    1    4    4    0    0 -0.99394607216E+01  0.13765601738E+02 -0.14632406007E+02  0.22414102172E+02  0.00000000000E+00 0. -1.
        -14    1    4    4    0    0  0.29399326784E+02 -0.78377273381E+02 -0.69305444731E+01  0.83996129939E+02  0.00000000000E+00 0.  1.
</event>
<event>
12    1  0.1050869E+000  0.1832039E+03  0.7818608E-02  0.1167097E+00
         21   -1    0    0  503  502  0.00000000000E+00  0.00000000000E+00  0.13406184864E+03  0.13406184864E+03  0.00000000000E+00 0.  1.
         21   -1    0    0  501  503 -0.00000000000E+00 -0.00000000000E+00 -0.44892802976E+03  0.44892802976E+03  0.00000000000E+00 0.  1.
          6    2    1    2  501    0 -0.25139128882E+02  0.59846179621E+02 -0.35527543156E+03  0.39538237898E+03  0.16091318254E+03 0.  0.
         24    2    3    3    0    0 -0.49198596228E+02  0.58966602610E+01 -0.30207238098E+03  0.31574530721E+03  0.77408676514E+02 0.  0.
         -6    2    1    2    0  502  0.25139128882E+02 -0.59846179621E+02  0.40409250443E+02  0.18760749942E+03  0.17131878269E+03 0.  0.
        -24    2    5    5    0    0 -0.34908051460E+02  0.11422146763E+02  0.57300337065E+01  0.88060644696E+02  0.79829858853E+02 0.  0.
          5    1    3    3  501    0  0.24059467346E+02  0.53949519360E+02 -0.53203050582E+02  0.79637071766E+02  0.47000000000E+01 0. -1.
        -11    1    4    4    0    0  0.10097358911E+02  0.13734665244E+00 -0.17617129067E+03  0.17646047483E+03  0.00000000000E+00 0.  1.
         12    1    4    4    0    0 -0.59295955140E+02  0.57593136086E+01 -0.12590109032E+03  0.13928483238E+03  0.00000000000E+00 0. -1.
         -5    1    5    5    0  502  0.60047180342E+02 -0.71268326384E+02  0.34679216736E+02  0.99546854727E+02  0.47000000000E+01 0.  1.
         13    1    6    6    0    0  0.15515165656E+02 -0.17310561253E+02  0.17181709192E+02  0.28906522222E+02  0.00000000000E+00 0. -1.
        -14    1    6    6    0    0 -0.50423217116E+02  0.28732708015E+02 -0.11451675485E+02  0.59154122474E+02  0.00000000000E+00 0.  1.
</event>
<event>
12    1  0.1050869E+000  0.1939181E+03  0.7818608E-02  0.1155133E+00
         21   -1    0    0  503  502  0.00000000000E+00  0.00000000000E+00  0.56380993943E+02  0.56380993943E+02  0.00000000000E+00 0. -1.
         21   -1    0    0  501  503 -0.00000000000E+00 -0.00000000000E+00 -0.68122063226E+03  0.68122063226E+03  0.00000000000E+00 0. -1.
          6    2    1    2  501    0 -0.37224373949E+02  0.79306283697E+02 -0.25405161049E+03  0.31916645457E+03  0.17219135948E+03 0.  0.
         24    2    3    3    0    0 -0.70741818902E+02  0.10517429500E+03 -0.20830630454E+03  0.25665808600E+03  0.80098809755E+02 0.  0.
         -6    2    1    2    0  502  0.37224373949E+02 -0.79306283697E+02 -0.37078802783E+03  0.41843517164E+03  0.17300026195E+03 0.  0.
        -24    2    5    5    0    0 -0.20650090686E+02 -0.90596475140E+02 -0.31129998462E+03  0.33454334031E+03  0.79858741315E+02 0.  0.
          5    1    3    3  501    0  0.33517444953E+02 -0.25868011307E+02 -0.45745305951E+02  0.62508368573E+02  0.47000000000E+01 0. -1.
        -13    1    4    4    0    0 -0.50672165899E+02  0.79746899515E+02 -0.78404673134E+02  0.12277837411E+03  0.00000000000E+00 0.  1.
         14    1    4    4    0    0 -0.20069653003E+02  0.25427395489E+02 -0.12990163141E+03  0.13387971189E+03  0.00000000000E+00 0. -1.
         -5    1    5    5    0  502  0.57874464635E+02  0.11290191443E+02 -0.59488043204E+02  0.83891831330E+02  0.47000000000E+01 0.  1.
         11    1    6    6    0    0  0.18524206788E+02 -0.76917159147E+02 -0.17469024015E+03  0.19177089355E+03  0.00000000000E+00 0. -1.
        -12    1    6    6    0    0 -0.39174297474E+02 -0.13679315992E+02 -0.13660974448E+03  0.14277244676E+03  0.00000000000E+00 0.  1.
</event>
<event>
12    1  0.1050869E+000  0.3108308E+03  0.7818608E-02  0.1079991E+00
         21   -1    0    0  501  502  0.00000000000E+00  0.00000000000E+00  0.51327804323E+02  0.51327804323E+02  0.00000000000E+00 0.  1.
         21   -1    0    0  502  503 -0.00000000000E+00 -0.00000000000E+00 -0.20250958693E+04  0.20250958693E+04  0.00000000000E+00 0.  1.
         -6    2    1    2    0  503  0.18988103374E+03 -0.17576480425E+03 -0.70862039462E+03  0.77365184958E+03  0.17159908888E+03 0.  0.
        -24    2    3    3    0    0  0.99365050804E+02 -0.27788353121E+02 -0.23579446749E+03  0.26998864800E+03  0.81542830849E+02 0.  0.
          6    2    1    2  501    0 -0.18988103374E+03  0.17576480425E+03 -0.12651476704E+04  0.13027718241E+04  0.17224321269E+03 0.  0.
         24    2    5    5    0    0 -0.18678034304E+02  0.81930555023E+02 -0.50457061688E+03  0.51752353361E+03  0.78597809210E+02 0.  0.
          5    1    5    5  501    0 -0.17120299944E+03  0.93834249225E+02 -0.76057705353E+03  0.78524829048E+03  0.47000000000E+01 0. -1.
        -11    1    6    6    0    0  0.14563732016E+01  0.56243343517E+02 -0.13153090346E+03  0.14305877560E+03  0.00000000000E+00 0.  1.
         12    1    6    6    0    0 -0.20134407506E+02  0.25687211506E+02 -0.37303971342E+03  0.37446475800E+03  0.00000000000E+00 0. -1.
         -5    1    3    3    0  503  0.90515982940E+02 -0.14797645113E+03 -0.47282592713E+03  0.50366320158E+03  0.47000000000E+01 0.  1.
         13    1    4    4    0    0  0.89038190265E+02 -0.17227723850E+02 -0.23833041411E+03  0.25500192173E+03  0.00000000000E+00 0. -1.
        -14    1    4    4    0    0  0.10326860539E+02 -0.10560629271E+02  0.25359466238E+01  0.14986726276E+02  0.00000000000E+00 0.  1.
</event>
<event>
12    1  0.1050869E+000  0.1837092E+03  0.7818608E-02  0.1164370E+00
         21   -1    0    0  503  502  0.00000000000E+00  0.00000000000E+00  0.11858800973E+03  0.11858800973E+03  0.00000000000E+00 0. -1.
         21   -1    0    0  501  503 -0.00000000000E+00 -0.00000000000E+00 -0.32362384702E+03  0.32362384702E+03  0.00000000000E+00 0. -1.
          6    2    1    2  501    0  0.58809844552E+01  0.64581313872E+02 -0.17989558786E+03  0.25679041931E+03  0.17138717816E+03 0.  0.
         24    2    3    3    0    0  0.72216727671E+02  0.24278832450E+02 -0.97460694476E+02  0.14346644795E+03  0.72658910394E+02 0.  0.
         -6    2    1    2    0  502 -0.58809844552E+01 -0.64581313872E+02 -0.25140249435E+02  0.18542143745E+03  0.17188294052E+03 0.  0.
        -24    2    5    5    0    0  0.59892167815E+02 -0.19667526537E+02 -0.35400412911E+02  0.10498067162E+03  0.76117467203E+02 0.  0.
          5    1    3    3  501    0 -0.66335743216E+02  0.40302481423E+02 -0.82434893380E+02  0.11332397135E+03  0.47000000000E+01 0. -1.
        -13    1    4    4    0    0  0.48961601960E+02  0.42754261579E+02 -0.33903140889E+02  0.73311583749E+02  0.00000000000E+00 0.  1.
         14    1    4    4    0    0  0.23255125711E+02 -0.18475429129E+02 -0.63557553587E+02  0.70154864203E+02  0.00000000000E+00 0. -1.
         -5    1    5    5    0  502 -0.65773152271E+02 -0.44913787335E+02  0.10260163476E+02  0.80440765828E+02  0.47000000000E+01 0.  1.
         11    1    6    6    0    0  0.19082400281E+02  0.14834054194E+02  0.17457910638E+02  0.29815529647E+02  0.00000000000E+00 0. -1.
        -12    1    6    6    0    0  0.40809767534E+02 -0.34501580731E+02 -0.52858323549E+02  0.75165141971E+02  0.00000000000E+00 0.  1.
</event>
<event>
12    1  0.1050869E+000  0.5383197E+03  0.7818608E-02  0.1004251E+00
         21   -1    0    0  503  502  0.00000000000E+00  0.00000000000E+00  0.15738430764E+03  0.15738430764E+03  0.00000000000E+00 0.  1.
         21   -1    0    0  501  503 -0.00000000000E+00 -0.00000000000E+00 -0.19492988470E+04  0.19492988470E+04  0.00000000000E+00 0.  1.
          6    2    1    2  501    0 -0.42013777762E+03  0.28977434634E+03 -0.11447886233E+04  0.12649230534E+04  0.17030682617E+03 0.  0.
         24    2    3    3    0    0 -0.36805895922E+03  0.18292311276E+03 -0.91668097609E+03  0.10076594179E+04  0.78391504071E+02 0.  0.
         -6    2    1    2    0  502  0.42013777762E+03 -0.28977434634E+03 -0.64712591605E+03  0.84176010122E+03  0.17118175373E+03 0.  0.
        -24    2    5    5    0    0  0.30568614081E+03 -0.27031550977E+03 -0.55535568722E+03  0.69370035522E+03  0.79282734517E+02 0.  0.
          5    1    3    3  501    0 -0.52078818400E+02  0.10685123357E+03 -0.22810764722E+03  0.25726363552E+03  0.47000000000E+01 0. -1.
        -11    1    4    4    0    0 -0.17961625645E+03  0.55791045605E+02 -0.47581856955E+03  0.51164240587E+03  0.00000000000E+00 0.  1.
         12    1    4    4    0    0 -0.18844270276E+03  0.12713206716E+03 -0.44086240654E+03  0.49601701203E+03  0.00000000000E+00 0. -1.
         -5    1    5    5    0  502  0.11445163680E+03 -0.19458836565E+02 -0.91770228828E+02  0.14805974600E+03  0.47000000000E+01 0.  1.
         13    1    6    6    0    0  0.18836915774E+03 -0.11376629944E+03 -0.29238677624E+03  0.36594499230E+03  0.00000000000E+00 0. -1.
        -14    1    6    6    0    0  0.11731698308E+03 -0.15654921034E+03 -0.26296891098E+03  0.32775536291E+03  0.00000000000E+00 0.  1.
</event>
<event>
12    1  0.1050869E+000  0.3781863E+03  0.7818608E-02  0.1052293E+00
         21   -1    0    0  501  502  0.00000000000E+00  0.00000000000E+00  0.51166954386E+03  0.51166954386E+03  0.00000000000E+00 0. -1.
         21   -1    0    0  502  503 -0.00000000000E+00 -0.00000000000E+00 -0.33469580441E+03  0.33469580441E+03  0.00000000000E+00 0. -1.
         -6    2    1    2    0  503 -0.33555159890E+03  0.17672510247E+02  0.26775928904E+03  0.45743492894E+03  0.15698561782E+03 0.  0.
        -24    2    3    3    0    0 -0.24558200813E+03 -0.36607307299E+01  0.25821159303E+03  0.36436031944E+03  0.75903174787E+02 0.  0.
          6    2    1    2  501    0  0.33555159890E+03 -0.17672510247E+02 -0.90785549591E+02  0.38893041933E+03  0.17354440907E+03 0.  0.
         24    2    5    5    0    0  0.20466904934E+03 -0.79218047263E+02 -0.47845789976E+02  0.23798669517E+03  0.78635416258E+02 0.  0.
          5    1    5    5  501    0  0.13088254957E+03  0.61545537016E+02 -0.42939759615E+02  0.15094372416E+03  0.47000000000E+01 0. -1.
        -11    1    6    6    0    0  0.84296533149E+02 -0.51322819906E+02 -0.57202542016E+02  0.11407045260E+03  0.00000000000E+00 0.  1.
         12    1    6    6    0    0  0.12037251619E+03 -0.27895227356E+02  0.93567520400E+01  0.12391624256E+03  0.00000000000E+00 0. -1.
         -5    1    3    3    0  503 -0.89969590773E+02  0.21333240977E+02  0.95476960135E+01  0.93074609500E+02  0.47000000000E+01 0.  1.
         11    1    4    4    0    0 -0.46406936543E+02 -0.14649797622E+01  0.99055586197E+02  0.10939725354E+03  0.00000000000E+00 0. -1.
        -12    1    4    4    0    0 -0.19917507159E+03 -0.21957509677E+01  0.15915600683E+03  0.25496306590E+03  0.00000000000E+00 0.  1.
</event>
<event>
12    1  0.1050869E+000  0.1936635E+03  0.7818608E-02  0.1155459E+00
         21   -1    0    0  501  502  0.00000000000E+00  0.00000000000E+00  0.14721588475E+03  0.14721588475E+03  0.00000000000E+00 0.  1.
         21   -1    0    0  502  503 -0.00000000000E+00 -0.00000000000E+00 -0.25840604368E+03  0.25840604368E+03  0.00000000000E+00 0.  1.
         -6    2    1    2    0  503  0.85393036855E+02  0.17080763599E+02 -0.84184689801E+02  0.21008463674E+03  0.17165304940E+03 0.  0.
        -24    2    3    3    0    0  0.36471049432E+02 -0.13008193068E+02  0.20175222292E+02  0.90871435207E+02  0.79694589581E+02 0.  0.
          6    2    1    2  501    0 -0.85393036855E+02 -0.17080763599E+02 -0.27005469132E+02  0.19553729169E+03  0.17297922953E+03 0.  0.
         24    2    5    5    0    0 -0.18339828498E+02 -0.63425816286E+02 -0.41668021931E+02  0.11258503365E+03  0.81117089868E+02 0.  0.
          5    1    5    5  501    0 -0.67053208357E+02  0.46345052687E+02  0.14662552799E+02  0.82952258041E+02  0.47000000000E+01 0. -1.
        -13    1    6    6    0    0 -0.27228267826E+02 -0.43988549191E+02  0.13462381918E+02  0.53456587579E+02  0.00000000000E+00 0.  1.
         14    1    6    6    0    0  0.88884393279E+01 -0.19437267095E+02 -0.55130403849E+02  0.59128446068E+02  0.00000000000E+00 0. -1.
         -5    1    3    3    0  503  0.48921987423E+02  0.30088956667E+02 -0.10435991209E+03  0.11921320153E+03  0.47000000000E+01 0.  1.
         11    1    4    4    0    0  0.59424241708E+02 -0.76163381878E+01  0.27861798177E+02  0.66072149259E+02  0.00000000000E+00 0. -1.
        -12    1    4    4    0    0 -0.22953192276E+02 -0.53918548804E+01 -0.76865758853E+01  0.24799285949E+02  0.00000000000E+00 0.  1.
</event>
<event>
12    1  0.1050869E+000  0.2080978E+03  0.7818608E-02  0.1143105E+00
         21   -1    0    0  503  502  0.00000000000E+00  0.00000000000E+00  0.14838017061E+04  0.14838017061E+04  0.00000000000E+00 0.  1.
         21   -1    0    0  501  503 -0.00000000000E+00 -0.00000000000E+00 -0.29172437480E+02  0.29172437480E+02  0.00000000000E+00 0.  1.
          6    2    1    2  501    0  0.11277573005E+03  0.34596768617E+02  0.71813873699E+03  0.74764873048E+03  0.17128945365E+03 0.  0.
         24    2    3    3    0    0  0.55116015226E+02  0.86704890265E+02  0.45995540274E+03  0.47798111444E+03  0.79696048336E+02 0.  0.
         -6    2    1    2    0  502 -0.11277573005E+03 -0.34596768617E+02  0.73649053161E+03  0.76532541309E+03  0.17143331962E+03 0.  0.
        -24    2    5    5    0    0 -0.96993779286E+02 -0.70998279521E+02  0.68532463470E+03  0.70040870512E+03  0.80336482196E+02 0.  0.
          5    1    3    3  501    0  0.57659714821E+02 -0.52108121649E+02  0.25818333425E+03  0.26966761604E+03  0.47000000000E+01 0. -1.
        -13    1    4    4    0    0 -0.68756928673E+01  0.22503566084E+02  0.26524428782E+02  0.35457452829E+02  0.00000000000E+00 0.  1.
         14    1    4    4    0    0  0.61991708093E+02  0.64201324182E+02  0.43343097396E+03  0.44252366161E+03  0.00000000000E+00 0. -1.
         -5    1    5    5    0  502 -0.15781950761E+02  0.36401510905E+02  0.51165896917E+02  0.64916707967E+02  0.47000000000E+01 0.  1.
         11    1    6    6    0    0 -0.72433595322E+02 -0.43621869844E+02  0.25795698541E+03  0.27146141453E+03  0.00000000000E+00 0. -1.
        -12    1    6    6    0    0 -0.24560183964E+02 -0.27376409678E+02  0.42736764929E+03  0.42894729059E+03  0.00000000000E+00 0.  1.
</event>
<event>
12    1  0.1050869E+000  0.1896196E+03  0.7818608E-02  0.1158943E+00
         21   -1    0    0  503  502  0.00000000000E+00  0.00000000000E+00  0.52112026157E+03  0.52112026157E+03  0.00000000000E+00 0.  1.
         21   -1    0    0  501  503 -0.00000000000E+00 -0.00000000000E+00 -0.94904055407E+02  0.94904055407E+02  0.00000000000E+00 0.  1.
          6    2    1    2  501    0  0.78365056412E+02  0.18320488350E+02  0.37497632459E+03  0.42019381779E+03  0.17169414127E+03 0.  0.
         24    2    3    3    0    0  0.58020309908E+02 -0.54077083619E+02  0.19634860783E+03  0.22632461360E+03  0.79870943350E+02 0.  0.
         -6    2    1    2    0  502 -0.78365056412E+02 -0.18320488350E+02  0.51239881577E+02  0.19583049919E+03  0.17101852703E+03 0.  0.
        -24    2    5    5    0    0  0.24541177673E+02 -0.11599831418E+02 -0.31773294519E+01  0.79133527938E+02  0.74264354376E+02 0.  0.
          5    1    3    3  501    0  0.20344746505E+02  0.72397571970E+02  0.17862771676E+03  0.19386920419E+03  0.47000000000E+01 0. -1.
        -13    1    4    4    0    0  0.23944001133E+02 -0.11831979257E+02  0.46741388933E+01  0.27113806406E+02  0.00000000000E+00 0.  1.
         14    1    4    4    0    0  0.34076308774E+02 -0.42245104362E+02  0.19167446894E+03  0.19921080720E+03  0.00000000000E+00 0. -1.
         -5    1    5    5    0  502 -0.10290623409E+03 -0.67206569319E+01  0.54417211029E+02  0.11669697125E+03  0.47000000000E+01 0.  1.
         13    1    6    6    0    0 -0.17460535010E+02  0.19832790954E+02 -0.36214713821E+01  0.26670675560E+02  0.00000000000E+00 0. -1.
        -14    1    6    6    0    0  0.42001712683E+02 -0.31432622372E+02  0.44414193016E+00  0.52462852377E+02  0.00000000000E+00 0.  1.
</event>
<event>
12    1  0.1050869E+000  0.2220477E+03  0.7818608E-02  0.1132590E+00
         21   -1    0    0  503  502  0.00000000000E+00  0.00000000000E+00  0.50259132595E+03  0.50259132595E+03  0.00000000000E+00 0.  1.
         21   -1    0    0  501  503 -0.00000000000E+00 -0.00000000000E+00 -0.13893100188E+03  0.13893100188E+03  0.00000000000E+00 0.  1.
          6    2    1    2  501    0 -0.11766332725E+03 -0.73053671970E+02  0.71563655988E+01  0.22216299243E+03  0.17356175865E+03 0.  0.
         24    2    3    3    0    0 -0.14294946282E+03 -0.38505098510E+02 -0.24031799085E+02  0.16898607830E+03  0.77856122165E+02 0.  0.
         -6    2    1    2    0  502  0.11766332725E+03  0.73053671970E+02  0.35650395847E+03  0.41935933540E+03  0.17200489010E+03 0.  0.
        -24    2    5    5    0    0  0.20085677816E+02  0.52982712525E+02  0.82358276384E+02  0.12763654560E+03  0.79357418083E+02 0.  0.
          5    1    3    3  501    0  0.25286135567E+02 -0.34548573460E+02  0.31188164684E+02  0.53176914130E+02  0.47000000000E+01 0. -1.
        -11    1    4    4    0    0 -0.81660533139E+02 -0.13658517825E+02 -0.51356757800E+02  0.97429535324E+02  0.00000000000E+00 0.  1.
         12    1    4    4    0    0 -0.61288929681E+02 -0.24846580685E+02  0.27324958715E+02  0.71556542971E+02  0.00000000000E+00 0. -1.
         -5    1    5    5    0  502  0.97577649438E+02  0.20070959445E+02  0.27414568209E+03  0.29172278980E+03  0.47000000000E+01 0.  1.
         13    1    6    6    0    0  0.49663599149E+02  0.22547387906E+02  0.52841138227E+02  0.75941053924E+02  0.00000000000E+00 0. -1.
        -14    1    6    6    0    0 -0.29577921333E+02  0.30435324619E+02  0.29517138157E+02  0.51695491680E+02  0.00000000000E+00 0.  1.
</event>
<event>
12    1  0.1050869E+000  0.1956624E+03  0.7818608E-02  0.1153728E+00
         21   -1    0    0  501  502  0.00000000000E+00  0.00000000000E+00  0.15065776246E+04  0.15065776246E+04  0.00000000000E+00 0.  1.
         21   -1    0    0  502  503 -0.00000000000E+00 -0.00000000000E+00 -0.28200371092E+02  0.28200371092E+02  0.00000000000E+00 0.  1.
         -6    2    1    2    0  503 -0.23089262488E+02 -0.85497316219E+02  0.49297099348E+03  0.53038115275E+03  0.17447309723E+03 0.  0.
        -24    2    3    3    0    0  0.33939619411E+02 -0.57088807037E+02  0.42394687422E+03  0.43632927449E+03  0.79001607343E+02 0.  0.
          6    2    1    2  501    0  0.23089262488E+02  0.85497316219E+02  0.98540626001E+03  0.10043968429E+04  0.17304512615E+03 0.  0.
         24    2    5    5    0    0 -0.34561358129E+02  0.10227956581E+03  0.65603322131E+03  0.66956266519E+03  0.79240003097E+02 0.  0.
          5    1    5    5  501    0  0.57650620617E+02 -0.16782249587E+02  0.32937303870E+03  0.33483417773E+03  0.47000000000E+01 0. -1.
        -13    1    6    6    0    0 -0.45489708810E+02  0.30207827492E+02  0.38680656189E+03  0.39064196238E+03  0.00000000000E+00 0.  1.
         14    1    6    6    0    0  0.10928350681E+02  0.72071738314E+02  0.26922665942E+03  0.27892070281E+03  0.00000000000E+00 0. -1.
         -5    1    3    3    0  503 -0.57028881899E+02 -0.28408509182E+02  0.69024119265E+02  0.94051878263E+02  0.47000000000E+01 0.  1.
         13    1    4    4    0    0 -0.13381469499E+02 -0.29667098509E+02  0.28739450416E+03  0.28923139781E+03  0.00000000000E+00 0. -1.
        -14    1    4    4    0    0  0.47321088910E+02 -0.27421708528E+02  0.13655237006E+03  0.14709787668E+03  0.00000000000E+00 0.  1.
</event>
<event>
12    1  0.1050869E+000  0.1842307E+03  0.7818608E-02  0.1166403E+00
         21   -1    0    0  503  502  0.00000000000E+00  0.00000000000E+00  0.73532256501E+02  0.73532256501E+02  0.00000000000E+00 0.  1.
         21   -1    0    0  501  503 -0.00000000000E+00 -0.00000000000E+00 -0.72917613668E+03  0.72917613668E+03  0.00000000000E+00 0.  1.
          6    2    1    2  501    0 -0.28899235810E+02  0.38182123898E+01 -0.78802953969E+02  0.20037679330E+03  0.18190989297E+03 0.  0.
         24    2    3    3    0    0 -0.74856061647E+02 -0.19728980070E+02 -0.93281741896E+02  0.14654162437E+03  0.82342587288E+02 0.  0.
         -6    2    1    2    0  502  0.28899235810E+02 -0.38182123898E+01 -0.57684092621E+03  0.60233159989E+03  0.17090394230E+03 0.  0.
        -24    2    5    5    0    0  0.46310771393E-01  0.60650628137E+02 -0.38557604171E+03  0.39838781174E+03  0.79783856517E+02 0.  0.
          5    1    3    3  501    0  0.45956825837E+02  0.23547192460E+02  0.14478787926E+02  0.53835168929E+02  0.47000000000E+01 0. -1.
        -11    1    4    4    0    0 -0.78833150740E+00 -0.12534580598E+02  0.12161965009E+02  0.17482865046E+02  0.00000000000E+00 0.  1.
         12    1    4    4    0    0 -0.74067730140E+02 -0.71943994721E+01 -0.10544370690E+03  0.12905875932E+03  0.00000000000E+00 0. -1.
         -5    1    5    5    0  502  0.28852925038E+02 -0.64468840526E+02 -0.19126488450E+03  0.20394378815E+03  0.47000000000E+01 0.  1.
         11    1    6    6    0    0  0.14941440093E+02  0.44139080662E+02 -0.84547412494E+02  0.96538956039E+02  0.00000000000E+00 0. -1.
        -12    1    6    6    0    0 -0.14895129321E+02  0.16511547475E+02 -0.30102862922E+03  0.30184885570E+03  0.00000000000E+00 0.  1.
</event>
<event>
12    1  0.1050869E+000  0.1881057E+03  0.7818608E-02  0.1160452E+00
         21   -1    0    0  501  502  0.00000000000E+00  0.00000000000E+00  0.64561415426E+02  0.64561415426E+02  0.00000000000E+00 0. -1.
         21   -1    0    0  502  503 -0.00000000000E+00 -0.00000000000E+00 -0.10204946612E+04  0.10204946612E+04  0.00000000000E+00 0. -1.
         -6    2    1    2    0  503 -0.71280924139E+02 -0.18901337086E+02 -0.84763905639E+03  0.86800447614E+03  0.17176021070E+03 0.  0.
        -24    2    3    3    0    0 -0.79273588109E+02 -0.68004103311E+02 -0.69659907792E+03  0.70891290054E+03  0.79989782823E+02 0.  0.
          6    2    1    2  501    0  0.71280924139E+02  0.18901337086E+02 -0.10829418935E+03  0.21705160046E+03  0.17304778278E+03 0.  0.
         24    2    5    5    0    0 -0.92955892779E+01 -0.23892213173E+02 -0.91825490277E+02  0.12422288450E+03  0.79637670343E+02 0.  0.
          5    1    5    5  501    0  0.80576513417E+02  0.42793550259E+02 -0.16468699073E+02  0.92828715963E+02  0.47000000000E+01 0. -1.
        -13    1    6    6    0    0  0.15438608074E+02  0.29703503446E+01  0.82063411555E+01  0.17734645066E+02  0.00000000000E+00 0.  1.
         14    1    6    6    0    0 -0.24734197352E+02 -0.26862563517E+02 -0.10003183143E+03  0.10648823943E+03  0.00000000000E+00 0. -1.
         -5    1    3    3    0  503  0.79926639702E+01  0.49102766224E+02 -0.15103997848E+03  0.15909157560E+03  0.47000000000E+01 0.  1.
         11    1    4    4    0    0  0.14045336973E+02 -0.23269796753E+02 -0.18116647938E+03  0.18319401787E+03  0.00000000000E+00 0. -1.
        -12    1    4    4    0    0 -0.93318925082E+02 -0.44734306558E+02 -0.51543259854E+03  0.52571888267E+03  0.00000000000E+00 0.  1.
</event>
<event>
12    1  0.1050869E+000  0.1733253E+03  0.7818608E-02  0.1174627E+00
         21   -1    0    0  501  502  0.00000000000E+00  0.00000000000E+00  0.78841860285E+02  0.78841860285E+02  0.00000000000E+00 0. -1.
         21   -1    0    0  502  503 -0.00000000000E+00 -0.00000000000E+00 -0.38556468341E+03  0.38556468341E+03  0.00000000000E+00 0. -1.
         -6    2    1    2    0  503  0.15405990652E+02 -0.29739345408E+01 -0.18333303259E+03  0.25229476166E+03  0.17261360632E+03 0.  0.
        -24    2    3    3    0    0  0.39121106488E+01 -0.51762123641E+02 -0.51821143440E+02  0.11147621295E+03  0.83945774710E+02 0.  0.
          6    2    1    2  501    0 -0.15405990652E+02  0.29739345408E+01 -0.12338979054E+03  0.21211178204E+03  0.17181437320E+03 0.  0.
         24    2    5    5    0    0 -0.59667205617E+02  0.30183906725E+02 -0.35278348678E+02  0.10971474144E+03  0.79507980438E+02 0.  0.
          5    1    5    5  501    0  0.44261214966E+02 -0.27209972184E+02 -0.88111441858E+02  0.10239704060E+03  0.47000000000E+01 0. -1.
        -13    1    6    6    0    0 -0.21721596206E+02  0.17482450086E+02  0.24942806102E+02  0.37411326881E+02  0.00000000000E+00 0.  1.
         14    1    6    6    0    0 -0.37945609411E+02  0.12701456639E+02 -0.60221154780E+02  0.72303414563E+02  0.00000000000E+00 0. -1.
         -5    1    3    3    0  503  0.11493880003E+02  0.48788189100E+02 -0.13151188915E+03  0.14081854871E+03  0.47000000000E+01 0.  1.
         11    1    4    4    0    0  0.34186225892E+02 -0.36473166349E+02 -0.58457557573E+02  0.76917331868E+02  0.00000000000E+00 0. -1.
        -12    1    4    4    0    0 -0.30274115243E+02 -0.15288957292E+02  0.66364141328E+01  0.34558881078E+02  0.00000000000E+00 0.  1.
</event>
<event>
12    1  0.1050869E+000  0.1795079E+03  0.7818608E-02  0.1168366E+00
         21   -1    0    0  503  502  0.00000000000E+00  0.00000000000E+00  0.54486256828E+03  0.54486256828E+03  0.00000000000E+00 0.  1.
         21   -1    0    0  501  503 -0.00000000000E+00 -0.00000000000E+00 -0.13421534684E+03  0.13421534684E+03  0.00000000000E+00 0.  1.
          6    2    1    2  501    0  0.50325487065E+02  0.99388027618E+01  0.45955399378E+03  0.49336898044E+03  0.17202221719E+03 0.  0.
         24    2    3    3    0    0  0.68127289366E+02  0.18615845435E+02  0.46082678347E+03  0.47297522579E+03  0.79726799718E+02 0.  0.
         -6    2    1    2    0  502 -0.50325487065E+02 -0.99388027618E+01 -0.48906772336E+02  0.18570893468E+03  0.17165226941E+03 0.  0.
        -24    2    5    5    0    0 -0.63097525168E+02 -0.48406484893E+01  0.30189526107E+02  0.10528859794E+03  0.78546494574E+02 0.  0.
          5    1    3    3  501    0 -0.17801802301E+02 -0.86770426736E+01 -0.12727896914E+01  0.20393754640E+02  0.47000000000E+01 0. -1.
        -11    1    4    4    0    0  0.18215269314E+01  0.48457067073E+01  0.27737195457E+03  0.27742025885E+03  0.00000000000E+00 0.  1.
         12    1    4    4    0    0  0.66305762435E+02  0.13770138728E+02  0.18345482890E+03  0.19555496695E+03  0.00000000000E+00 0. -1.
         -5    1    5    5    0  502  0.12772038103E+02 -0.50981542725E+01 -0.79096298443E+02  0.80420336742E+02  0.47000000000E+01 0.  1.
         11    1    6    6    0    0 -0.21913277967E+02  0.28326411209E+02  0.37561190270E+02  0.51898172779E+02  0.00000000000E+00 0. -1.
        -12    1    6    6    0    0 -0.41184247201E+02 -0.33167059698E+02 -0.73716641637E+01  0.53390425163E+02  0.00000000000E+00 0.  1.
</event>
<event>
12    1  0.1050869E+000  0.2109012E+03  0.7818608E-02  0.1141015E+00
         21   -1    0    0  501  502  0.00000000000E+00  0.00000000000E+00  0.51395670296E+03  0.51395670296E+03  0.00000000000E+00 0.  1.
         21   -1    0    0  502  503 -0.00000000000E+00 -0.00000000000E+00 -0.11856310953E+03  0.11856310953E+03  0.00000000000E+00 0.  1.
         -6    2    1    2    0  503  0.96436064533E+02  0.74278843629E+02  0.36262788006E+03  0.41908858746E+03  0.17122792876E+03 0.  0.
        -24    2    3    3    0    0  0.11077764269E+03  0.24672820655E+02  0.32986384373E+03  0.35775335732E+03  0.79352851721E+02 0.  0.
          6    2    1    2  501    0 -0.96436064533E+02 -0.74278843629E+02  0.32765713360E+02  0.21343122503E+03  0.17222669564E+03 0.  0.
         24    2    5    5    0    0 -0.11815783228E+01 -0.55354335808E+02  0.59072925126E+02  0.11270529227E+03  0.78405189894E+02 0.  0.
          5    1    5    5  501    0 -0.95254486211E+02 -0.18924507821E+02 -0.26307211766E+02  0.10072593276E+03  0.47000000000E+01 0. -1.
        -13    1    6    6    0    0  0.19419611159E+02 -0.45640765409E+02  0.22226037553E+00  0.49600908906E+02  0.00000000000E+00 0.  1.
         14    1    6    6    0    0 -0.20601189482E+02 -0.97135703992E+01  0.58850664750E+02  0.63104383362E+02  0.00000000000E+00 0. -1.
         -5    1    3    3    0  503 -0.14341578153E+02  0.49606022974E+02  0.32764036332E+02  0.61335230137E+02  0.47000000000E+01 0.  1.
         13    1    4    4    0    0  0.85640116594E+02  0.46733453774E+02  0.18578370708E+03  0.20984239583E+03  0.00000000000E+00 0. -1.
        -14    1    4    4    0    0  0.25137526092E+02 -0.22060633119E+02  0.14408013665E+03  0.14791096149E+03  0.00000000000E+00 0.  1.
</event>
<event>
12    1  0.1050869E+000  0.2041631E+03  0.7818608E-02  0.1146684E+00
         21   -1    0    0  501  502  0.00000000000E+00  0.00000000000E+00  0.46185562823E+02  0.46185562823E+02  0.00000000000E+00 0. -1.
         21   -1    0    0  502  503 -0.00000000000E+00 -0.00000000000E+00 -0.91523825262E+03  0.91523825262E+03  0.00000000000E+00 0. -1.
         -6    2    1    2    0  503  0.24194211025E+02  0.10750518371E+03 -0.51030120712E+03  0.54962705704E+03  0.17187162499E+03 0.  0.
        -24    2    3    3    0    0  0.23153967271E+02  0.93816103753E+02 -0.18139764721E+03  0.22040355433E+03  0.79593045081E+02 0.  0.
          6    2    1    2  501    0 -0.24194211025E+02 -0.10750518371E+03 -0.35875148268E+03  0.41179675840E+03  0.16950285996E+03 0.  0.
         24    2    5    5    0    0 -0.40342502048E+01 -0.76816437336E+02 -0.96744709635E+02  0.14718787288E+03  0.79923030859E+02 0.  0.
          5    1    5    5  501    0 -0.20159960821E+02 -0.30688746372E+02 -0.26200677304E+03  0.26460888552E+03  0.47000000000E+01 0. -1.
        -13    1    6    6    0    0  0.27357752298E+02 -0.86440462430E+01 -0.53131782785E+02  0.60383379238E+02  0.00000000000E+00 0.  1.
         14    1    6    6    0    0 -0.31392002503E+02 -0.68172391093E+02 -0.43612926849E+02  0.86804493645E+02  0.00000000000E+00 0. -1.
         -5    1    3    3    0  503  0.10402437543E+01  0.13689079956E+02 -0.32890355990E+03  0.32922350271E+03  0.47000000000E+01 0.  1.
         13    1    4    4    0    0  0.15300713358E+02  0.44673660071E+01  0.21782249364E+01  0.16087692569E+02  0.00000000000E+00 0. -1.
        -14    1    4    4    0    0  0.78532539129E+01  0.89348737746E+02 -0.18357587215E+03  0.20431586177E+03  0.00000000000E+00 0.  1.
</event>
<event>
12    1  0.1050869E+000  0.2334938E+03  0.7818608E-02  0.1124228E+00
         21   -1    0    0  501  502  0.00000000000E+00  0.00000000000E+00  0.27370715479E+03  0.27370715479E+03  0.00000000000E+00 0.  1.
         21   -1    0    0  502  503 -0.00000000000E+00 -0.00000000000E+00 -0.20016545582E+03  0.20016545582E+03  0.00000000000E+00 0. -1.
         -6    2    1    2    0  503  0.98811686094E+02  0.12081672017E+03  0.19256194112E+02  0.23415133073E+03  0.17348087933E+03 0.  0.
        -24    2    3    3    0    0 -0.16161893925E+02  0.34700776229E+02 -0.14059389461E+02  0.86615240195E+02  0.76414545186E+02 0.  0.
          6    2    1    2  501    0 -0.98811686094E+02 -0.12081672017E+03  0.54285504856E+02  0.23972127988E+03  0.17366331452E+03 0.  0.
         24    2    5    5    0    0 -0.30925375828E+02 -0.10098938258E+03  0.91119159131E+02  0.15984335725E+03  0.78051030946E+02 0.  0.
          5    1    5    5  501    0 -0.67886310266E+02 -0.19827337591E+02 -0.36833654275E+02  0.79877922637E+02  0.47000000000E+01 0. -1.
        -11    1    6    6    0    0 -0.35156684580E+02 -0.15253387536E+02  0.57007537824E+01  0.38744766042E+02  0.00000000000E+00 0.  1.
         12    1    6    6    0    0  0.42313087524E+01 -0.85735995040E+02  0.85418405349E+02  0.12109859120E+03  0.00000000000E+00 0. -1.
         -5    1    3    3    0  503  0.11497358002E+03  0.86115943938E+02  0.33315583573E+02  0.14753609054E+03  0.47000000000E+01 0.  1.
         11    1    4    4    0    0  0.26813954675E+02 -0.32490386901E+01 -0.11110987397E+02  0.29206137346E+02  0.00000000000E+00 0. -1.
        -12    1    4    4    0    0 -0.42975848600E+02  0.37949814919E+02 -0.29484020640E+01  0.57409102850E+02  0.00000000000E+00 0.  1.
</event>
<event>
12    1  0.1050869E+000  0.2166299E+03  0.7818608E-02  0.1136935E+00
         21   -1    0    0  503  502  0.00000000000E+00  0.00000000000E+00  0.18936022089E+03  0.18936022089E+03  0.00000000000E+00 0.  1.
         21   -1    0    0  501  503 -0.00000000000E+00 -0.00000000000E+00 -0.27201137205E+03  0.27201137205E+03  0.00000000000E+00 0.  1.
          6    2    1    2  501    0 -0.12505297373E+03  0.30387714109E+02  0.31920417740E+02  0.21631006155E+03  0.17090778288E+03 0.  0.
         24    2    3    3    0    0 -0.60054055014E+02 -0.38247512098E+02  0.53879616579E+02  0.11915065580E+03  0.78895525797E+02 0.  0.
         -6    2    1    2    0  502  0.12505297373E+03 -0.30387714109E+02 -0.11457156889E+03  0.24506153139E+03  0.17426086870E+03 0.  0.
        -24    2    5    5    0    0  0.10874588790E+03  0.35299073007E+01 -0.14405490684E+03  0.19702317893E+03  0.78918872732E+02 0.  0.
          5    1    3    3  501    0 -0.64998918716E+02  0.68635226206E+02 -0.21959198839E+02  0.97159405743E+02  0.47000000000E+01 0. -1.
        -11    1    4    4    0    0 -0.43732986467E+01  0.10457117865E+02  0.42890104066E+02  0.44362575239E+02  0.00000000000E+00 0.  1.
         12    1    4    4    0    0 -0.55680756367E+02 -0.48704629963E+02  0.10989512513E+02  0.74788080565E+02  0.00000000000E+00 0. -1.
         -5    1    5    5    0  502  0.16307085834E+02 -0.33917621409E+02  0.29483337944E+02  0.48038352457E+02  0.47000000000E+01 0.  1.
         13    1    6    6    0    0  0.39010021903E+02 -0.36757368568E+02 -0.51451134188E+02  0.74297410198E+02  0.00000000000E+00 0. -1.
        -14    1    6    6    0    0  0.69735865993E+02  0.40287275869E+02 -0.92603772650E+02  0.12272576874E+03  0.00000000000E+00 0.  1.
</event>
<event>
12    1  0.1050869E+000  0.2090744E+03  0.7818608E-02  0.1142567E+00
         21   -1    0    0  503  502  0.00000000000E+00  0.00000000000E+00  0.10455845159E+03  0.10455845159E+03  0.00000000000E+00 0.  1.
         21   -1    0    0  501  503 -0.00000000000E+00 -0.00000000000E+00 -0.41598208012E+03  0.41598208012E+03  0.00000000000E+00 0.  1.
          6    2    1    2  501    0  0.38543344005E+02  0.11020241603E+03 -0.16584893734E+03  0.26686699955E+03  0.17344152780E+03 0.  0.
         24    2    3    3    0    0 -0.21821159984E+02  0.75383020660E+01 -0.32708171509E+02  0.88170756824E+02  0.78557423929E+02 0.  0.
         -6    2    1    2    0  502 -0.38543344005E+02 -0.11020241603E+03 -0.14557469119E+03  0.25367353215E+03  0.17183744742E+03 0.  0.
        -24    2    5    5    0    0 -0.68435784605E+02 -0.18613973936E+02 -0.50067169883E+02  0.11793194915E+03  0.79820338825E+02 0.  0.
          5    1    3    3  501    0  0.60364503989E+02  0.10266411396E+03 -0.13314076583E+03  0.17869624272E+03  0.47000000000E+01 0. -1.
        -11    1    4    4    0    0 -0.29068667786E+01 -0.30077476795E+02 -0.34709075882E+02  0.46019826525E+02  0.00000000000E+00 0.  1.
         12    1    4    4    0    0 -0.18914293205E+02  0.37615778861E+02  0.20009043724E+01  0.42150930299E+02  0.00000000000E+00 0. -1.
         -5    1    5    5    0  502  0.29892440600E+02 -0.91588442095E+02 -0.95507521306E+02  0.13574158300E+03  0.47000000000E+01 0.  1.
         11    1    6    6    0    0 -0.69005512302E+02 -0.41308780369E+02 -0.25245351821E+02  0.84294150759E+02  0.00000000000E+00 0. -1.
        -12    1    6    6    0    0  0.56972769723E+00  0.22694806433E+02 -0.24821818062E+02  0.33637798391E+02  0.00000000000E+00 0.  1.
</event>
<event>
12    1  0.1050869E+000  0.1905152E+03  0.7818608E-02  0.1159456E+00
         21   -1    0    0  503  502  0.00000000000E+00  0.00000000000E+00  0.40749242714E+03  0.40749242714E+03  0.00000000000E+00 0.  1.
         21   -1    0    0  501  503 -0.00000000000E+00 -0.00000000000E+00 -0.19155227183E+03  0.19155227183E+03  0.00000000000E+00 0.  1.
          6    2    1    2  501    0  0.36743684189E+02 -0.57375884715E+02  0.32934775698E+03  0.37733021238E+03  0.17107324068E+03 0.  0.
         24    2    3    3    0    0  0.34121603883E+02  0.22370837852E+02  0.99910788382E+02  0.13436966492E+03  0.80051876794E+02 0.  0.
         -6    2    1    2    0  502 -0.36743684189E+02  0.57375884715E+02 -0.11340760166E+03  0.22171448658E+03  0.17791553887E+03 0.  0.
        -24    2    5    5    0    0 -0.35986194148E+02  0.37297079878E+02  0.10258070555E+02  0.96338967920E+02  0.80559855957E+02 0.  0.
          5    1    3    3  501    0  0.26220803064E+01 -0.79746722567E+02  0.22943696860E+03  0.24296054746E+03  0.47000000000E+01 0. -1.
        -11    1    4    4    0    0  0.31532826050E+02  0.14736154989E+01  0.10745977986E+03  0.11200042387E+03  0.00000000000E+00 0.  1.
         12    1    4    4    0    0  0.25887778327E+01  0.20897222353E+02 -0.75489914741E+01  0.22369241047E+02  0.00000000000E+00 0. -1.
         -5    1    5    5    0  502 -0.75749004149E+00  0.20078804837E+02 -0.12366567222E+03  0.12537551866E+03  0.47000000000E+01 0.  1.
         13    1    6    6    0    0 -0.55597493126E+02  0.20054468876E+02  0.27354263649E+02  0.65126942993E+02  0.00000000000E+00 0. -1.
        -14    1    6    6    0    0  0.19611298978E+02  0.17242611001E+02 -0.17096193094E+02  0.31212024927E+02  0.00000000000E+00 0.  1.
</event>
<event>
12    1  0.1050869E+000  0.2555168E+03  0.7818608E-02  0.1109869E+00
         21   -1    0    0  503  502  0.00000000000E+00  0.00000000000E+00  0.22850143710E+03  0.22850143710E+03  0.00000000000E+00 0.  1.
         21   -1    0    0  501  503 -0.00000000000E+00 -0.00000000000E+00 -0.29299930562E+03  0.29299930562E+03  0.00000000000E+00 0.  1.
          6    2    1    2  501    0  0.12856843099E+03 -0.14030731399E+03  0.88690736906E+01  0.25567067163E+03  0.17050761877E+03 0.  0.
         24    2    3    3    0    0  0.69059042937E+02 -0.10367181908E+03 -0.57846204016E+02  0.15894143596E+03  0.79994995246E+02 0.  0.
         -6    2    1    2    0  502 -0.12856843099E+03  0.14030731399E+03 -0.73366942210E+02  0.26583007109E+03  0.17049027739E+03 0.  0.
        -24    2    5    5    0    0 -0.10709669643E+02  0.10881483146E+02 -0.35722032411E+02  0.86718478647E+02  0.77530169870E+02 0.  0.
          5    1    3    3  501    0  0.59509388056E+02 -0.36635494905E+02  0.66715277707E+02  0.96729235669E+02  0.47000000000E+01 0. -1.
        -13    1    4    4    0    0  0.37748588565E+02 -0.92473332427E+02 -0.95941846307E+01  0.10034102614E+03  0.00000000000E+00 0.  1.
         14    1    4    4    0    0  0.31310454372E+02 -0.11198486653E+02 -0.48252019385E+02  0.58600409820E+02  0.00000000000E+00 0. -1.
         -5    1    5    5    0  502 -0.11785876135E+03  0.12942583084E+03 -0.37644909799E+02  0.17911159245E+03  0.47000000000E+01 0.  1.
         11    1    6    6    0    0 -0.64126691166E+01  0.42317058016E+02 -0.34488744530E+02  0.54966619176E+02  0.00000000000E+00 0. -1.
        -12    1    6    6    0    0 -0.42970005266E+01 -0.31435574870E+02 -0.12332878812E+01  0.31751859472E+02  0.00000000000E+00 0.  1.
</event>
<event>
12    1  0.1050869E+000  0.2617673E+03  0.7818608E-02  0.1106095E+00
         21   -1    0    0  501  502  0.00000000000E+00  0.00000000000E+00  0.24639815776E+03  0.24639815776E+03  0.00000000000E+00 0. -1.
         21   -1    0    0  502  503 -0.00000000000E+00 -0.00000000000E+00 -0.28165604385E+03  0.28165604385E+03  0.00000000000E+00 0.  1.
         -6    2    1    2    0  503  0.12313901623E+03 -0.15386128667E+03 -0.47569851270E+02  0.26599750573E+03  0.17220705401E+03 0.  0.
        -24    2    3    3    0    0  0.11470112590E+02 -0.80029453064E+02  0.20732892839E+02  0.11563647838E+03  0.80035401204E+02 0.  0.
          6    2    1    2  501    0 -0.12313901623E+03  0.15386128667E+03  0.12311965182E+02  0.26205669587E+03  0.17229513780E+03 0.  0.
         24    2    5    5    0    0 -0.13853728631E+03  0.15238174754E+03 -0.24790194030E+02  0.22158502707E+03  0.77926849159E+02 0.  0.
          5    1    5    5  501    0  0.15398270080E+02  0.14795391324E+01  0.37102159211E+02  0.40471668802E+02  0.47000000000E+01 0. -1.
        -13    1    6    6    0    0 -0.49375897355E+02  0.83731128716E+02 -0.45233690541E+02  0.10721458817E+03  0.00000000000E+00 0.  1.
         14    1    6    6    0    0 -0.89161388956E+02  0.68650618823E+02  0.20443496511E+02  0.11437043890E+03  0.00000000000E+00 0. -1.
         -5    1    3    3    0  503  0.11166890364E+03 -0.73831833607E+02 -0.68302744110E+02  0.15036102735E+03  0.47000000000E+01 0.  1.
         11    1    4    4    0    0  0.34004849423E+01  0.16454347848E+02  0.10460268718E+01  0.16834578497E+02  0.00000000000E+00 0. -1.
        -12    1    4    4    0    0  0.80696276476E+01 -0.96483800912E+02  0.19686865968E+02  0.98801899883E+02  0.00000000000E+00 0.  1.
</event>
<event>
12    1  0.1050869E+000  0.1828613E+03  0.7818608E-02  0.1165455E+00
         21   -1    0    0  501  502  0.00000000000E+00  0.00000000000E+00  0.40196216677E+03  0.40196216677E+03  0.00000000000E+00 0.  1.
         21   -1    0    0  502  503 -0.00000000000E+00 -0.00000000000E+00 -0.84739450548E+02  0.84739450548E+02  0.00000000000E+00 0.  1.
         -6    2    1    2    0  503 -0.53860613460E+02 -0.14019193806E+02  0.19800844652E+03  0.26841209914E+03  0.17245349111E+03 0.  0.
        -24    2    3    3    0    0 -0.11487781504E+02 -0.64418706248E+02  0.74737016316E+02  0.12857825758E+03  0.81639499483E+02 0.  0.
          6    2    1    2  501    0  0.53860613460E+02  0.14019193806E+02  0.11921426970E+03  0.21828951817E+03  0.17418601599E+03 0.  0.
         24    2    5    5    0    0 -0.40957693317E+02 -0.41176292057E+00  0.84288839709E+02  0.11611007077E+03  0.68550987181E+02 0.  0.
          5    1    5    5  501    0  0.94818306777E+02  0.14430956727E+02  0.34925429994E+02  0.10217944741E+03  0.47000000000E+01 0. -1.
        -13    1    6    6    0    0  0.90172796892E+01 -0.20900423061E+02  0.40986128354E+02  0.46882851178E+02  0.00000000000E+00 0.  1.
         14    1    6    6    0    0 -0.49974973006E+02  0.20488660141E+02  0.43302711355E+02  0.69227219589E+02  0.00000000000E+00 0. -1.
         -5    1    3    3    0  503 -0.42372831956E+02  0.50399512442E+02  0.12327143020E+03  0.13983384157E+03  0.47000000000E+01 0.  1.
         13    1    4    4    0    0 -0.10067021260E+02  0.16602246783E+02  0.30774816927E+02  0.36387757174E+02  0.00000000000E+00 0. -1.
        -14    1    4    4    0    0 -0.14207602438E+01 -0.81020953031E+02  0.43962199389E+02  0.92190500405E+02  0.00000000000E+00 0.  1.
</event>
<event>
12    1  0.1050869E+000  0.1864183E+03  0.7818608E-02  0.1161852E+00
         21   -1    0    0  503  502  0.00000000000E+00  0.00000000000E+00  0.14452458405E+03  0.14452458405E+03  0.00000000000E+00 0. -1.
         21   -1    0    0  501  503 -0.00000000000E+00 -0.00000000000E+00 -0.25280422069E+03  0.25280422069E+03  0.00000000000E+00 0. -1.
          6    2    1    2  501    0 -0.59754067283E+02  0.41336788314E+02 -0.91363501914E+01  0.18664205796E+03  0.17167558440E+03 0.  0.
         24    2    3    3    0    0 -0.70740773475E+02 -0.30601904079E+02 -0.19209458391E+02  0.11302520741E+03  0.80404979036E+02 0.  0.
         -6    2    1    2    0  502  0.59754067283E+02 -0.41336788314E+02 -0.99143286451E+02  0.21068674678E+03  0.17111468492E+03 0.  0.
        -24    2    5    5    0    0  0.61997241841E+01  0.22490766739E+02 -0.47394388950E+01  0.84685949628E+02  0.81271007222E+02 0.  0.
          5    1    3    3  501    0  0.10986706192E+02  0.71938692393E+02  0.10073108199E+02  0.73616850550E+02  0.47000000000E+01 0. -1.
        -11    1    4    4    0    0 -0.49932432660E+02 -0.29593949670E+01 -0.47007939897E+02  0.68642204679E+02  0.00000000000E+00 0.  1.
         12    1    4    4    0    0 -0.20808340815E+02 -0.27642509112E+02  0.27798481506E+02  0.44383002732E+02  0.00000000000E+00 0. -1.
         -5    1    5    5    0  502  0.53554343099E+02 -0.63827555052E+02 -0.94403847556E+02  0.12600079715E+03  0.47000000000E+01 0.  1.
         11    1    6    6    0    0  0.30885811044E+02  0.42653468501E+02 -0.37938449908E+01  0.52798152987E+02  0.00000000000E+00 0. -1.
        -12    1    6    6    0    0 -0.24686086860E+02 -0.20162701762E+02 -0.94559390420E+00  0.31887796641E+02  0.00000000000E+00 0.  1.
</event>
<event>
12    1  0.1050869E+000  0.2037721E+03  0.7818608E-02  0.1146895E+00
         21   -1    0    0  503  502  0.00000000000E+00  0.00000000000E+00  0.63118555818E+02  0.63118555818E+02  0.00000000000E+00 0. -1.
         21   -1    0    0  501  503 -0.00000000000E+00 -0.00000000000E+00 -0.10476869605E+04  0.10476869605E+04  0.00000000000E+00 0. -1.
          6    2    1    2  501    0  0.10486318482E+03  0.24170996686E+02 -0.83200212860E+03  0.85624799507E+03  0.17132589544E+03 0.  0.
         24    2    3    3    0    0  0.34376282485E+02  0.69839298299E+02 -0.57808896612E+03  0.58876345111E+03  0.79976823097E+02 0.  0.
         -6    2    1    2    0  502 -0.10486318482E+03 -0.24170996686E+02 -0.15256627609E+03  0.25455752126E+03  0.17303912396E+03 0.  0.
        -24    2    5    5    0    0 -0.10787828293E+03  0.19165893029E+02 -0.16131972714E+03  0.20999419854E+03  0.77900280322E+02 0.  0.
          5    1    3    3  501    0  0.70486902334E+02 -0.45668301613E+02 -0.25391316248E+03  0.26748454395E+03  0.47000000000E+01 0. -1.
        -11    1    4    4    0    0  0.34644782774E+02 -0.65022105437E+01 -0.17849110073E+03  0.18193848618E+03  0.00000000000E+00 0.  1.
         12    1    4    4    0    0 -0.26850028911E+00  0.76341508842E+02 -0.39959786539E+03  0.40682496493E+03  0.00000000000E+00 0. -1.
         -5    1    5    5    0  502  0.30150981114E+01 -0.43336889715E+02  0.87534510442E+01  0.44563322721E+02  0.47000000000E+01 0.  1.
         13    1    6    6    0    0  0.56688998948E+01  0.17331158588E+02 -0.99860957782E+01  0.20790084004E+02  0.00000000000E+00 0. -1.
        -14    1    6    6    0    0 -0.11354718283E+03  0.18347344413E+01 -0.15133363136E+03  0.18920411454E+03  0.00000000000E+00 0.  1.
</event>
<event>
12    1  0.1050869E+000  0.3171528E+03  0.7818608E-02  0.1077037E+00
         21   -1    0    0  501  502  0.00000000000E+00  0.00000000000E+00  0.78808254817E+02  0.78808254817E+02  0.00000000000E+00 0.  1.
         21   -1    0    0  502  503 -0.00000000000E+00 -0.00000000000E+00 -0.14878458864E+04  0.14878458864E+04  0.00000000000E+00 0.  1.
         -6    2    1    2    0  503 -0.88311010732E+02 -0.25076872193E+03 -0.10021249050E+04  0.10511138146E+04  0.17292235124E+03 0.  0.
        -24    2    3    3    0    0 -0.23977805127E+02 -0.35827040318E+02 -0.33100389484E+03  0.34346687715E+03  0.80916038851E+02 0.  0.
          6    2    1    2  501    0  0.88311010732E+02  0.25076872193E+03 -0.40691272662E+03  0.51554032662E+03  0.17181407038E+03 0.  0.
         24    2    5    5    0    0  0.11006132951E+03  0.24474318367E+03 -0.31648577632E+03  0.42222094590E+03  0.78067652328E+02 0.  0.
          5    1    5    5  501    0 -0.21750318775E+02  0.60255382570E+01 -0.90426950297E+02  0.93319380721E+02  0.47000000000E+01 0. -1.
        -11    1    6    6    0    0  0.50136657658E+02  0.35677464344E+02 -0.80105663938E+02  0.10101229281E+03  0.00000000000E+00 0.  1.
         12    1    6    6    0    0  0.59924671849E+02  0.20906571933E+03 -0.23638011238E+03  0.32120865310E+03  0.00000000000E+00 0. -1.
         -5    1    3    3    0  503 -0.64333205605E+02 -0.21494168161E+03 -0.67112101012E+03  0.70764693743E+03  0.47000000000E+01 0.  1.
         11    1    4    4    0    0 -0.48081086108E+02 -0.44381208326E+02 -0.21819366175E+03  0.22779367094E+03  0.00000000000E+00 0. -1.
        -12    1    4    4    0    0  0.24103280982E+02  0.85541680076E+01 -0.11281023309E+03  0.11567320621E+03  0.00000000000E+00 0.  1.
</event>
<event>
12    1  0.1050869E+000  0.2298902E+03  0.7818608E-02  0.1126995E+00
         21   -1    0    0  503  502  0.00000000000E+00  0.00000000000E+00  0.50818245403E+03  0.50818245403E+03  0.00000000000E+00 0.  1.
         21   -1    0    0  501  503 -0.00000000000E+00 -0.00000000000E+00 -0.10827129755E+03  0.10827129755E+03  0.00000000000E+00 0.  1.
          6    2    1    2  501    0  0.80614712636E+01  0.15062200105E+03  0.26674160235E+03  0.35213715154E+03  0.17348635841E+03 0.  0.
         24    2    3    3    0    0 -0.57417856202E+02  0.81946892810E+02  0.10857098873E+03  0.16762740701E+03  0.79367402208E+02 0.  0.
         -6    2    1    2    0  502 -0.80614712636E+01 -0.15062200105E+03  0.13316955413E+03  0.26431660004E+03  0.17139766740E+03 0.  0.
        -24    2    5    5    0    0  0.60718773687E+02 -0.10887367932E+03  0.83635540926E+02  0.16971558035E+03  0.79172135124E+02 0.  0.
          5    1    3    3  501    0  0.65479327466E+02  0.68675108239E+02  0.15817061361E+03  0.18450974453E+03  0.47000000000E+01 0. -1.
        -11    1    4    4    0    0  0.14034144131E+02  0.26570820786E+02  0.55314241777E+01  0.30554252931E+02  0.00000000000E+00 0.  1.
         12    1    4    4    0    0 -0.71452000333E+02  0.55376072023E+02  0.10303956456E+03  0.13707315408E+03  0.00000000000E+00 0. -1.
         -5    1    5    5    0  502 -0.68780244950E+02 -0.41748321726E+02  0.49534013209E+02  0.94601019692E+02  0.47000000000E+01 0.  1.
         11    1    6    6    0    0  0.36476617900E+02 -0.94641235149E+02  0.24658797234E+02  0.10438181511E+03  0.00000000000E+00 0. -1.
        -12    1    6    6    0    0  0.24242155787E+02 -0.14232444174E+02  0.58976743692E+02  0.65333765243E+02  0.00000000000E+00 0.  1.
</event>
<event>
12    1  0.1050869E+000  0.1913619E+03  0.7818608E-02  0.1157516E+00
         21   -1    0    0  501  502  0.00000000000E+00  0.00000000000E+00  0.64670425761E+03  0.64670425761E+03  0.00000000000E+00 0.  1.
         21   -1    0    0  502  503 -0.00000000000E+00 -0.00000000000E+00 -0.13547633282E+03  0.13547633282E+03  0.00000000000E+00 0.  1.
         -6    2    1    2    0  503 -0.33528842400E+02 -0.77451424733E+02  0.55432693112E+03  0.58602525508E+03  0.17036533263E+03 0.  0.
        -24    2    3    3    0    0 -0.14452775667E+02 -0.10423530186E+03  0.52343733947E+03  0.54066525874E+03  0.85196201667E+02 0.  0.
          6    2    1    2  501    0  0.33528842400E+02  0.77451424733E+02 -0.43099006319E+02  0.19615533535E+03  0.17174540686E+03 0.  0.
         24    2    5    5    0    0  0.24424714719E+02  0.24588843886E+02 -0.86836867162E+02  0.12678366919E+03  0.85628729660E+02 0.  0.
          5    1    5    5  501    0  0.91041276812E+01  0.52862580847E+02  0.43737860843E+02  0.69371666160E+02  0.47000000000E+01 0. -1.
        -13    1    6    6    0    0  0.42208859508E+01 -0.31786601828E+02 -0.24612870740E+02  0.40422732961E+02  0.00000000000E+00 0.  1.
         14    1    6    6    0    0  0.20203828768E+02  0.56375445714E+02 -0.62223996422E+02  0.86360936233E+02  0.00000000000E+00 0. -1.
         -5    1    3    3    0  503 -0.19076066733E+02  0.26783877125E+02  0.30889591650E+02  0.45359996342E+02  0.47000000000E+01 0.  1.
         11    1    4    4    0    0  0.11646242213E+02 -0.43051691154E+02  0.74519152542E+02  0.86845766532E+02  0.00000000000E+00 0. -1.
        -12    1    4    4    0    0 -0.26099017881E+02 -0.61183610705E+02  0.44891818692E+03  0.45381949220E+03  0.00000000000E+00 0.  1.
</event>
<event>
12    1  0.1050869E+000  0.1907032E+03  0.7818608E-02  0.1157961E+00
         21   -1    0    0  501  502  0.00000000000E+00  0.00000000000E+00  0.54530579270E+02  0.54530579270E+02  0.00000000000E+00 0.  1.
         21   -1    0    0  502  503 -0.00000000000E+00 -0.00000000000E+00 -0.13813676327E+04  0.13813676327E+04  0.00000000000E+00 0. -1.
         -6    2    1    2    0  503  0.32094318966E+02 -0.75615546677E+02 -0.14585983596E+03  0.23962278514E+03  0.17145329161E+03 0.  0.
        -24    2    3    3    0    0 -0.15519072326E+02 -0.60495292196E+02 -0.15862953321E+03  0.18784622390E+03  0.78881893006E+02 0.  0.
          6    2    1    2  501    0 -0.32094318966E+02  0.75615546677E+02 -0.11809772175E+04  0.11962754268E+04  0.17210448116E+03 0.  0.
         24    2    5    5    0    0  0.63299575064E+01 -0.24300342660E+01 -0.84233686865E+03  0.84660856598E+03  0.84668118387E+02 0.  0.
          5    1    5    5  501    0 -0.38424276472E+02  0.78045580943E+02 -0.33864034883E+03  0.34966686086E+03  0.47000000000E+01 0. -1.
        -11    1    6    6    0    0 -0.23109583298E+02  0.21987520798E+02 -0.15713282171E+03  0.16033785445E+03  0.00000000000E+00 0.  1.
         12    1    6    6    0    0  0.29439540804E+02 -0.24417555064E+02 -0.68520404694E+03  0.68627071152E+03  0.00000000000E+00 0. -1.
         -5    1    3    3    0  503  0.47613391292E+02 -0.15120254481E+02  0.12769697252E+02  0.51776561239E+02  0.47000000000E+01 0.  1.
         13    1    4    4    0    0 -0.37964264516E+02 -0.21406406665E+02 -0.33879487609E+02  0.55202711050E+02  0.00000000000E+00 0. -1.
        -14    1    4    4    0    0  0.22445192190E+02 -0.39088885531E+02 -0.12475004560E+03  0.13264351285E+03  0.00000000000E+00 0.  1.
</event>
<event>
12    1  0.1050869E+000  0.2288174E+03  0.7818608E-02  0.1127695E+00
         21   -1    0    0  503  502  0.00000000000E+00  0.00000000000E+00  0.82871361821E+03  0.82871361821E+03  0.00000000000E+00 0. -1.
         21   -1    0    0  501  503 -0.00000000000E+00 -0.00000000000E+00 -0.65203151951E+02  0.65203151951E+02  0.00000000000E+00 0. -1.
          6    2    1    2  501    0 -0.11063486181E+03  0.99345889829E+02  0.29762023515E+03  0.37541338727E+03  0.17391874106E+03 0.  0.
         24    2    3    3    0    0 -0.13202972900E+03  0.39504623085E+02  0.16532151211E+03  0.22856734658E+03  0.76937409426E+02 0.  0.
         -6    2    1    2    0  502  0.11063486181E+03 -0.99345889829E+02  0.46589023110E+03  0.51850338289E+03  0.17228572825E+03 0.  0.
        -24    2    5    5    0    0  0.77842992678E+02 -0.32024782408E+01  0.32633899101E+03  0.34583172660E+03  0.83860948587E+02 0.  0.
          5    1    3    3  501    0  0.21394867190E+02  0.59841266744E+02  0.13229872304E+03  0.14684604069E+03  0.47000000000E+01 0. -1.
        -13    1    4    4    0    0 -0.29513772210E+02  0.36388894844E+02  0.89495419117E+02  0.10101804027E+03  0.00000000000E+00 0.  1.
         14    1    4    4    0    0 -0.10251595679E+03  0.31157282408E+01  0.75826092994E+02  0.12754930630E+03  0.00000000000E+00 0. -1.
         -5    1    5    5    0  502  0.32791869133E+02 -0.96143411589E+02  0.13955124010E+03  0.17267165629E+03  0.47000000000E+01 0.  1.
         13    1    6    6    0    0 -0.11849808386E+02  0.75909270575E+01  0.11684188871E+03  0.11768630799E+03  0.00000000000E+00 0. -1.
        -14    1    6    6    0    0  0.89692801065E+02 -0.10793405298E+02  0.20949710230E+03  0.22814541861E+03  0.00000000000E+00 0.  1.
</event>
<event>
12    1  0.1050869E+000  0.2098905E+03  0.7818608E-02  0.1142108E+00
         21   -1    0    0  501  502  0.00000000000E+00  0.00000000000E+00  0.13487085058E+03  0.13487085058E+03  0.00000000000E+00 0.  1.
         21   -1    0    0  502  503 -0.00000000000E+00 -0.00000000000E+00 -0.49601037089E+03  0.49601037089E+03  0.00000000000E+00 0.  1.
         -6    2    1    2    0  503 -0.53555253342E+02  0.10245135375E+03 -0.36617149976E+03  0.42093040776E+03  0.17244244227E+03 0.  0.
        -24    2    3    3    0    0  0.91350174591E+01  0.89724955801E+02 -0.13746886547E+03  0.18340353309E+03  0.81272078481E+02 0.  0.
          6    2    1    2  501    0  0.53555253342E+02 -0.10245135375E+03  0.50319794495E+01  0.20995081370E+03  0.17518441229E+03 0.  0.
         24    2    5    5    0    0  0.45830677643E+02 -0.11004017346E+03 -0.48172568230E+02  0.15545243622E+03  0.87381764729E+02 0.  0.
          5    1    5    5  501    0  0.77245756993E+01  0.75888197137E+01  0.53204547680E+02  0.54498377482E+02  0.47000000000E+01 0. -1.
        -11    1    6    6    0    0  0.61868061719E+02 -0.38242817742E+02 -0.12907157533E+02  0.73869918677E+02  0.00000000000E+00 0.  1.
         12    1    6    6    0    0 -0.16037384077E+02 -0.71797355723E+02 -0.35265410697E+02  0.81582517542E+02  0.00000000000E+00 0. -1.
         -5    1    3    3    0  503 -0.62690270801E+02  0.12726397949E+02 -0.22870263429E+03  0.23752687467E+03  0.47000000000E+01 0.  1.
         11    1    4    4    0    0  0.21953057619E+02 -0.74122663134E+01 -0.31148873919E+02  0.38821782251E+02  0.00000000000E+00 0. -1.
        -12    1    4    4    0    0 -0.12818040160E+02  0.97137222115E+02 -0.10631999155E+03  0.14458175084E+03  0.00000000000E+00 0.  1.
</event>
<event>
12    1  0.1050869E+000  0.2453944E+03  0.7818608E-02  0.1116292E+00
         21   -1    0    0  501  502  0.00000000000E+00  0.00000000000E+00  0.22123409566E+03  0.22123409566E+03  0.00000000000E+00 0.  1.
         21   -1    0    0  502  503 -0.00000000000E+00 -0.00000000000E+00 -0.45622767074E+03  0.45622767074E+03  0.00000000000E+00 0.  1.
         -6    2    1    2    0  503  0.13607608462E+03  0.10811587687E+03  0.97843028161E+02  0.26394198434E+03  0.17287674597E+03 0.  0.
        -24    2    3    3    0    0  0.52216046316E+02  0.12206170515E+03  0.85761843395E+02  0.17794758233E+03  0.81759849063E+02 0.  0.
          6    2    1    2  501    0 -0.13607608462E+03 -0.10811587687E+03 -0.33283660325E+03  0.41351978207E+03  0.17324162912E+03 0.  0.
         24    2    5    5    0    0 -0.90778196442E+02 -0.38735156573E+02 -0.29621102475E+03  0.32280536192E+03  0.81983151907E+02 0.  0.
          5    1    5    5  501    0 -0.45297888180E+02 -0.69380720299E+02 -0.36625578502E+02  0.90714420151E+02  0.47000000000E+01 0. -1.
        -13    1    6    6    0    0 -0.37127165332E+02 -0.40908128604E+02 -0.23488616969E+03  0.24129528405E+03  0.00000000000E+00 0.  1.
         14    1    6    6    0    0 -0.53651031110E+02  0.21729720312E+01 -0.61324855056E+02  0.81510077869E+02  0.00000000000E+00 0. -1.
         -5    1    3    3    0  503  0.83860038306E+02 -0.13945828274E+02  0.12081184766E+02  0.85994402005E+02  0.47000000000E+01 0.  1.
         11    1    4    4    0    0  0.29126242955E+02 -0.11726061648E+01  0.73283025533E+01  0.30056896916E+02  0.00000000000E+00 0. -1.
        -12    1    4    4    0    0  0.23089803360E+02  0.12323431131E+03  0.78433540842E+02  0.14789068541E+03  0.00000000000E+00 0.  1.
</event>
<event>
12    1  0.1050869E+000  0.5139202E+03  0.7818608E-02  0.1010247E+00
         21   -1    0    0  501  502  0.00000000000E+00  0.00000000000E+00  0.78488643745E+03  0.78488643745E+03  0.00000000000E+00 0. -1.
         21   -1    0    0  502  503 -0.00000000000E+00 -0.00000000000E+00 -0.34050696958E+03  0.34050696958E+03  0.00000000000E+00 0. -1.
         -6    2    1    2    0  503  0.23836966442E+03  0.42077469303E+03  0.28613020760E+03  0.58766037505E+03  0.17205458868E+03 0.  0.
        -24    2    3    3    0    0  0.21805967780E+03  0.26278107268E+03  0.16667250729E+03  0.38849533848E+03  0.80901100663E+02 0.  0.
          6    2    1    2  501    0 -0.23836966442E+03 -0.42077469303E+03  0.15824926027E+03  0.53773303199E+03  0.17390384156E+03 0.  0.
         24    2    5    5    0    0 -0.14260285540E+03 -0.24984507732E+03  0.22262135273E+02  0.29918994700E+03  0.79125752347E+02 0.  0.
          5    1    5    5  501    0 -0.95766809019E+02 -0.17092961571E+03  0.13598712500E+03  0.23854308500E+03  0.47000000000E+01 0. -1.
        -11    1    6    6    0    0 -0.10343307418E+03 -0.10212486969E+03  0.16061289721E+02  0.14623903334E+03  0.00000000000E+00 0.  1.
         12    1    6    6    0    0 -0.39169781225E+02 -0.14772020763E+03  0.62008455520E+01  0.15295091366E+03  0.00000000000E+00 0. -1.
         -5    1    3    3    0  503  0.20309986617E+02  0.15799362035E+03  0.11945770031E+03  0.19916503657E+03  0.47000000000E+01 0.  1.
         11    1    4    4    0    0  0.25221697359E+01 -0.29465491285E+01 -0.44786565067E+01  0.59246819364E+01  0.00000000000E+00 0. -1.
        -12    1    4    4    0    0  0.21553750807E+03  0.26572762181E+03  0.17115116380E+03  0.38257065654E+03  0.00000000000E+00 0.  1.
</event>
<event>
12    1  0.1050869E+000  0.1979418E+03  0.7818608E-02  0.1151693E+00
         21   -1    0    0  503  502  0.00000000000E+00  0.00000000000E+00  0.95415020483E+02  0.95415020483E+02  0.00000000000E+00 0. -1.
         21   -1    0    0  501  503 -0.00000000000E+00 -0.00000000000E+00 -0.50488144317E+03  0.50488144317E+03  0.00000000000E+00 0.  1.
          6    2    1    2  501    0  0.95465503762E+02 -0.63961222649E+01 -0.33617997040E+03  0.39012553837E+03  0.17328124654E+03 0.  0.
         24    2    3    3    0    0  0.32057076613E+02  0.62787731684E+01 -0.30725001309E+03  0.31913036926E+03  0.79840734488E+02 0.  0.
         -6    2    1    2    0  502 -0.95465503762E+02  0.63961222649E+01 -0.73286452287E+02  0.21017092528E+03  0.17218112834E+03 0.  0.
        -24    2    5    5    0    0 -0.13145545872E+03  0.14251348191E+02 -0.36552016419E+02  0.15793597328E+03  0.78256521758E+02 0.  0.
          5    1    3    3  501    0  0.63408427149E+02 -0.12674895433E+02 -0.28929957308E+02  0.70995169115E+02  0.47000000000E+01 0. -1.
        -13    1    4    4    0    0  0.57590260115E+02 -0.32851953235E+00 -0.24185160756E+03  0.24861405042E+03  0.00000000000E+00 0.  1.
         14    1    4    4    0    0 -0.25533183503E+02  0.66072927008E+01 -0.65398405529E+02  0.70516318837E+02  0.00000000000E+00 0. -1.
         -5    1    5    5    0  502  0.35989954959E+02 -0.78552259259E+01 -0.36734435868E+02  0.52234952004E+02  0.47000000000E+01 0.  1.
         11    1    6    6    0    0 -0.11175235642E+03  0.95221276368E+00  0.29925692353E+01  0.11179647287E+03  0.00000000000E+00 0. -1.
        -12    1    6    6    0    0 -0.19703102297E+02  0.13299135427E+02 -0.39544585654E+02  0.46139500407E+02  0.00000000000E+00 0.  1.
</event>
<event>
12    1  0.1050869E+000  0.2317932E+03  0.7818608E-02  0.1125510E+00
         21   -1    0    0  501  502  0.00000000000E+00  0.00000000000E+00  0.86987556990E+02  0.86987556990E+02  0.00000000000E+00 0. -1.
         21   -1    0    0  502  503 -0.00000000000E+00 -0.00000000000E+00 -0.66721162305E+03  0.66721162305E+03  0.00000000000E+00 0. -1.
         -6    2    1    2    0  503 -0.28725221862E+02  0.15190038070E+03 -0.18577562163E+03  0.29705334817E+03  0.17271145313E+03 0.  0.
        -24    2    3    3    0    0 -0.53277480991E+02  0.97802788422E+02 -0.19301860239E+03  0.23702074296E+03  0.80738939307E+02 0.  0.
          6    2    1    2  501    0  0.28725221862E+02 -0.15190038070E+03 -0.39444844443E+03  0.45714583186E+03  0.17173780088E+03 0.  0.
         24    2    5    5    0    0  0.45857766983E+01 -0.17519010113E+03 -0.36221442502E+03  0.41038852337E+03  0.80665045339E+02 0.  0.
          5    1    5    5  501    0  0.24139445164E+02  0.23289720427E+02 -0.32234019407E+02  0.46757308493E+02  0.47000000000E+01 0. -1.
        -13    1    6    6    0    0 -0.28093612390E+02 -0.20412289577E+02 -0.66558508192E+02  0.75072948761E+02  0.00000000000E+00 0.  1.
         14    1    6    6    0    0  0.32679389089E+02 -0.15477781155E+03 -0.29565591683E+03  0.33531557461E+03  0.00000000000E+00 0. -1.
         -5    1    3    3    0  503  0.24552259129E+02  0.54097592277E+02  0.72429807624E+01  0.60032605215E+02  0.47000000000E+01 0.  1.
         13    1    4    4    0    0  0.18830108028E+02  0.39615481702E+02 -0.76134424291E+02  0.87865863229E+02  0.00000000000E+00 0. -1.
        -14    1    4    4    0    0 -0.72107589020E+02  0.58187306720E+02 -0.11688417810E+03  0.14915487973E+03  0.00000000000E+00 0.  1.
</event>
<event>
12    1  0.1050869E+000  0.1980088E+03  0.7818608E-02  0.1153029E+00
         21   -1    0    0  501  502  0.00000000000E+00  0.00000000000E+00  0.38831164398E+02  0.38831164398E+02  0.00000000000E+00 0. -1.
         21   -1    0    0  502  503 -0.00000000000E+00 -0.00000000000E+00 -0.99598683449E+03  0.99598683449E+03  0.00000000000E+00 0. -1.
         -6    2    1    2    0  503 -0.21782995565E+02  0.98309204025E+02 -0.39055192830E+03  0.43461195073E+03  0.16191831437E+03 0.  0.
        -24    2    3    3    0    0 -0.51561622538E+02  0.44242529220E+02 -0.11613056230E+03  0.15329513988E+03  0.73464890262E+02 0.  0.
          6    2    1    2  501    0  0.21782995565E+02 -0.98309204025E+02 -0.56660374180E+03  0.60020604816E+03  0.17049428594E+03 0.  0.
         24    2    5    5    0    0 -0.39213600155E+02 -0.13200882550E+02 -0.21886845951E+03  0.23701749160E+03  0.81005672736E+02 0.  0.
          5    1    5    5  501    0  0.60996595720E+02 -0.85108321475E+02 -0.34773528229E+03  0.36318855657E+03  0.47000000000E+01 0. -1.
        -11    1    6    6    0    0 -0.96729802323E+01 -0.13492149316E+01  0.49484165635E+01  0.10948687318E+02  0.00000000000E+00 0.  1.
         12    1    6    6    0    0 -0.29540619922E+02 -0.11851667619E+02 -0.22381687608E+03  0.22606880428E+03  0.00000000000E+00 0. -1.
         -5    1    3    3    0  503  0.29778626972E+02  0.54066674805E+02 -0.27442136600E+03  0.28131681085E+03  0.47000000000E+01 0.  1.
         13    1    4    4    0    0 -0.69525030159E+01 -0.18926221425E+02 -0.39910288979E+02  0.44714318982E+02  0.00000000000E+00 0. -1.
        -14    1    4    4    0    0 -0.44609119522E+02  0.63168750645E+02 -0.76220273317E+02  0.10858082090E+03  0.00000000000E+00 0.  1.
</event>
<event>
12    1  0.1050869E+000  0.2418831E+03  0.7818608E-02  0.1118554E+00
         21   -1    0    0  501  502  0.00000000000E+00  0.00000000000E+00  0.12527572650E+03  0.12527572650E+03  0.00000000000E+00 0.  1.
         21   -1    0    0  502  503 -0.00000000000E+00 -0.00000000000E+00 -0.50342032504E+03  0.50342032504E+03  0.00000000000E+00 0. -1.
         -6    2    1    2    0  503 -0.16961099170E+03  0.82416950004E+01 -0.27369167797E+03  0.36522341924E+03  0.17217780732E+03 0.  0.
        -24    2    3    3    0    0 -0.10379756753E+03  0.67878605124E+02 -0.21149788888E+03  0.25669634773E+03  0.76027744133E+02 0.  0.
          6    2    1    2  501    0  0.16961099170E+03 -0.82416950004E+01 -0.10445292057E+03  0.26347263229E+03  0.17225446673E+03 0.  0.
         24    2    5    5    0    0  0.18357188248E+03  0.22600160103E+02 -0.10931614602E+03  0.22894919881E+03  0.79109497400E+02 0.  0.
          5    1    5    5  501    0 -0.13960890783E+02 -0.30841855104E+02  0.48632254449E+01  0.34523433483E+02  0.47000000000E+01 0. -1.
        -11    1    6    6    0    0  0.35227651752E+02 -0.84970736739E+01  0.82070799982E+01  0.37155670780E+02  0.00000000000E+00 0.  1.
         12    1    6    6    0    0  0.14834423073E+03  0.31097233777E+02 -0.11752322602E+03  0.19179352803E+03  0.00000000000E+00 0. -1.
         -5    1    3    3    0  503 -0.65813424172E+02 -0.59636910123E+02 -0.62193789084E+02  0.10852707151E+03  0.47000000000E+01 0.  1.
         13    1    4    4    0    0 -0.14592793388E+02 -0.68086403386E+01 -0.77872881927E+02  0.79520393244E+02  0.00000000000E+00 0. -1.
        -14    1    4    4    0    0 -0.89204774141E+02  0.74687245462E+02 -0.13362500696E+03  0.17717595449E+03  0.00000000000E+00 0.  1.
</event>
<event>
12    1  0.1050869E+000  0.1952795E+03  0.7818608E-02  0.1154097E+00
         21   -1    0    0  501  502  0.00000000000E+00  0.00000000000E+00  0.69211601192E+03  0.69211601192E+03  0.00000000000E+00 0. -1.
         21   -1    0    0  502  503 -0.00000000000E+00 -0.00000000000E+00 -0.56361411369E+02  0.56361411369E+02  0.00000000000E+00 0. -1.
         -6    2    1    2    0  503  0.37883541880E+02  0.81808886982E+02  0.38111327622E+03  0.42757821171E+03  0.17160402409E+03 0.  0.
        -24    2    3    3    0    0 -0.26534718634E+02 -0.11373090465E+02  0.18914083426E+03  0.20462507386E+03  0.72551548467E+02 0.  0.
          6    2    1    2  501    0 -0.37883541880E+02 -0.81808886982E+02  0.25464132433E+03  0.32089921158E+03  0.17322310238E+03 0.  0.
         24    2    5    5    0    0  0.10829011333E+02 -0.10466278609E+02  0.41683699951E+02  0.91038992333E+02  0.79522052344E+02 0.  0.
          5    1    5    5  501    0 -0.48712553213E+02 -0.71342608372E+02  0.21295762438E+03  0.22986021925E+03  0.47000000000E+01 0. -1.
        -13    1    6    6    0    0 -0.25658900061E+02 -0.22781800629E+01  0.46675416904E+02  0.53311948004E+02  0.00000000000E+00 0.  1.
         14    1    6    6    0    0  0.36487911393E+02 -0.81880985464E+01 -0.49917169537E+01  0.37727044329E+02  0.00000000000E+00 0. -1.
         -5    1    3    3    0  503  0.64418260515E+02  0.93181977447E+02  0.19197244196E+03  0.22295313786E+03  0.47000000000E+01 0.  1.
         13    1    4    4    0    0 -0.43528485251E+02  0.12567079850E+02  0.14235436326E+03  0.14939017793E+03  0.00000000000E+00 0. -1.
        -14    1    4    4    0    0  0.16993766616E+02 -0.23940170315E+02  0.46786471004E+02  0.55234895922E+02  0.00000000000E+00 0.  1.
</event>
<event>
12    1  0.1050869E+000  0.1876260E+03  0.7818608E-02  0.1160970E+00
         21   -1    0    0  503  502  0.00000000000E+00  0.00000000000E+00  0.36950165997E+03  0.36950165997E+03  0.00000000000E+00 0.  1.
         21   -1    0    0  501  503 -0.00000000000E+00 -0.00000000000E+00 -0.10244666570E+03  0.10244666570E+03  0.00000000000E+00 0.  1.
          6    2    1    2  501    0  0.61070649355E+02  0.41813532831E+02  0.19873593105E+03  0.27227102501E+03  0.17075580526E+03 0.  0.
         24    2    3    3    0    0  0.69513198716E+02 -0.29321862961E+02  0.11006122709E+03  0.15817977076E+03  0.84944156517E+02 0.  0.
         -6    2    1    2    0  502 -0.61070649355E+02 -0.41813532831E+02  0.68319063224E+02  0.19967730065E+03  0.17241094587E+03 0.  0.
        -24    2    5    5    0    0 -0.92152615393E+02  0.11207747652E+02  0.65058324910E+02  0.13795155877E+03  0.78615067227E+02 0.  0.
          5    1    3    3  501    0 -0.84425493611E+01  0.71135395793E+02  0.88674703960E+02  0.11409125425E+03  0.47000000000E+01 0. -1.
        -11    1    4    4    0    0 -0.14632675088E+02 -0.24229831745E+02  0.19013577514E+02  0.34098622502E+02  0.00000000000E+00 0.  1.
         12    1    4    4    0    0  0.84145873804E+02 -0.50920312164E+01  0.91047649571E+02  0.12408114826E+03  0.00000000000E+00 0. -1.
         -5    1    5    5    0  502  0.31081966039E+02 -0.53021280483E+02  0.32607383137E+01  0.61725741885E+02  0.47000000000E+01 0.  1.
         11    1    6    6    0    0  0.42493003081E+01 -0.10910834202E+02  0.31338850437E+02  0.33454841246E+02  0.00000000000E+00 0. -1.
        -12    1    6    6    0    0 -0.96401915701E+02  0.22118581854E+02  0.33719474473E+02  0.10449671752E+03  0.00000000000E+00 0.  1.
</event>
<event>
12    1  0.1050869E+000  0.1736698E+03  0.7818608E-02  0.1174437E+00
         21   -1    0    0  501  502  0.00000000000E+00  0.00000000000E+00  0.38439057079E+03  0.38439057079E+03  0.00000000000E+00 0.  1.
         21   -1    0    0  502  503 -0.00000000000E+00 -0.00000000000E+00 -0.93993427689E+02  0.93993427689E+02  0.00000000000E+00 0.  1.
         -6    2    1    2    0  503  0.19021296156E+02  0.94998977162E+01  0.24391625109E+03  0.29860167982E+03  0.17092620596E+03 0.  0.
        -24    2    3    3    0    0 -0.24329659471E+02 -0.53248044454E+02  0.16355207008E+03  0.18770938437E+03  0.71121352545E+02 0.  0.
          6    2    1    2  501    0 -0.19021296156E+02 -0.94998977162E+01  0.46480892010E+02  0.17978231865E+03  0.17236342714E+03 0.  0.
         24    2    5    5    0    0  0.19774517540E+02  0.53404974097E+02  0.16962260007E+02  0.10006044152E+03  0.80506216471E+02 0.  0.
          5    1    5    5  501    0 -0.38795813696E+02 -0.62904871813E+02  0.29518632003E+02  0.79721877132E+02  0.47000000000E+01 0. -1.
        -11    1    6    6    0    0  0.44279540651E+02  0.74975389663E+01 -0.12499780888E+01  0.44927199512E+02  0.00000000000E+00 0.  1.
         12    1    6    6    0    0 -0.24505023111E+02  0.45907435130E+02  0.18212238096E+02  0.55133242009E+02  0.00000000000E+00 0. -1.
         -5    1    3    3    0  503  0.43350955627E+02  0.62747942170E+02  0.80364181014E+02  0.11089229545E+03  0.47000000000E+01 0.  1.
         13    1    4    4    0    0  0.18553487941E+02  0.46276110024E+01  0.24214538227E+02  0.30854344263E+02  0.00000000000E+00 0. -1.
        -14    1    4    4    0    0 -0.42883147412E+02 -0.57875655456E+02  0.13933753185E+03  0.15685504011E+03  0.00000000000E+00 0.  1.
</event>
<event>
12    1  0.1050869E+000  0.1940809E+03  0.7818608E-02  0.1155290E+00
         21   -1    0    0  501  502  0.00000000000E+00  0.00000000000E+00  0.71252184481E+03  0.71252184481E+03  0.00000000000E+00 0. -1.
         21   -1    0    0  502  503 -0.00000000000E+00 -0.00000000000E+00 -0.53431955934E+02  0.53431955934E+02  0.00000000000E+00 0. -1.
         -6    2    1    2    0  503 -0.88615669734E+02  0.20303552714E+01  0.38703530818E+03  0.43297082067E+03  0.17265729786E+03 0.  0.
        -24    2    3    3    0    0 -0.11313431007E+03 -0.11602994502E+02  0.19907111218E+03  0.24286647845E+03  0.80130000958E+02 0.  0.
          6    2    1    2  501    0  0.88615669734E+02 -0.20303552714E+01  0.27205458070E+03  0.33298298008E+03  0.17031474064E+03 0.  0.
         24    2    5    5    0    0  0.11671541822E+03 -0.79802839685E+01  0.26812518787E+03  0.30361415912E+03  0.81266644238E+02 0.  0.
          5    1    5    5  501    0 -0.28099748489E+02  0.59499286971E+01  0.39293928293E+01  0.29368820961E+02  0.47000000000E+01 0. -1.
        -11    1    6    6    0    0 -0.11903909641E+02  0.51641450400E+01  0.29129133172E+02  0.31888522357E+02  0.00000000000E+00 0.  1.
         12    1    6    6    0    0  0.12861932786E+03 -0.13144429008E+02  0.23899605470E+03  0.27172563676E+03  0.00000000000E+00 0. -1.
         -5    1    3    3    0  503  0.24518640340E+02  0.13633349773E+02  0.18796419600E+03  0.19010434222E+03  0.47000000000E+01 0.  1.
         11    1    4    4    0    0 -0.52036061009E+02  0.10463579650E+02  0.15635742295E+03  0.16512080988E+03  0.00000000000E+00 0. -1.
        -12    1    4    4    0    0 -0.61098249065E+02 -0.22066574152E+02  0.42713689227E+02  0.77745668567E+02  0.00000000000E+00 0.  1.
</event>
<event>
12    1  0.1050869E+000  0.2352299E+03  0.7818608E-02  0.1123153E+00
         21   -1    0    0  501  502  0.00000000000E+00  0.00000000000E+00  0.24082325071E+03  0.24082325071E+03  0.00000000000E+00 0.  1.
         21   -1    0    0  502  503 -0.00000000000E+00 -0.00000000000E+00 -0.34480549891E+03  0.34480549891E+03  0.00000000000E+00 0.  1.
         -6    2    1    2    0  503  0.13769586919E+03  0.78965637862E+02  0.11779294720E+03  0.26233735666E+03  0.17248184234E+03 0.  0.
        -24    2    3    3    0    0  0.18302207664E+02  0.75116225710E+02  0.73774287978E+02  0.13494270707E+03  0.82398243027E+02 0.  0.
          6    2    1    2  501    0 -0.13769586919E+03 -0.78965637862E+02 -0.22177519540E+03  0.32329139296E+03  0.17360116104E+03 0.  0.
         24    2    5    5    0    0 -0.99471192705E+02 -0.12283485462E+03 -0.17021367500E+03  0.24540484433E+03  0.79170213946E+02 0.  0.
          5    1    5    5  501    0 -0.38224676481E+02  0.43869216761E+02 -0.51561520393E+02  0.77886548624E+02  0.47000000000E+01 0. -1.
        -13    1    6    6    0    0 -0.96429571146E+02 -0.59502350055E+02 -0.10597108824E+03  0.15514207487E+03  0.00000000000E+00 0.  1.
         14    1    6    6    0    0 -0.30416215589E+01 -0.63332504569E+02 -0.64242586762E+02  0.90262769460E+02  0.00000000000E+00 0. -1.
         -5    1    3    3    0  503  0.11939366152E+03  0.38494121528E+01  0.44018659224E+02  0.12739464960E+03  0.47000000000E+01 0.  1.
         11    1    4    4    0    0  0.90694881030E+01 -0.11528597243E+02 -0.68865545258E+01  0.16204592006E+02  0.00000000000E+00 0. -1.
        -12    1    4    4    0    0  0.92327195607E+01  0.86644822953E+02  0.80660842504E+02  0.11873811506E+03  0.00000000000E+00 0.  1.
</event>
<event>
12    1  0.1050869E+000  0.1960198E+03  0.7818608E-02  0.1153577E+00
         21   -1    0    0  501  502  0.00000000000E+00  0.00000000000E+00  0.45614439373E+02  0.45614439373E+02  0.00000000000E+00 0.  1.
         21   -1    0    0  502  503 -0.00000000000E+00 -0.00000000000E+00 -0.83926535787E+03  0.83926535787E+03  0.00000000000E+00 0.  1.
         -6    2    1    2    0  503  0.38086891937E+02 -0.83908818815E+02 -0.35905359533E+03  0.40812136850E+03  0.17074034642E+03 0.  0.
        -24    2    3    3    0    0  0.58697181230E+02 -0.64938862558E+01 -0.12419879442E+03  0.15993449673E+03  0.81646635368E+02 0.  0.
          6    2    1    2  501    0 -0.38086891937E+02  0.83908818815E+02 -0.43459732317E+03  0.47675842875E+03  0.17301001376E+03 0.  0.
         24    2    5    5    0    0  0.23372444362E+02  0.51124528321E+02 -0.12127383666E+03  0.15575101930E+03  0.79944030434E+02 0.  0.
          5    1    5    5  501    0 -0.61459336299E+02  0.32784290493E+02 -0.31332348651E+03  0.32100740945E+03  0.47000000000E+01 0. -1.
        -11    1    6    6    0    0 -0.21210295173E+02  0.36881939432E+02 -0.89745046590E+02  0.99319320703E+02  0.00000000000E+00 0.  1.
         12    1    6    6    0    0  0.44582739535E+02  0.14242588890E+02 -0.31528790069E+02  0.56431698592E+02  0.00000000000E+00 0. -1.
         -5    1    3    3    0  503 -0.20610289293E+02 -0.77414932559E+02 -0.23485480091E+03  0.24818687177E+03  0.47000000000E+01 0.  1.
         13    1    4    4    0    0  0.37467983295E+02 -0.42478287925E+02 -0.88006458353E+02  0.10465845130E+03  0.00000000000E+00 0. -1.
        -14    1    4    4    0    0  0.21229197935E+02  0.35984401669E+02 -0.36192336065E+02  0.55276045430E+02  0.00000000000E+00 0.  1.
</event>
<event>
12    1  0.1050869E+000  0.2869483E+03  0.7818608E-02  0.1092177E+00
         21   -1    0    0  501  502  0.00000000000E+00  0.00000000000E+00  0.92047308729E+02  0.92047308729E+02  0.00000000000E+00 0. -1.
         21   -1    0    0  502  503 -0.00000000000E+00 -0.00000000000E+00 -0.12705605516E+04  0.12705605516E+04  0.00000000000E+00 0. -1.
         -6    2    1    2    0  503  0.34857997542E+02 -0.22658230479E+03 -0.21725653432E+03  0.35991630927E+03  0.17258252269E+03 0.  0.
        -24    2    3    3    0    0  0.19150116270E+02 -0.24604279013E+03 -0.20650770460E+03  0.33229249049E+03  0.82879947202E+02 0.  0.
          6    2    1    2  501    0 -0.34857997542E+02  0.22658230479E+03 -0.96125670854E+03  0.10026915511E+04  0.16976827148E+03 0.  0.
         24    2    5    5    0    0  0.17975337171E+02  0.21433447353E+03 -0.73394991594E+03  0.76895700378E+03  0.79686983012E+02 0.  0.
          5    1    5    5  501    0 -0.52833334713E+02  0.12247831263E+02 -0.22730679260E+03  0.23373454728E+03  0.47000000000E+01 0. -1.
        -13    1    6    6    0    0  0.53490524347E+01  0.79079984625E+02 -0.15270920731E+03  0.17205335896E+03  0.00000000000E+00 0.  1.
         14    1    6    6    0    0  0.12626284737E+02  0.13525448890E+03 -0.58124070863E+03  0.59690364482E+03  0.00000000000E+00 0. -1.
         -5    1    3    3    0  503  0.15707881272E+02  0.19460485340E+02 -0.10748829721E+02  0.27623818782E+02  0.47000000000E+01 0.  1.
         11    1    4    4    0    0  0.13714785919E+02 -0.17711779423E+02  0.26996997359E+01  0.22563041945E+02  0.00000000000E+00 0. -1.
        -12    1    4    4    0    0  0.54353303507E+01 -0.22833101071E+03 -0.20920740434E+03  0.30972944855E+03  0.00000000000E+00 0.  1.
</event>
<event>
12    1  0.1050869E+000  0.2172279E+03  0.7818608E-02  0.1136608E+00
         21   -1    0    0  501  502  0.00000000000E+00  0.00000000000E+00  0.20420912583E+03  0.20420912583E+03  0.00000000000E+00 0. -1.
         21   -1    0    0  502  503 -0.00000000000E+00 -0.00000000000E+00 -0.27140093637E+03  0.27140093637E+03  0.00000000000E+00 0. -1.
         -6    2    1    2    0  503 -0.10723360645E+03 -0.65612882177E+02 -0.12899668885E+03  0.24976097585E+03  0.17302110467E+03 0.  0.
        -24    2    3    3    0    0 -0.11200318137E+03 -0.94403511670E+02 -0.14188031569E+03  0.21751617732E+03  0.75673824805E+02 0.  0.
          6    2    1    2  501    0  0.10723360645E+03  0.65612882177E+02  0.61804878308E+02  0.22584908635E+03  0.17715493265E+03 0.  0.
         24    2    5    5    0    0  0.11358591990E+03 -0.11855672892E+02  0.57758420178E+02  0.14787349572E+03  0.74082504377E+02 0.  0.
          5    1    5    5  501    0 -0.63523134500E+01  0.77468555070E+02  0.40464581295E+01  0.77975590630E+02  0.47000000000E+01 0. -1.
        -11    1    6    6    0    0  0.59294067312E+02 -0.43210514355E+02  0.33382493763E+02  0.80605991459E+02  0.00000000000E+00 0.  1.
         12    1    6    6    0    0  0.54291852587E+02  0.31354841462E+02  0.24375926415E+02  0.67267504257E+02  0.00000000000E+00 0. -1.
         -5    1    3    3    0  503  0.47695749246E+01  0.28790629493E+02  0.12883626842E+02  0.32244798529E+02  0.47000000000E+01 0.  1.
         13    1    4    4    0    0 -0.56754504794E+02 -0.93757698524E+02 -0.96059738933E+02  0.14573624563E+03  0.00000000000E+00 0. -1.
        -14    1    4    4    0    0 -0.55248676579E+02 -0.64581314681E+00 -0.45820576760E+02  0.71779931687E+02  0.00000000000E+00 0.  1.
</event>
<event>
12    1  0.1050869E+000  0.1977863E+03  0.7818608E-02  0.1152870E+00
         21   -1    0    0  501  502  0.00000000000E+00  0.00000000000E+00  0.24401126436E+03  0.24401126436E+03  0.00000000000E+00 0. -1.
         21   -1    0    0  502  503 -0.00000000000E+00 -0.00000000000E+00 -0.16776067517E+03  0.16776067517E+03  0.00000000000E+00 0. -1.
         -6    2    1    2    0  503 -0.71104543288E+02 -0.68444407500E+02  0.93858919776E+02  0.21892677821E+03  0.17140287163E+03 0.  0.
        -24    2    3    3    0    0 -0.32055439199E+02 -0.11138350645E+03  0.70285258681E+02  0.15610634964E+03  0.77429568768E+02 0.  0.
          6    2    1    2  501    0  0.71104543288E+02  0.68444407500E+02 -0.17608330592E+02  0.19284516132E+03  0.16473830746E+03 0.  0.
         24    2    5    5    0    0  0.27757453926E+02  0.82804685919E+02  0.34734430804E+02  0.12322445734E+03  0.79691241326E+02 0.  0.
          5    1    5    5  501    0  0.43347089363E+02 -0.14360278419E+02 -0.52342761396E+02  0.69620703983E+02  0.47000000000E+01 0. -1.
        -11    1    6    6    0    0  0.26914033286E+02  0.20102920743E+02  0.48525141776E+02  0.59018488582E+02  0.00000000000E+00 0.  1.
         12    1    6    6    0    0  0.84342063964E+00  0.62701765176E+02 -0.13790710973E+02  0.64205968754E+02  0.00000000000E+00 0. -1.
         -5    1    3    3    0  503 -0.39049104089E+02  0.42939098947E+02  0.23573661096E+02  0.62820428572E+02  0.47000000000E+01 0.  1.
         11    1    4    4    0    0 -0.14704740618E+02 -0.96150366740E+02  0.84623780904E+02  0.12892752505E+03  0.00000000000E+00 0. -1.
        -12    1    4    4    0    0 -0.17350698581E+02 -0.15233139708E+02 -0.14338522224E+02  0.27178824591E+02  0.00000000000E+00 0.  1.
</event>
<event>
12    1  0.1050869E+000  0.2064873E+03  0.7818608E-02  0.1145029E+00
         21   -1    0    0  503  502  0.00000000000E+00  0.00000000000E+00  0.10264935955E+03  0.10264935955E+03  0.00000000000E+00 0. -1.
         21   -1    0    0  501  503 -0.00000000000E+00 -0.00000000000E+00 -0.78514710166E+03  0.78514710166E+03  0.00000000000E+00 0. -1.
          6    2    1    2  501    0  0.91725564719E+02 -0.63606896074E+02 -0.64711772919E+03  0.67830008270E+03  0.16991241951E+03 0.  0.
         24    2    3    3    0    0  0.66775044630E+02  0.26554802179E+02 -0.35535463945E+03  0.37186990987E+03  0.82742044834E+02 0.  0.
         -6    2    1    2    0  502 -0.91725564719E+02  0.63606896074E+02 -0.35380012928E+02  0.20949637851E+03  0.17371692734E+03 0.  0.
        -24    2    5    5    0    0 -0.12020749794E+02  0.75091519886E+02  0.16013210821E+02  0.11385063865E+03  0.83200421970E+02 0.  0.
          5    1    3    3  501    0  0.24950520089E+02 -0.90161698253E+02 -0.29176308974E+03  0.30643017283E+03  0.47000000000E+01 0. -1.
        -11    1    4    4    0    0  0.66580192838E+02 -0.67508390927E+01 -0.15594282605E+03  0.16969578929E+03  0.00000000000E+00 0.  1.
         12    1    4    4    0    0  0.19485179203E+00  0.33305641271E+02 -0.19941181341E+03  0.20217412058E+03  0.00000000000E+00 0. -1.
         -5    1    5    5    0  502 -0.79704814926E+02 -0.11484623812E+02 -0.51393223749E+02  0.95645739862E+02  0.47000000000E+01 0.  1.
         13    1    6    6    0    0 -0.36045124372E+01  0.28922839242E+02  0.48632782471E+02  0.56698065845E+02  0.00000000000E+00 0. -1.
        -14    1    6    6    0    0 -0.84162373566E+01  0.46168680644E+02 -0.32619571650E+02  0.57152572805E+02  0.00000000000E+00 0.  1.
</event>
<event>
12    1  0.1050869E+000  0.2938398E+03  0.7818608E-02  0.1088906E+00
         21   -1    0    0  503  502  0.00000000000E+00  0.00000000000E+00  0.23137406770E+03  0.23137406770E+03  0.00000000000E+00 0.  1.
         21   -1    0    0  501  503 -0.00000000000E+00 -0.00000000000E+00 -0.52741341841E+03  0.52741341841E+03  0.00000000000E+00 0.  1.
          6    2    1    2  501    0 -0.23289416932E+03  0.13651286278E+01  0.59919999813E+02  0.29988707843E+03  0.17916555404E+03 0.  0.
         24    2    3    3    0    0 -0.19248080526E+03 -0.57623740338E+02  0.20843873072E+02  0.21826624569E+03  0.82682108825E+02 0.  0.
         -6    2    1    2    0  502  0.23289416932E+03 -0.13651286278E+01 -0.35595935052E+03  0.45890040768E+03  0.17216552286E+03 0.  0.
        -24    2    5    5    0    0  0.10696621755E+03  0.22672850751E+02 -0.86589768333E+02  0.16054200692E+03  0.79499170747E+02 0.  0.
          5    1    3    3  501    0 -0.40413364066E+02  0.58988868965E+02  0.39076126741E+02  0.81620832745E+02  0.47000000000E+01 0. -1.
        -13    1    4    4    0    0  0.20041231704E+01 -0.14477713218E+02  0.11907908505E+02  0.18852558836E+02  0.00000000000E+00 0.  1.
         14    1    4    4    0    0 -0.19448492843E+03 -0.43146027119E+02  0.89359645672E+01  0.19941368685E+03  0.00000000000E+00 0. -1.
         -5    1    5    5    0  502  0.12592795177E+03 -0.24037979379E+02 -0.26936958219E+03  0.29835840075E+03  0.47000000000E+01 0.  1.
         13    1    6    6    0    0  0.97835663121E+02  0.42730660041E+02 -0.50140665278E+02  0.11794834717E+03  0.00000000000E+00 0. -1.
        -14    1    6    6    0    0  0.91305544286E+01 -0.20057809290E+02 -0.36449103055E+02  0.42593659754E+02  0.00000000000E+00 0.  1.
</event>
<event>
12    1  0.1050869E+000  0.1749721E+03  0.7818608E-02  0.1175237E+00
         21   -1    0    0  503  502  0.00000000000E+00  0.00000000000E+00  0.18407358952E+02  0.18407358952E+02  0.00000000000E+00 0.  1.
         21   -1    0    0  501  503 -0.00000000000E+00 -0.00000000000E+00 -0.16415298291E+04  0.16415298291E+04  0.00000000000E+00 0.  1.
          6    2    1    2  501    0  0.33938059551E+01  0.28183359185E+02 -0.62074122810E+03  0.64239928027E+03  0.16294582957E+03 0.  0.
         24    2    3    3    0    0  0.41399711163E+02  0.42067943721E+02 -0.56256297971E+03  0.57137795176E+03  0.80697023717E+02 0.  0.
         -6    2    1    2    0  502 -0.33938059551E+01 -0.28183359185E+02 -0.10023812421E+04  0.10175379078E+04  0.17265404632E+03 0.  0.
        -24    2    5    5    0    0  0.49556528608E+01 -0.40872406439E+02 -0.26256909953E+03  0.27755492041E+03  0.79994310503E+02 0.  0.
          5    1    3    3  501    0 -0.38005905208E+02 -0.13884584536E+02 -0.58178248384E+02  0.71021328511E+02  0.47000000000E+01 0. -1.
        -13    1    4    4    0    0  0.43531111849E+02  0.63706289730E+02 -0.40070741369E+03  0.40806847518E+03  0.00000000000E+00 0.  1.
         14    1    4    4    0    0 -0.21314006867E+01 -0.21638346009E+02 -0.16185556602E+03  0.16330947657E+03  0.00000000000E+00 0. -1.
         -5    1    5    5    0  502 -0.83494588160E+01  0.12689047255E+02 -0.73981214256E+03  0.73998298741E+03  0.47000000000E+01 0.  1.
         13    1    6    6    0    0 -0.67546212065E+01  0.21218231672E+02 -0.35910223418E+02  0.42253785734E+02  0.00000000000E+00 0. -1.
        -14    1    6    6    0    0  0.11710274067E+02 -0.62090638111E+02 -0.22665887611E+03  0.23530113468E+03  0.00000000000E+00 0.  1.
</event>
<event>
12    1  0.1050869E+000  0.2063216E+03  0.7818608E-02  0.1145246E+00
         21   -1    0    0  503  502  0.00000000000E+00  0.00000000000E+00  0.15107281453E+03  0.15107281453E+03  0.00000000000E+00 0.  1.
         21   -1    0    0  501  503 -0.00000000000E+00 -0.00000000000E+00 -0.36754536089E+03  0.36754536089E+03  0.00000000000E+00 0.  1.
          6    2    1    2  501    0  0.10753527070E+03 -0.34014065265E+02  0.21255519750E+02  0.20384327919E+03  0.16846214492E+03 0.  0.
         24    2    3    3    0    0  0.12269269305E+02 -0.58316673952E+02  0.30939443745E+02  0.10493879904E+03  0.80644484836E+02 0.  0.
         -6    2    1    2    0  502 -0.10753527070E+03  0.34014065265E+02 -0.23772806611E+03  0.31477489622E+03  0.17276518977E+03 0.  0.
        -24    2    5    5    0    0 -0.13742322858E+03  0.35020761791E+02 -0.23214550415E+03  0.28399245866E+03  0.81538849440E+02 0.  0.
          5    1    3    3  501    0  0.95266001395E+02  0.24302608687E+02 -0.96839239950E+01  0.98904480155E+02  0.47000000000E+01 0. -1.
        -11    1    4    4    0    0 -0.23759481350E+02  0.71882571198E+01  0.24838988681E+01  0.24947018820E+02  0.00000000000E+00 0.  1.
         12    1    4    4    0    0  0.36028750655E+02 -0.65504931071E+02  0.28455544877E+02  0.79991780219E+02  0.00000000000E+00 0. -1.
         -5    1    5    5    0  502  0.29887957880E+02 -0.10066965268E+01 -0.55825619559E+01  0.30782437560E+02  0.47000000000E+01 0.  1.
         11    1    6    6    0    0 -0.80058911806E+02  0.60938983124E+02 -0.14518969994E+03  0.17664381674E+03  0.00000000000E+00 0. -1.
        -12    1    6    6    0    0 -0.57364316774E+02 -0.25918221332E+02 -0.86955804210E+02  0.10734864192E+03  0.00000000000E+00 0.  1.
</event>
<event>
12    1  0.1050869E+000  0.1743284E+03  0.7818608E-02  0.1174219E+00
         21   -1    0    0  501  502  0.00000000000E+00  0.00000000000E+00  0.38992145408E+03  0.38992145408E+03  0.00000000000E+00 0. -1.
         21   -1    0    0  502  503 -0.00000000000E+00 -0.00000000000E+00 -0.10876480495E+03  0.10876480495E+03  0.00000000000E+00 0. -1.
         -6    2    1    2    0  503 -0.11495518647E+02 -0.10751820839E+02  0.27724124691E+03  0.32749517854E+03  0.17361634250E+03 0.  0.
        -24    2    3    3    0    0  0.22205345343E+02 -0.67330140342E+02  0.19213385472E+03  0.21978161080E+03  0.79762855743E+02 0.  0.
          6    2    1    2  501    0  0.11495518647E+02  0.10751820839E+02  0.39154022262E+01  0.17119108048E+03  0.17042097013E+03 0.  0.
         24    2    5    5    0    0 -0.27226313806E+02 -0.32273873094E+02 -0.30436866720E+02  0.10371694448E+03  0.89710237258E+02 0.  0.
          5    1    5    5  501    0  0.38721832453E+02  0.43025693933E+02  0.34352268946E+02  0.67474135998E+02  0.47000000000E+01 0. -1.
        -13    1    6    6    0    0 -0.41732118604E+02  0.18622457677E+02 -0.19449299389E+02  0.49665288682E+02  0.00000000000E+00 0.  1.
         14    1    6    6    0    0  0.14505804798E+02 -0.50896330771E+02 -0.10987567331E+02  0.54051655799E+02  0.00000000000E+00 0. -1.
         -5    1    3    3    0  503 -0.33700863990E+02  0.56578319502E+02  0.85107392183E+02  0.10771356774E+03  0.47000000000E+01 0.  1.
         11    1    4    4    0    0  0.46906337892E+02 -0.15904603445E+02  0.94868240631E+02  0.10701936285E+03  0.00000000000E+00 0. -1.
        -12    1    4    4    0    0 -0.24700992549E+02 -0.51425536896E+02  0.97265614093E+02  0.11276224795E+03  0.00000000000E+00 0.  1.
</event>
<event>
12    1  0.1050869E+000  0.1982726E+03  0.7818608E-02  0.1151257E+00
         21   -1    0    0  503  502  0.00000000000E+00  0.00000000000E+00  0.38903571113E+03  0.38903571113E+03  0.00000000000E+00 0.  1.
         21   -1    0    0  501  503 -0.00000000000E+00 -0.00000000000E+00 -0.11957465311E+03  0.11957465311E+03  0.00000000000E+00 0.  1.
          6    2    1    2  501    0  0.81936052770E+02  0.36944512400E+02  0.23509290800E+03  0.30738120110E+03  0.17645428207E+03 0.  0.
         24    2    3    3    0    0  0.10736793920E+02  0.73533472815E+01  0.21212890940E+03  0.22679331898E+03  0.79165553545E+02 0.  0.
         -6    2    1    2    0  502 -0.81936052770E+02 -0.36944512400E+02  0.34368150020E+02  0.20122916314E+03  0.17673028213E+03 0.  0.
        -24    2    5    5    0    0 -0.47586388067E+02 -0.28680307751E+02  0.91712438873E+02  0.13371135802E+03  0.79878228808E+02 0.  0.
          5    1    3    3  501    0  0.71199258850E+02  0.29591165118E+02  0.22963998597E+02  0.80587882125E+02  0.47000000000E+01 0. -1.
        -11    1    4    4    0    0  0.16880967955E+02 -0.31154059526E+02  0.59407030196E+02  0.69171798738E+02  0.00000000000E+00 0.  1.
         12    1    4    4    0    0 -0.61441740347E+01  0.38507406808E+02  0.15272187921E+03  0.15762152024E+03  0.00000000000E+00 0. -1.
         -5    1    5    5    0  502 -0.34349664703E+02 -0.82642046487E+01 -0.57344288853E+02  0.67517805116E+02  0.47000000000E+01 0.  1.
         13    1    6    6    0    0 -0.64126480338E+02 -0.40531229649E+02  0.79929262382E+02  0.11019833502E+03  0.00000000000E+00 0. -1.
        -14    1    6    6    0    0  0.16540092270E+02  0.11850921898E+02  0.11783176491E+02  0.23513022995E+02  0.00000000000E+00 0.  1.
</event>
<event>
12    1  0.1050869E+000  0.2797851E+03  0.7818608E-02  0.1096128E+00
         21   -1    0    0  503  502  0.00000000000E+00  0.00000000000E+00  0.43319593495E+03  0.43319593495E+03  0.00000000000E+00 0.  1.
         21   -1    0    0  501  503 -0.00000000000E+00 -0.00000000000E+00 -0.18068203290E+03  0.18068203290E+03  0.00000000000E+00 0.  1.
          6    2    1    2  501    0 -0.21647423737E+03  0.28977134182E+02  0.98932721988E+02  0.29676146277E+03  0.17486827201E+03 0.  0.
         24    2    3    3    0    0 -0.44681825124E+02 -0.12661055540E+02  0.72111331641E+02  0.11790999163E+03  0.80907071090E+02 0.  0.
         -6    2    1    2    0  502  0.21647423737E+03 -0.28977134182E+02  0.15358118006E+03  0.31711650508E+03  0.17109917935E+03 0.  0.
        -24    2    5    5    0    0  0.13992747647E+03 -0.83354312397E+02  0.11072739337E+03  0.21379747900E+03  0.83193547345E+02 0.  0.
          5    1    3    3  501    0 -0.17179241224E+03  0.41638189722E+02  0.26821390347E+02  0.17885147114E+03  0.47000000000E+01 0. -1.
        -11    1    4    4    0    0 -0.57168586888E+01  0.21870643650E+02 -0.65893827859E+01  0.23546284047E+02  0.00000000000E+00 0.  1.
         12    1    4    4    0    0 -0.38964966435E+02 -0.34531699190E+02  0.78700714427E+02  0.94363707587E+02  0.00000000000E+00 0. -1.
         -5    1    5    5    0  502  0.76546760903E+02  0.54377178215E+02  0.42853786682E+02  0.10331902607E+03  0.47000000000E+01 0.  1.
         11    1    6    6    0    0  0.13245134262E+03 -0.57844437656E+02  0.11761135292E+03  0.18633777788E+03  0.00000000000E+00 0. -1.
        -12    1    6    6    0    0  0.74761338422E+01 -0.25509874740E+02 -0.68839595492E+01  0.27459701119E+02  0.00000000000E+00 0.  1.
</event>
<event>
12    1  0.1050869E+000  0.2204373E+03  0.7818608E-02  0.1133581E+00
         21   -1    0    0  501  502  0.00000000000E+00  0.00000000000E+00  0.11724340403E+03  0.11724340403E+03  0.00000000000E+00 0. -1.
         21   -1    0    0  502  503 -0.00000000000E+00 -0.00000000000E+00 -0.41821505986E+03  0.41821505986E+03  0.00000000000E+00 0.  1.
         -6    2    1    2    0  503  0.13619264646E+03 -0.22546371646E+02 -0.17668090113E+03  0.28250441937E+03  0.17185991481E+03 0.  0.
        -24    2    3    3    0    0  0.11656961085E+03  0.10860591887E+02 -0.50148469695E+02  0.15008978671E+03  0.79408113131E+02 0.  0.
          6    2    1    2  501    0 -0.13619264646E+03  0.22546371646E+02 -0.12429075470E+03  0.25295404452E+03  0.17169968291E+03 0.  0.
         24    2    5    5    0    0 -0.10232200968E+03  0.28582049547E+02 -0.15710788820E+03  0.20517639603E+03  0.78279867990E+02 0.  0.
          5    1    5    5  501    0 -0.33870636781E+02 -0.60356779014E+01  0.32817133503E+02  0.47777648488E+02  0.47000000000E+01 0. -1.
        -11    1    6    6    0    0 -0.77060116694E+02 -0.15504884090E+02 -0.75167379606E+02  0.10876027755E+03  0.00000000000E+00 0.  1.
         12    1    6    6    0    0 -0.25261892986E+02  0.44086933637E+02 -0.81940508595E+02  0.96416118484E+02  0.00000000000E+00 0. -1.
         -5    1    3    3    0  503  0.19623035610E+02 -0.33406963532E+02 -0.12653243144E+03  0.13241463267E+03  0.47000000000E+01 0.  1.
         11    1    4    4    0    0 -0.53432049356E+01  0.28667069664E+01  0.11680877009E+02  0.13160954962E+02  0.00000000000E+00 0. -1.
        -12    1    4    4    0    0  0.12191281579E+03  0.79938849201E+01 -0.61829346705E+02  0.13692883175E+03  0.00000000000E+00 0.  1.
</event>
<event>
12    1  0.1050869E+000  0.2227386E+03  0.7818608E-02  0.1132279E+00
         21   -1    0    0  501  502  0.00000000000E+00  0.00000000000E+00  0.13590622846E+03  0.13590622846E+03  0.00000000000E+00 0. -1.
         21   -1    0    0  502  503 -0.00000000000E+00 -0.00000000000E+00 -0.38182916125E+03  0.38182916125E+03  0.00000000000E+00 0. -1.
         -6    2    1    2    0  503 -0.26365288340E+02  0.13738611723E+03 -0.18236103231E+03  0.28610504940E+03  0.17038333120E+03 0.  0.
        -24    2    3    3    0    0 -0.56714197619E+02  0.24152799411E+02 -0.65112286112E+02  0.12023703246E+03  0.80109152047E+02 0.  0.
          6    2    1    2  501    0  0.26365288340E+02 -0.13738611723E+03 -0.63561900479E+02  0.23163034031E+03  0.17332751001E+03 0.  0.
         24    2    5    5    0    0  0.53851942172E+02 -0.58245472617E+02 -0.92146926705E+02  0.14298525307E+03  0.75240678743E+02 0.  0.
          5    1    5    5  501    0 -0.27486653831E+02 -0.79140644610E+02  0.28585026226E+02  0.88645087244E+02  0.47000000000E+01 0. -1.
        -11    1    6    6    0    0 -0.16339335300E+02 -0.22832990390E+02 -0.39129923641E+02  0.48160878858E+02  0.00000000000E+00 0.  1.
         12    1    6    6    0    0  0.70191277471E+02 -0.35412482227E+02 -0.53017003064E+02  0.94824374210E+02  0.00000000000E+00 0. -1.
         -5    1    3    3    0  503  0.30348909279E+02  0.11323331782E+03 -0.11724874620E+03  0.16586801694E+03  0.47000000000E+01 0.  1.
         13    1    4    4    0    0  0.18684644893E+02 -0.76547724049E+00 -0.25145384191E+02  0.31336755676E+02  0.00000000000E+00 0. -1.
        -14    1    4    4    0    0 -0.75398842512E+02  0.24918276652E+02 -0.39966901921E+02  0.88900276786E+02  0.00000000000E+00 0.  1.
</event>
<event>
12    1  0.1050869E+000  0.2108797E+03  0.7818608E-02  0.1144278E+00
         21   -1    0    0  503  502  0.00000000000E+00  0.00000000000E+00  0.87813683202E+03  0.87813683202E+03  0.00000000000E+00 0. -1.
         21   -1    0    0  501  503 -0.00000000000E+00 -0.00000000000E+00 -0.68736293948E+02  0.68736293948E+02  0.00000000000E+00 0. -1.
          6    2    1    2  501    0  0.47593759201E+02  0.76078302021E+02  0.68360453544E+03  0.71539179663E+03  0.19083287942E+03 0.  0.
         24    2    3    3    0    0  0.10733450274E+03  0.66268310081E+02  0.50439053042E+03  0.52616985823E+03  0.80825293859E+02 0.  0.
         -6    2    1    2    0  502 -0.47593759201E+02 -0.76078302021E+02  0.12579600263E+03  0.23148132933E+03  0.17235398921E+03 0.  0.
        -24    2    5    5    0    0 -0.59049668626E+02  0.88265106312E+01  0.32192931752E+02  0.10450223676E+03  0.79495672701E+02 0.  0.
          5    1    3    3  501    0 -0.59740743541E+02  0.98099919394E+01  0.17921400501E+03  0.18922193840E+03  0.47000000000E+01 0. -1.
        -13    1    4    4    0    0  0.57666938531E+02  0.51629635092E+02  0.15811030306E+03  0.17603966301E+03  0.00000000000E+00 0.  1.
         14    1    4    4    0    0  0.49667564212E+02  0.14638674989E+02  0.34628022737E+03  0.35013019522E+03  0.00000000000E+00 0. -1.
         -5    1    5    5    0  502  0.11455909425E+02 -0.84904812652E+02  0.93603070882E+02  0.12697909257E+03  0.47000000000E+01 0.  1.
         13    1    6    6    0    0 -0.44582872560E+02  0.10141352447E+02  0.58622113769E+02  0.74344009698E+02  0.00000000000E+00 0. -1.
        -14    1    6    6    0    0 -0.14466796065E+02 -0.13148418161E+01 -0.26429182017E+02  0.30158227062E+02  0.00000000000E+00 0.  1.
</event>
<event>
12    1  0.1050869E+000  0.2651995E+03  0.7818608E-02  0.1104516E+00
         21   -1    0    0  503  502  0.00000000000E+00  0.00000000000E+00  0.10190147781E+04  0.10190147781E+04  0.00000000000E+00 0. -1.
         21   -1    0    0  501  503 -0.00000000000E+00 -0.00000000000E+00 -0.72953725538E+02  0.72953725538E+02  0.00000000000E+00 0. -1.
          6    2    1    2  501    0 -0.44723706476E+02  0.19222665739E+03  0.33645137874E+03  0.42840438420E+03  0.17714256522E+03 0.  0.
         24    2    3    3    0    0  0.20172903815E+02  0.15541773893E+03  0.16751154746E+03  0.24366342205E+03  0.82159144877E+02 0.  0.
         -6    2    1    2    0  502  0.44723706476E+02 -0.19222665739E+03  0.60960967385E+03  0.66356411947E+03  0.17245894719E+03 0.  0.
        -24    2    5    5    0    0 -0.38689486203E+02 -0.64577402868E+02  0.24840852152E+03  0.27146661204E+03  0.79499752091E+02 0.  0.
          5    1    3    3  501    0 -0.64896610291E+02  0.36808918457E+02  0.16893983128E+03  0.18474096215E+03  0.47000000000E+01 0. -1.
        -13    1    4    4    0    0  0.17191044932E+02  0.95944504391E+02  0.15455190726E+03  0.18272156957E+03  0.00000000000E+00 0.  1.
         14    1    4    4    0    0  0.29818588826E+01  0.59473234539E+02  0.12959640204E+02  0.60941852475E+02  0.00000000000E+00 0. -1.
         -5    1    5    5    0  502  0.83413192679E+02 -0.12764925452E+03  0.36120115233E+03  0.39209750744E+03  0.47000000000E+01 0.  1.
         13    1    6    6    0    0 -0.71221038519E+01 -0.34031330831E+02  0.21077482620E+03  0.21362322720E+03  0.00000000000E+00 0. -1.
        -14    1    6    6    0    0 -0.31567382351E+02 -0.30546072037E+02  0.37633695321E+02  0.57843384833E+02  0.00000000000E+00 0.  1.
</event>
<event>
12    1  0.1050869E+000  0.1960412E+03  0.7818608E-02  0.1153644E+00
         21   -1    0    0  503  502  0.00000000000E+00  0.00000000000E+00  0.45264777328E+03  0.45264777328E+03  0.00000000000E+00 0. -1.
         21   -1    0    0  501  503 -0.00000000000E+00 -0.00000000000E+00 -0.86620039726E+02  0.86620039726E+02  0.00000000000E+00 0.  1.
          6    2    1    2  501    0 -0.47738991983E+02  0.82034026462E+02  0.13391280850E+03  0.23544307454E+03  0.16879635131E+03 0.  0.
         24    2    3    3    0    0 -0.19127482386E+01  0.10895058575E+03  0.72973553045E+02  0.15444783620E+03  0.81578832546E+02 0.  0.
         -6    2    1    2    0  502  0.47738991983E+02 -0.82034026462E+02  0.23211492506E+03  0.30382473846E+03  0.17153291351E+03 0.  0.
        -24    2    5    5    0    0  0.74730009773E+02 -0.10304616769E+03  0.22239010801E+03  0.26795431629E+03  0.78352207633E+02 0.  0.
          5    1    3    3  501    0 -0.45826243744E+02 -0.26916559292E+02  0.60939255451E+02  0.80995238346E+02  0.47000000000E+01 0. -1.
        -13    1    4    4    0    0 -0.30540263387E+02  0.94589019612E+02  0.36448069670E+02  0.10586903278E+03  0.00000000000E+00 0.  1.
         14    1    4    4    0    0  0.28627515149E+02  0.14361566142E+02  0.36525483375E+02  0.48578803417E+02  0.00000000000E+00 0. -1.
         -5    1    5    5    0  502 -0.26991017790E+02  0.21012141231E+02  0.97248170484E+01  0.35870422176E+02  0.47000000000E+01 0.  1.
         13    1    6    6    0    0  0.20521933778E+02 -0.91186296397E+02  0.12859560052E+03  0.15897458567E+03  0.00000000000E+00 0. -1.
        -14    1    6    6    0    0  0.54208075994E+02 -0.11859871295E+02  0.93794507488E+02  0.10897973062E+03  0.00000000000E+00 0.  1.
</event>
<event>
12    1  0.1050869E+000  0.2402277E+03  0.7818608E-02  0.1119658E+00
         21   -1    0    0  501  502  0.00000000000E+00  0.00000000000E+00  0.44087906043E+03  0.44087906043E+03  0.00000000000E+00 0. -1.
         21   -1    0    0  502  503 -0.00000000000E+00 -0.00000000000E+00 -0.14258093707E+03  0.14258093707E+03  0.00000000000E+00 0. -1.
         -6    2    1    2    0  503  0.14055047601E+03  0.92112207724E+02  0.23283036523E+03  0.33447125657E+03  0.17152826991E+03 0.  0.
        -24    2    3    3    0    0  0.72322342035E+01  0.14767552262E+02  0.10929513660E+03  0.13688838272E+03  0.80762718054E+02 0.  0.
          6    2    1    2  501    0 -0.14055047601E+03 -0.92112207724E+02  0.65467758124E+02  0.24898874093E+03  0.17166907304E+03 0.  0.
         24    2    5    5    0    0 -0.11258448943E+03 -0.34668653521E+02  0.10249499070E+03  0.17499573939E+03  0.79000651188E+02 0.  0.
          5    1    5    5  501    0 -0.27965986576E+02 -0.57443554203E+02 -0.37027232577E+02  0.73993001540E+02  0.47000000000E+01 0. -1.
        -13    1    6    6    0    0 -0.39970640477E+02 -0.46825031150E+02  0.20713727852E+02  0.64956094124E+02  0.00000000000E+00 0.  1.
         14    1    6    6    0    0 -0.72613848955E+02  0.12156377628E+02  0.81781262849E+02  0.11003964527E+03  0.00000000000E+00 0. -1.
         -5    1    3    3    0  503  0.13331824180E+03  0.77344655461E+02  0.12353522863E+03  0.19758287385E+03  0.47000000000E+01 0.  1.
         11    1    4    4    0    0  0.27297401169E+02  0.17525822567E+02  0.11186372511E+03  0.11647229525E+03  0.00000000000E+00 0. -1.
        -12    1    4    4    0    0 -0.20065166966E+02 -0.27582703047E+01 -0.25685885059E+01  0.20416087464E+02  0.00000000000E+00 0.  1.
</event>
<event>
12    1  0.1050869E+000  0.1878057E+03  0.7818608E-02  0.1160757E+00
         21   -1    0    0  501  502  0.00000000000E+00  0.00000000000E+00  0.20620140944E+03  0.20620140944E+03  0.00000000000E+00 0. -1.
         21   -1    0    0  502  503 -0.00000000000E+00 -0.00000000000E+00 -0.34203393542E+03  0.34203393542E+03  0.00000000000E+00 0. -1.
         -6    2    1    2    0  503  0.45274866452E+01 -0.73672072304E+02  0.12645072180E+03  0.22640836703E+03  0.17269305500E+03 0.  0.
        -24    2    3    3    0    0 -0.32740773191E+02  0.11038881802E+02  0.28208246045E+02  0.91358217164E+02  0.79729565142E+02 0.  0.
          6    2    1    2  501    0 -0.45274866452E+01  0.73672072304E+02 -0.26228324779E+03  0.32182697783E+03  0.17126596046E+03 0.  0.
         24    2    5    5    0    0  0.53660061580E+02  0.81039324050E+02 -0.19950971803E+03  0.23578818887E+03  0.79656563892E+02 0.  0.
          5    1    5    5  501    0 -0.58187548225E+02 -0.73672517465E+01 -0.62773529755E+02  0.86038788954E+02  0.47000000000E+01 0. -1.
        -13    1    6    6    0    0  0.12612558514E+02  0.68841925045E+02 -0.68394586441E+02  0.97857583919E+02  0.00000000000E+00 0.  1.
         14    1    6    6    0    0  0.41047503066E+02  0.12197399006E+02 -0.13111513159E+03  0.13793060495E+03  0.00000000000E+00 0. -1.
         -5    1    3    3    0  503  0.37268259836E+02 -0.84710954106E+02  0.98242475759E+02  0.13505014987E+03  0.47000000000E+01 0.  1.
         13    1    4    4    0    0 -0.16740129711E+02  0.22139117656E+01  0.55780638158E+02  0.58280467924E+02  0.00000000000E+00 0. -1.
        -14    1    4    4    0    0 -0.16000643480E+02  0.88249700368E+01 -0.27572392113E+02  0.33077749240E+02  0.00000000000E+00 0.  1.
</event>
<event>
12    1  0.1050869E+000  0.4332465E+03  0.7818608E-02  0.1032850E+00
         21   -1    0    0  503  502  0.00000000000E+00  0.00000000000E+00  0.21155344768E+03  0.21155344768E+03  0.00000000000E+00 0. -1.
         21   -1    0    0  501  503 -0.00000000000E+00 -0.00000000000E+00 -0.99664812302E+03  0.99664812302E+03  0.00000000000E+00 0. -1.
          6    2    1    2  501    0 -0.24587453698E+03  0.31246222606E+03 -0.19209107259E+03  0.47379311442E+03  0.17173818579E+03 0.  0.
         24    2    3    3    0    0 -0.13015255651E+03  0.22264504007E+03 -0.18461002572E+03  0.32703903535E+03  0.79769462910E+02 0.  0.
         -6    2    1    2    0  502  0.24587453698E+03 -0.31246222606E+03 -0.59300360276E+03  0.73440845628E+03  0.17209176948E+03 0.  0.
        -24    2    5    5    0    0  0.56076719378E+02 -0.98828563963E+02 -0.14098756564E+03  0.19961584137E+03  0.84007779107E+02 0.  0.
          5    1    3    3  501    0 -0.11572198047E+03  0.89817185986E+02 -0.74810468685E+01  0.14675407907E+03  0.47000000000E+01 0. -1.
        -13    1    4    4    0    0 -0.96604112084E+02  0.12242922734E+03 -0.69393957578E+02  0.17069502490E+03  0.00000000000E+00 0.  1.
         14    1    4    4    0    0 -0.33548444425E+02  0.10021581273E+03 -0.11521606814E+03  0.15634401044E+03  0.00000000000E+00 0. -1.
         -5    1    5    5    0  502  0.18979781760E+03 -0.21363366209E+03 -0.45201603712E+03  0.53479261491E+03  0.47000000000E+01 0.  1.
         11    1    6    6    0    0  0.65464774503E+02 -0.32141565162E+02 -0.61196214562E+02  0.95203432651E+02  0.00000000000E+00 0. -1.
        -12    1    6    6    0    0 -0.93880551253E+01 -0.66686998801E+02 -0.79791351076E+02  0.10441240872E+03  0.00000000000E+00 0.  1.
</event>
<event>
12    1  0.1050869E+000  0.2079723E+03  0.7818608E-02  0.1143327E+00
         21   -1    0    0  501  502  0.00000000000E+00  0.00000000000E+00  0.17412254032E+02  0.17412254032E+02  0.00000000000E+00 0. -1.
         21   -1    0    0  502  503 -0.00000000000E+00 -0.00000000000E+00 -0.26485729186E+04  0.26485729186E+04  0.00000000000E+00 0. -1.
         -6    2    1    2    0  503 -0.45770756099E+02  0.10554834584E+03 -0.97257479278E+03  0.99441119103E+03  0.17238466832E+03 0.  0.
        -24    2    3    3    0    0 -0.92818824498E+01  0.99042967724E+02 -0.38621130130E+03  0.40685864702E+03  0.80493022047E+02 0.  0.
          6    2    1    2  501    0  0.45770756099E+02 -0.10554834584E+03 -0.16585858718E+04  0.16715739816E+04  0.17325434035E+03 0.  0.
         24    2    5    5    0    0  0.83117235323E+02 -0.11967783013E+03 -0.12474515607E+04  0.12584784556E+04  0.80008556544E+02 0.  0.
          5    1    5    5  501    0 -0.37346479224E+02  0.14129484291E+02 -0.41113431111E+03  0.41309552600E+03  0.47000000000E+01 0. -1.
        -13    1    6    6    0    0  0.81249144553E+02 -0.53095570173E+02 -0.84442122444E+03  0.84998103940E+03  0.00000000000E+00 0.  1.
         14    1    6    6    0    0  0.18680907699E+01 -0.66582259960E+02 -0.40303033627E+03  0.40849741622E+03  0.00000000000E+00 0. -1.
         -5    1    3    3    0  503 -0.36488873649E+02  0.65053781176E+01 -0.58636349147E+03  0.58755254401E+03  0.47000000000E+01 0.  1.
         11    1    4    4    0    0 -0.29853044334E+02  0.66851648653E+01 -0.62236889187E+02  0.69349304689E+02  0.00000000000E+00 0. -1.
        -12    1    4    4    0    0  0.20571161884E+02  0.92357802858E+02 -0.32397441212E+03  0.33750934233E+03  0.00000000000E+00 0.  1.
</event>
<event>
12    1  0.1050869E+000  0.2739171E+03  0.7818608E-02  0.1099881E+00
         21   -1    0    0  503  502  0.00000000000E+00  0.00000000000E+00  0.12971215199E+03  0.12971215199E+03  0.00000000000E+00 0. -1.
         21   -1    0    0  501  503 -0.00000000000E+00 -0.00000000000E+00 -0.56774154570E+03  0.56774154570E+03  0.00000000000E+00 0. -1.
          6    2    1    2  501    0  0.82763918797E+02 -0.19685932082E+03 -0.23905732642E+03  0.36356424336E+03  0.17154327526E+03 0.  0.
         24    2    3    3    0    0  0.92041858869E+02 -0.87703173005E+02 -0.19347037642E+03  0.24481490741E+03  0.79624129498E+02 0.  0.
         -6    2    1    2    0  502 -0.82763918797E+02  0.19685932082E+03 -0.19897206729E+03  0.33388945432E+03  0.16213829189E+03 0.  0.
        -24    2    5    5    0    0 -0.11712890413E+02  0.52032439475E+02 -0.12141270758E+03  0.15483466250E+03  0.79925969438E+02 0.  0.
          5    1    3    3  501    0 -0.92779400721E+01 -0.10915614782E+03 -0.45586949998E+02  0.11874933595E+03  0.47000000000E+01 0. -1.
        -11    1    4    4    0    0  0.54593629849E+02 -0.34045081904E+02 -0.34723384125E+02  0.73111185376E+02  0.00000000000E+00 0.  1.
         12    1    4    4    0    0  0.37448229020E+02 -0.53658091100E+02 -0.15874699230E+03  0.17170372203E+03  0.00000000000E+00 0. -1.
         -5    1    5    5    0  502 -0.71051028384E+02  0.14482688135E+03 -0.77559359709E+02  0.17905479182E+03  0.47000000000E+01 0.  1.
         11    1    6    6    0    0 -0.25272129047E+02  0.58102838363E+02 -0.12446851149E+03  0.13966757206E+03  0.00000000000E+00 0. -1.
        -12    1    6    6    0    0  0.13559238634E+02 -0.60703988884E+01  0.30558039082E+01  0.15167090444E+02  0.00000000000E+00 0.  1.
</event>
<event>
12    1  0.1050869E+000  0.2194110E+03  0.7818608E-02  0.1134818E+00
         21   -1    0    0  503  502  0.00000000000E+00  0.00000000000E+00  0.33723051064E+03  0.33723051064E+03  0.00000000000E+00 0. -1.
         21   -1    0    0  501  503 -0.00000000000E+00 -0.00000000000E+00 -0.14940226033E+03  0.14940226033E+03  0.00000000000E+00 0. -1.
          6    2    1    2  501    0 -0.42121065706E+02  0.12629236297E+03  0.36915346263E+02  0.22249473909E+03  0.17440533539E+03 0.  0.
         24    2    3    3    0    0  0.35685815147E+02  0.10943968561E+03  0.29748562449E+02  0.14242366920E+03  0.78415574943E+02 0.  0.
         -6    2    1    2    0  502  0.42121065706E+02 -0.12629236297E+03  0.15091290405E+03  0.26413803187E+03  0.17108550539E+03 0.  0.
        -24    2    5    5    0    0  0.59776512894E+02 -0.14320141712E+03  0.16174960687E+03  0.23698743233E+03  0.76943033471E+02 0.  0.
          5    1    3    3  501    0 -0.77806880854E+02  0.16852677362E+02  0.71667838136E+01  0.80071069886E+02  0.47000000000E+01 0. -1.
        -13    1    4    4    0    0 -0.23655390401E+02  0.49428655990E+02  0.14196152929E+02  0.56606539251E+02  0.00000000000E+00 0.  1.
         14    1    4    4    0    0  0.59341205548E+02  0.60011029616E+02  0.15552409520E+02  0.85817129953E+02  0.00000000000E+00 0. -1.
         -5    1    5    5    0  502 -0.17655447188E+02  0.16909054150E+02 -0.10836702823E+02  0.27150599546E+02  0.47000000000E+01 0.  1.
         11    1    6    6    0    0  0.12711807125E+02  0.50918007365E+01  0.30518148077E+02  0.33449571555E+02  0.00000000000E+00 0. -1.
        -12    1    6    6    0    0  0.47064705769E+02 -0.14829321785E+03  0.13123145879E+03  0.20353786077E+03  0.00000000000E+00 0.  1.
</event>
<event>
12    1  0.1050869E+000  0.1946108E+03  0.7818608E-02  0.1154565E+00
         21   -1    0    0  503  502  0.00000000000E+00  0.00000000000E+00  0.45865897530E+03  0.45865897530E+03  0.00000000000E+00 0.  1.
         21   -1    0    0  501  503 -0.00000000000E+00 -0.00000000000E+00 -0.10453339190E+03  0.10453339190E+03  0.00000000000E+00 0.  1.
          6    2    1    2  501    0  0.86098397478E+02  0.31591989683E+02  0.47200679515E+02  0.20025298582E+03  0.17164604954E+03 0.  0.
         24    2    3    3    0    0 -0.20358807658E+02 -0.62143629611E+01  0.18563898032E+02  0.83614175475E+02  0.78699508727E+02 0.  0.
         -6    2    1    2    0  502 -0.86098397478E+02 -0.31591989683E+02  0.30692490388E+03  0.36293938138E+03  0.17061978219E+03 0.  0.
        -24    2    5    5    0    0 -0.10449114038E+03  0.25383279927E+00  0.29539467214E+03  0.32411302892E+03  0.82902233639E+02 0.  0.
          5    1    3    3  501    0  0.10645720514E+03  0.37806352645E+02  0.28636781483E+02  0.11663881035E+03  0.47000000000E+01 0. -1.
        -13    1    4    4    0    0 -0.15764107984E+02  0.35281843157E+02  0.19891723453E+01  0.38694603806E+02  0.00000000000E+00 0.  1.
         14    1    4    4    0    0 -0.45946996733E+01 -0.41496206118E+02  0.16574725687E+02  0.44919571669E+02  0.00000000000E+00 0. -1.
         -5    1    5    5    0  502  0.18392742902E+02 -0.31845822483E+02  0.11530231744E+02  0.38826352457E+02  0.47000000000E+01 0.  1.
         11    1    6    6    0    0 -0.36307149621E+02  0.30580551221E+02  0.56289892650E+02  0.73633764274E+02  0.00000000000E+00 0. -1.
        -12    1    6    6    0    0 -0.68183990759E+02 -0.30326718422E+02  0.23910477949E+03  0.25047926465E+03  0.00000000000E+00 0.  1.
</event>
<event>
12    1  0.1050869E+000  0.1951574E+03  0.7818608E-02  0.1153993E+00
         21   -1    0    0  503  502  0.00000000000E+00  0.00000000000E+00  0.51596780571E+02  0.51596780571E+02  0.00000000000E+00 0.  1.
         21   -1    0    0  501  503 -0.00000000000E+00 -0.00000000000E+00 -0.79646680893E+03  0.79646680893E+03  0.00000000000E+00 0.  1.
          6    2    1    2  501    0 -0.86305160909E+02  0.30299836795E+02 -0.25555206114E+03  0.32126335179E+03  0.17186222487E+03 0.  0.
         24    2    3    3    0    0 -0.71878926443E+02 -0.81039823260E+01 -0.56390281048E+02  0.11786602090E+03  0.74028916574E+02 0.  0.
         -6    2    1    2    0  502  0.86305160909E+02 -0.30299836795E+02 -0.48931796722E+03  0.52680023772E+03  0.17239418930E+03 0.  0.
        -24    2    5    5    0    0 -0.10258570774E+02  0.23682552628E+02 -0.24042082914E+03  0.25438414423E+03  0.79012759595E+02 0.  0.
          5    1    3    3  501    0 -0.14426234466E+02  0.38403819121E+02 -0.19916178009E+03  0.20339733089E+03  0.47000000000E+01 0. -1.
        -13    1    4    4    0    0  0.48360398501E+01  0.19432729849E+02 -0.25628951325E+01  0.20188776641E+02  0.00000000000E+00 0.  1.
         14    1    4    4    0    0 -0.76714966293E+02 -0.27536712175E+02 -0.53827385915E+02  0.97677244255E+02  0.00000000000E+00 0. -1.
         -5    1    5    5    0  502  0.96563731682E+02 -0.53982389423E+02 -0.24889713808E+03  0.27241609349E+03  0.47000000000E+01 0.  1.
         11    1    6    6    0    0  0.33858629175E+02  0.18664809474E+02 -0.10721518410E+03  0.11397314413E+03  0.00000000000E+00 0. -1.
        -12    1    6    6    0    0 -0.44117199949E+02  0.50177431536E+01 -0.13320564504E+03  0.14041100010E+03  0.00000000000E+00 0.  1.
</event>
<event>
12    1  0.1050869E+000  0.3189716E+03  0.7818608E-02  0.1076198E+00
         21   -1    0    0  501  502  0.00000000000E+00  0.00000000000E+00  0.24681324139E+03  0.24681324139E+03  0.00000000000E+00 0. -1.
         21   -1    0    0  502  503 -0.00000000000E+00 -0.00000000000E+00 -0.43554775245E+03  0.43554775245E+03  0.00000000000E+00 0. -1.
         -6    2    1    2    0  503 -0.19126876741E+03 -0.18791413603E+03 -0.17479745195E+03  0.36372659930E+03  0.17276407590E+03 0.  0.
        -24    2    3    3    0    0 -0.51563145512E+02 -0.53331550174E+02 -0.11440037014E+02  0.11007749478E+03  0.80518123376E+02 0.  0.
          6    2    1    2  501    0  0.19126876741E+03  0.18791413603E+03 -0.13937059106E+02  0.31863439455E+03  0.17157555731E+03 0.  0.
         24    2    5    5    0    0  0.14021099957E+03  0.18483773732E+03  0.34684934792E+02  0.24790570040E+03  0.80187767465E+02 0.  0.
          5    1    5    5  501    0  0.51057767838E+02  0.30763987159E+01 -0.48621993898E+02  0.70728694151E+02  0.47000000000E+01 0. -1.
        -13    1    6    6    0    0  0.12264515625E+03  0.12728844059E+03 -0.32230661568E+01  0.17678961964E+03  0.00000000000E+00 0.  1.
         14    1    6    6    0    0  0.17565843320E+02  0.57549296731E+02  0.37908000948E+02  0.71116080753E+02  0.00000000000E+00 0. -1.
         -5    1    3    3    0  503 -0.13970562190E+03 -0.13458258586E+03 -0.16335741494E+03  0.25364910451E+03  0.47000000000E+01 0.  1.
         13    1    4    4    0    0  0.11267005686E+02  0.40819384480E+01 -0.21256678301E+02  0.24401926379E+02  0.00000000000E+00 0. -1.
        -14    1    4    4    0    0 -0.62830151199E+02 -0.57413488622E+02  0.98166412869E+01  0.85675568405E+02  0.00000000000E+00 0.  1.
</event>
<event>
12    1  0.1050869E+000  0.1884933E+03  0.7818608E-02  0.1160135E+00
         21   -1    0    0  501  502  0.00000000000E+00  0.00000000000E+00  0.23494070107E+03  0.23494070107E+03  0.00000000000E+00 0.  1.
         21   -1    0    0  502  503 -0.00000000000E+00 -0.00000000000E+00 -0.26441044234E+03  0.26441044234E+03  0.00000000000E+00 0.  1.
         -6    2    1    2    0  503  0.21732842043E+02  0.71974412720E+02  0.14936313204E+03  0.24049757599E+03  0.17284995324E+03 0.  0.
        -24    2    3    3    0    0 -0.47318319487E+02  0.24385059953E+02  0.45590670208E+02  0.10699243287E+03  0.80840688842E+02 0.  0.
          6    2    1    2  501    0 -0.21732842043E+02 -0.71974412720E+02 -0.17883287332E+03  0.25885356742E+03  0.17138068817E+03 0.  0.
         24    2    5    5    0    0  0.13103572621E+02  0.24338927144E+02 -0.60605981085E+02  0.10236227926E+03  0.77722997127E+02 0.  0.
          5    1    5    5  501    0 -0.34836414664E+02 -0.96313339864E+02 -0.11822689223E+03  0.15649128816E+03  0.47000000000E+01 0. -1.
        -13    1    6    6    0    0  0.38989462848E+02  0.22924929117E+02 -0.61596393166E+02  0.76418886666E+02  0.00000000000E+00 0.  1.
         14    1    6    6    0    0 -0.25885890227E+02  0.14139980268E+01  0.99041208106E+00  0.25943392595E+02  0.00000000000E+00 0. -1.
         -5    1    3    3    0  503  0.69051161530E+02  0.47589352767E+02  0.10377246184E+03  0.13350514313E+03  0.47000000000E+01 0.  1.
         13    1    4    4    0    0 -0.30462157777E+02 -0.13677752020E+02  0.54973062038E+02  0.64319993055E+02  0.00000000000E+00 0. -1.
        -14    1    4    4    0    0 -0.16856161710E+02  0.38062811973E+02 -0.93823918300E+01  0.42672439810E+02  0.00000000000E+00 0.  1.
</event>
<event>
12    1  0.1050869E+000  0.1730550E+03  0.7818608E-02  0.1174881E+00
         21   -1    0    0  501  502  0.00000000000E+00  0.00000000000E+00  0.16039223459E+03  0.16039223459E+03  0.00000000000E+00 0.  1.
         21   -1    0    0  502  503 -0.00000000000E+00 -0.00000000000E+00 -0.32876826923E+03  0.32876826923E+03  0.00000000000E+00 0.  1.
         -6    2    1    2    0  503 -0.68424028200E+01  0.63925608936E+01  0.76915062273E+02  0.18937780631E+03  0.17280145661E+03 0.  0.
        -24    2    3    3    0    0 -0.34798528121E+02 -0.48786574845E+02  0.78378566009E+02  0.12732529785E+03  0.80482696394E+02 0.  0.
          6    2    1    2  501    0  0.68424028200E+01 -0.63925608936E+01 -0.24529109692E+03  0.29978269751E+03  0.17208794318E+03 0.  0.
         24    2    5    5    0    0  0.29826971262E+01 -0.63135089672E+02 -0.20890123609E+03  0.23210017487E+03  0.78967263493E+02 0.  0.
          5    1    5    5  501    0  0.38597056938E+01  0.56742528779E+02 -0.36389860823E+02  0.67682522641E+02  0.47000000000E+01 0. -1.
        -11    1    6    6    0    0 -0.37432821749E+02 -0.21716240566E+02 -0.88805175429E+02  0.98788513661E+02  0.00000000000E+00 0.  1.
         12    1    6    6    0    0  0.40415518876E+02 -0.41418849107E+02 -0.12009606066E+03  0.13331166121E+03  0.00000000000E+00 0. -1.
         -5    1    3    3    0  503  0.27956125301E+02  0.55179135739E+02 -0.14635037363E+01  0.62052508458E+02  0.47000000000E+01 0.  1.
         11    1    4    4    0    0  0.13923692675E+02 -0.44390673722E+02  0.18655559098E+02  0.50124156018E+02  0.00000000000E+00 0. -1.
        -12    1    4    4    0    0 -0.48722220796E+02 -0.43959011229E+01  0.59723006911E+02  0.77201141834E+02  0.00000000000E+00 0.  1.
</event>
<event>
12    1  0.1050869E+000  0.2434647E+03  0.7818608E-02  0.1117564E+00
         21   -1    0    0  503  502  0.00000000000E+00  0.00000000000E+00  0.33328648162E+03  0.33328648162E+03  0.00000000000E+00 0.  1.
         21   -1    0    0  501  503 -0.00000000000E+00 -0.00000000000E+00 -0.20923475259E+03  0.20923475259E+03  0.00000000000E+00 0.  1.
          6    2    1    2  501    0 -0.39839227658E+01 -0.17260946953E+03 -0.43505546859E+02  0.24697007001E+03  0.17114783743E+03 0.  0.
         24    2    3    3    0    0 -0.17573932504E+02 -0.19757999275E+02  0.72704097030E+01  0.85264943032E+02  0.80734317449E+02 0.  0.
         -6    2    1    2    0  502  0.39839227658E+01  0.17260946953E+03  0.16755727589E+03  0.29555116420E+03  0.17165415621E+03 0.  0.
        -24    2    5    5    0    0 -0.56245845117E+02  0.13572347870E+03  0.88665380075E+02  0.18955954904E+03  0.80540767596E+02 0.  0.
          5    1    3    3  501    0  0.13590009738E+02 -0.15285147026E+03 -0.50775956562E+02  0.16170512697E+03  0.47000000000E+01 0. -1.
        -13    1    4    4    0    0  0.30514414490E+02  0.47296257592E+01  0.47495704141E+01  0.31241915284E+02  0.00000000000E+00 0.  1.
         14    1    4    4    0    0 -0.48088346993E+02 -0.24487625034E+02  0.25208392889E+01  0.54023027748E+02  0.00000000000E+00 0. -1.
         -5    1    5    5    0  502  0.60229767883E+02  0.36885990832E+02  0.78891895813E+02  0.10599161516E+03  0.47000000000E+01 0.  1.
         11    1    6    6    0    0 -0.39795135737E+02  0.13006959685E+03  0.99976096686E+02  0.16881046402E+03  0.00000000000E+00 0. -1.
        -12    1    6    6    0    0 -0.16450709380E+02  0.56538818528E+01 -0.11310716611E+02  0.20749085025E+02  0.00000000000E+00 0.  1.
</event>
<event>
12    1  0.1050869E+000  0.1874726E+03  0.7818608E-02  0.1160821E+00
         21   -1    0    0  501  502  0.00000000000E+00  0.00000000000E+00  0.12671346924E+03  0.12671346924E+03  0.00000000000E+00 0.  1.
         21   -1    0    0  502  503 -0.00000000000E+00 -0.00000000000E+00 -0.30653848896E+03  0.30653848896E+03  0.00000000000E+00 0.  1.
         -6    2    1    2    0  503 -0.22511964209E+02  0.71235057707E+02 -0.22700220340E+02  0.18884194443E+03  0.17194405484E+03 0.  0.
        -24    2    3    3    0    0  0.10337227215E+02  0.32820876020E+02  0.47393268780E+02  0.10229770170E+03  0.83872699247E+02 0.  0.
          6    2    1    2  501    0  0.22511964209E+02 -0.71235057707E+02 -0.15712479938E+03  0.24441001377E+03  0.17165905240E+03 0.  0.
         24    2    5    5    0    0  0.22917919581E+02  0.10428787328E+02 -0.22658954019E+02  0.87017822240E+02  0.80154117469E+02 0.  0.
          5    1    5    5  501    0 -0.40595537185E+00 -0.81663845035E+02 -0.13446584536E+03  0.15739219153E+03  0.47000000000E+01 0. -1.
        -11    1    6    6    0    0  0.30147840793E+02  0.41529771464E+02 -0.19627003845E+02  0.54943912331E+02  0.00000000000E+00 0.  1.
         12    1    6    6    0    0 -0.72299212118E+01 -0.31100984137E+02 -0.30319501742E+01  0.32073909909E+02  0.00000000000E+00 0. -1.
         -5    1    3    3    0  503 -0.32849191423E+02  0.38414181687E+02 -0.70093489120E+02  0.86544242726E+02  0.47000000000E+01 0.  1.
         13    1    4    4    0    0 -0.28720668169E+02  0.41270256377E+02  0.31240248576E+02  0.59195134704E+02  0.00000000000E+00 0. -1.
        -14    1    4    4    0    0  0.39057895384E+02 -0.84493803578E+01  0.16153020204E+02  0.43102566999E+02  0.00000000000E+00 0.  1.
</event>
<event>
12    1  0.1050869E+000  0.1805581E+03  0.7818608E-02  0.1167862E+00
         21   -1    0    0  503  502  0.00000000000E+00  0.00000000000E+00  0.11285878225E+03  0.11285878225E+03  0.00000000000E+00 0.  1.
         21   -1    0    0  501  503 -0.00000000000E+00 -0.00000000000E+00 -0.45771631882E+03  0.45771631882E+03  0.00000000000E+00 0.  1.
          6    2    1    2  501    0  0.30373373072E+02 -0.39743602300E+02  0.35818252169E+01  0.17813248400E+03  0.17092763577E+03 0.  0.
         24    2    3    3    0    0  0.91506692384E+01 -0.26017182397E+02  0.66949735024E+02  0.10974827709E+03  0.82472957856E+02 0.  0.
         -6    2    1    2    0  502 -0.30373373072E+02  0.39743602300E+02 -0.34843936178E+03  0.39244261707E+03  0.17349098863E+03 0.  0.
        -24    2    5    5    0    0  0.30187159306E+02 -0.16688023679E+02 -0.20910565979E+03  0.23030663401E+03  0.90145515640E+02 0.  0.
          5    1    3    3  501    0  0.21222703834E+02 -0.13726419903E+02 -0.63367909808E+02  0.68384206910E+02  0.47000000000E+01 0. -1.
        -11    1    4    4    0    0 -0.15204040907E+01 -0.80249670487E+01 -0.19321596285E+02  0.20977030480E+02  0.00000000000E+00 0.  1.
         12    1    4    4    0    0  0.10671073329E+02 -0.17992215349E+02  0.86271331310E+02  0.88771246612E+02  0.00000000000E+00 0. -1.
         -5    1    5    5    0  502 -0.60560532379E+02  0.56431625980E+02 -0.13933370199E+03  0.16213598306E+03  0.47000000000E+01 0.  1.
         11    1    6    6    0    0  0.28749750187E+02  0.12844015550E+02 -0.19503816408E+03  0.19756366649E+03  0.00000000000E+00 0. -1.
        -12    1    6    6    0    0  0.14374091194E+01 -0.29532039230E+02 -0.14067495713E+02  0.32742967515E+02  0.00000000000E+00 0.  1.
</event>
<event>
12    1  0.1050869E+000  0.1983034E+03  0.7818608E-02  0.1151540E+00
         21   -1    0    0  503  502  0.00000000000E+00  0.00000000000E+00  0.15131442330E+03  0.15131442330E+03  0.00000000000E+00 0.  1.
         21   -1    0    0  501  503 -0.00000000000E+00 -0.00000000000E+00 -0.90691321349E+03  0.90691321349E+03  0.00000000000E+00 0.  1.
          6    2    1    2  501    0  0.44010723711E+02 -0.84182690931E+02  0.70338729400E+02  0.20881783595E+03  0.17214436530E+03 0.  0.
         24    2    3    3    0    0 -0.41224999427E+01  0.19898306727E+02  0.27899814352E+02  0.86454390416E+02  0.79265530750E+02 0.  0.
         -6    2    1    2    0  502 -0.44010723711E+02  0.84182690931E+02 -0.82593751959E+03  0.84940980083E+03  0.17407054384E+03 0.  0.
        -24    2    5    5    0    0 -0.63421335450E+02  0.65619205426E+02 -0.80668487484E+03  0.81603122728E+03  0.82694199922E+02 0.  0.
          5    1    3    3  501    0  0.48133223654E+02 -0.10408099766E+03  0.42438915048E+02  0.12236344554E+03  0.47000000000E+01 0. -1.
        -11    1    4    4    0    0  0.18065713911E+02  0.14959771072E+02 -0.21662179391E+02  0.31928275644E+02  0.00000000000E+00 0.  1.
         12    1    4    4    0    0 -0.22188213853E+02  0.49385356550E+01  0.49561993743E+02  0.54526114772E+02  0.00000000000E+00 0. -1.
         -5    1    5    5    0  502  0.19410611738E+02  0.18563485505E+02 -0.19252644751E+02  0.33378573548E+02  0.47000000000E+01 0.  1.
         11    1    6    6    0    0 -0.58989992627E+02  0.12683185479E+02 -0.58351102418E+03  0.58662236385E+03  0.00000000000E+00 0. -1.
        -12    1    6    6    0    0 -0.44313428225E+01  0.52936019947E+02 -0.22317385066E+03  0.22940886344E+03  0.00000000000E+00 0.  1.
</event>
<event>
12    1  0.1050869E+000  0.2180422E+03  0.7818608E-02  0.1136441E+00
         21   -1    0    0  501  502  0.00000000000E+00  0.00000000000E+00  0.10224678940E+03  0.10224678940E+03  0.00000000000E+00 0. -1.
         21   -1    0    0  502  503 -0.00000000000E+00 -0.00000000000E+00 -0.58377984694E+03  0.58377984694E+03  0.00000000000E+00 0. -1.
         -6    2    1    2    0  503 -0.24335933669E+02 -0.13698055176E+03 -0.40563616507E+03  0.46052479566E+03  0.16788829552E+03 0.  0.
        -24    2    3    3    0    0  0.28597351042E+02 -0.12623424260E+03 -0.22674440752E+03  0.27359762612E+03  0.81790844154E+02 0.  0.
          6    2    1    2  501    0  0.24335933669E+02  0.13698055176E+03 -0.75896892466E+02  0.22550184067E+03  0.16042079863E+03 0.  0.
         24    2    5    5    0    0  0.11812913293E+02  0.12603637764E+03 -0.17943925282E+01  0.14941063564E+03  0.79344847276E+02 0.  0.
          5    1    5    5  501    0  0.12523020376E+02  0.10944174127E+02 -0.74102499938E+02  0.76091205036E+02  0.47000000000E+01 0. -1.
        -11    1    6    6    0    0 -0.16907696397E+02  0.68421536968E+02 -0.33054341470E+02  0.77845786068E+02  0.00000000000E+00 0.  1.
         12    1    6    6    0    0  0.28720609690E+02  0.57614840668E+02  0.31259948942E+02  0.71564849571E+02  0.00000000000E+00 0. -1.
         -5    1    3    3    0  503 -0.52933284711E+02 -0.10746309164E+02 -0.17889175755E+03  0.18692716953E+03  0.47000000000E+01 0.  1.
         13    1    4    4    0    0  0.12304039171E+02  0.83349355357E+01 -0.41307921848E+02  0.43899942343E+02  0.00000000000E+00 0. -1.
        -14    1    4    4    0    0  0.16293311871E+02 -0.13456917813E+03 -0.18543648567E+03  0.22969768378E+03  0.00000000000E+00 0.  1.
</event>
<event>
12    1  0.1050869E+000  0.3121700E+03  0.7818608E-02  0.1079325E+00
         21   -1    0    0  501  502  0.00000000000E+00  0.00000000000E+00  0.78459017247E+03  0.78459017247E+03  0.00000000000E+00 0. -1.
         21   -1    0    0  502  503 -0.00000000000E+00 -0.00000000000E+00 -0.16596730054E+03  0.16596730054E+03  0.00000000000E+00 0. -1.
         -6    2    1    2    0  503 -0.26032073192E+03 -0.24476264301E+01  0.54790724395E+03  0.63059689461E+03  0.17227077862E+03 0.  0.
        -24    2    3    3    0    0 -0.12857747404E+03 -0.17904358539E+02  0.41833955614E+03  0.44511085122E+03  0.79138819547E+02 0.  0.
          6    2    1    2  501    0  0.26032073192E+03  0.24476264301E+01  0.70715627972E+02  0.31996057840E+03  0.17204998502E+03 0.  0.
         24    2    5    5    0    0  0.97985681068E+02 -0.93475557465E+01 -0.28332995618E+02  0.12937066551E+03  0.79028096029E+02 0.  0.
          5    1    5    5  501    0  0.16233505086E+03  0.11795182177E+02  0.99048623590E+02  0.19058991289E+03  0.47000000000E+01 0. -1.
        -11    1    6    6    0    0  0.93166297894E+02 -0.34521816988E+02 -0.15011505415E+02  0.10048412913E+03  0.00000000000E+00 0.  1.
         12    1    6    6    0    0  0.48193831748E+01  0.25174261242E+02 -0.13321490203E+02  0.28886536388E+02  0.00000000000E+00 0. -1.
         -5    1    3    3    0  503 -0.13174325788E+03  0.15456732109E+02  0.12956768782E+03  0.18548604339E+03  0.47000000000E+01 0.  1.
         11    1    4    4    0    0 -0.83122380070E+01 -0.31003906054E+00  0.15335289760E+03  0.15357832082E+03  0.00000000000E+00 0. -1.
        -12    1    4    4    0    0 -0.12026523604E+03 -0.17594319479E+02  0.26498665854E+03  0.29153253040E+03  0.00000000000E+00 0.  1.
</event>
<event>
12    1  0.1050869E+000  0.1939464E+03  0.7818608E-02  0.1155529E+00
         21   -1    0    0  503  502  0.00000000000E+00  0.00000000000E+00  0.15777331661E+03  0.15777331661E+03  0.00000000000E+00 0.  1.
         21   -1    0    0  501  503 -0.00000000000E+00 -0.00000000000E+00 -0.73285543683E+03  0.73285543683E+03  0.00000000000E+00 0.  1.
          6    2    1    2  501    0  0.16221815323E+02 -0.87963454451E+02  0.78790672441E+02  0.20933981777E+03  0.17208856042E+03 0.  0.
         24    2    3    3    0    0  0.34625911190E+02 -0.58803711367E+01 -0.87433950763E+01  0.87846417588E+02  0.80043823217E+02 0.  0.
         -6    2    1    2    0  502 -0.16221815323E+02  0.87963454451E+02 -0.65387279266E+03  0.68128893567E+03  0.16912796421E+03 0.  0.
        -24    2    5    5    0    0 -0.22893710406E+02  0.36480477208E+02 -0.15009656596E+03  0.17482315428E+03  0.78607944683E+02 0.  0.
          5    1    3    3  501    0 -0.18404095867E+02 -0.82083083314E+02  0.87534067517E+02  0.12149340018E+03  0.47000000000E+01 0. -1.
        -11    1    4    4    0    0 -0.12526447698E+02 -0.26977446073E+00 -0.32441127579E+02  0.34776593116E+02  0.00000000000E+00 0.  1.
         12    1    4    4    0    0  0.47152358888E+02 -0.56105966760E+01  0.23697732502E+02  0.53069824472E+02  0.00000000000E+00 0. -1.
         -5    1    5    5    0  502  0.66718950829E+01  0.51482977243E+02 -0.50377622670E+03  0.50646578139E+03  0.47000000000E+01 0.  1.
         11    1    6    6    0    0 -0.16351211627E+01  0.49553594656E+02 -0.13887417671E+03  0.14745938194E+03  0.00000000000E+00 0. -1.
        -12    1    6    6    0    0 -0.21258589243E+02 -0.13073117448E+02 -0.11222389246E+02  0.27363772342E+02  0.00000000000E+00 0.  1.
</event>
<event>
12    1  0.1050869E+000  0.1878430E+03  0.7818608E-02  0.1160900E+00
         21   -1    0    0  501  502  0.00000000000E+00  0.00000000000E+00  0.63740325539E+03  0.63740325539E+03  0.00000000000E+00 0.  1.
         21   -1    0    0  502  503 -0.00000000000E+00 -0.00000000000E+00 -0.55053715805E+02  0.55053715805E+02  0.00000000000E+00 0.  1.
         -6    2    1    2    0  503  0.32317914701E+02  0.62230431413E+02  0.26693476142E+03  0.32640335337E+03  0.17426390341E+03 0.  0.
        -24    2    3    3    0    0  0.32558685374E+02  0.78641494688E+02  0.28094017926E+03  0.30432117283E+03  0.80246116611E+02 0.  0.
          6    2    1    2  501    0 -0.32317914701E+02 -0.62230431413E+02  0.31541477816E+03  0.36605361782E+03  0.17202236666E+03 0.  0.
         24    2    5    5    0    0 -0.12397670165E+02 -0.80389040815E+02  0.10941527992E+03  0.15824496902E+03  0.80334716241E+02 0.  0.
          5    1    5    5  501    0 -0.19920244536E+02  0.18158609401E+02  0.20599949824E+03  0.20780864879E+03  0.47000000000E+01 0. -1.
        -11    1    6    6    0    0  0.24255468364E+02 -0.72713263328E+02  0.68794240684E+02  0.10299608711E+03  0.00000000000E+00 0.  1.
         12    1    6    6    0    0 -0.36653138528E+02 -0.76757774865E+01  0.40621039234E+02  0.55248881911E+02  0.00000000000E+00 0. -1.
         -5    1    3    3    0  503 -0.24077067345E+00 -0.16411063275E+02 -0.14005417842E+02  0.22082180537E+02  0.47000000000E+01 0.  1.
         13    1    4    4    0    0 -0.17780189869E+02  0.60897054159E+02  0.16056823199E+03  0.17264629588E+03  0.00000000000E+00 0. -1.
        -14    1    4    4    0    0  0.50338875244E+02  0.17744440529E+02  0.12037194727E+03  0.13167487695E+03  0.00000000000E+00 0.  1.
</event>
<event>
12    1  0.1050869E+000  0.1825397E+03  0.7818608E-02  0.1165788E+00
         21   -1    0    0  503  502  0.00000000000E+00  0.00000000000E+00  0.11022507926E+03  0.11022507926E+03  0.00000000000E+00 0. -1.
         21   -1    0    0  501  503 -0.00000000000E+00 -0.00000000000E+00 -0.40392753569E+03  0.40392753569E+03  0.00000000000E+00 0. -1.
          6    2    1    2  501    0  0.42054871666E+02 -0.37505805981E+02 -0.27815886467E+03  0.33270571935E+03  0.17362443370E+03 0.  0.
         24    2    3    3    0    0 -0.18485448887E+02 -0.68015334011E+02 -0.12228446636E+03  0.16266196097E+03  0.80855583310E+02 0.  0.
         -6    2    1    2    0  502 -0.42054871666E+02  0.37505805981E+02 -0.15543591752E+02  0.18144689560E+03  0.17177332437E+03 0.  0.
        -24    2    5    5    0    0 -0.67115124533E+02  0.46001575995E+02  0.37792237354E+02  0.12172257017E+03  0.82265095566E+02 0.  0.
          5    1    3    3  501    0  0.60540320553E+02  0.30509528030E+02 -0.15587439832E+03  0.17004375838E+03  0.47000000000E+01 0. -1.
        -13    1    4    4    0    0 -0.33629355065E+02  0.37875147123E+01 -0.40647363711E+02  0.52891274956E+02  0.00000000000E+00 0.  1.
         14    1    4    4    0    0  0.15143906178E+02 -0.71802848724E+02 -0.81637102645E+02  0.10977068601E+03  0.00000000000E+00 0. -1.
         -5    1    5    5    0  502  0.25060252867E+02 -0.84957700136E+01 -0.53335829106E+02  0.59724325432E+02  0.47000000000E+01 0.  1.
         11    1    6    6    0    0 -0.52900789821E+02  0.92016303727E+01 -0.15063427589E+02  0.55768005307E+02  0.00000000000E+00 0. -1.
        -12    1    6    6    0    0 -0.14214334712E+02  0.36799945622E+02  0.52855664944E+02  0.65954564859E+02  0.00000000000E+00 0.  1.
</event>
<event>
12    1  0.1050869E+000  0.2174568E+03  0.7818608E-02  0.1136787E+00
         21   -1    0    0  501  502  0.00000000000E+00  0.00000000000E+00  0.76000559861E+02  0.76000559861E+02  0.00000000000E+00 0. -1.
         21   -1    0    0  502  503 -0.00000000000E+00 -0.00000000000E+00 -0.61158781246E+03  0.61158781246E+03  0.00000000000E+00 0. -1.
         -6    2    1    2    0  503  0.18473895840E+02  0.12908527063E+03 -0.29285914793E+03  0.36169825041E+03  0.16749582654E+03 0.  0.
        -24    2    3    3    0    0  0.23829415684E+02  0.73756385984E+02 -0.81895772604E+02  0.14348367071E+03  0.88728804027E+02 0.  0.
          6    2    1    2  501    0 -0.18473895840E+02 -0.12908527063E+03 -0.24272810468E+03  0.32589012191E+03  0.17402053568E+03 0.  0.
         24    2    5    5    0    0 -0.44757038971E+02 -0.15932278856E+02 -0.59331460132E+02  0.10874772073E+03  0.77774125229E+02 0.  0.
          5    1    5    5  501    0  0.26283143131E+02 -0.11315299178E+03 -0.18339664454E+03  0.21714240118E+03  0.47000000000E+01 0. -1.
        -13    1    6    6    0    0 -0.52555633462E+02 -0.30361985069E+02 -0.16522706653E+02  0.62904249308E+02  0.00000000000E+00 0.  1.
         14    1    6    6    0    0  0.77985944907E+01  0.14429706213E+02 -0.42808753479E+02  0.45843471420E+02  0.00000000000E+00 0. -1.
         -5    1    3    3    0  503 -0.53555198441E+01  0.55328884649E+02 -0.21096337532E+03  0.21821457971E+03  0.47000000000E+01 0.  1.
         11    1    4    4    0    0 -0.29997294968E+02  0.11740118434E+02 -0.84255145931E+01  0.33296507060E+02  0.00000000000E+00 0. -1.
        -12    1    4    4    0    0  0.53826710652E+02  0.62016267550E+02 -0.73470258011E+02  0.11018716365E+03  0.00000000000E+00 0.  1.
</event>
<event>
12    1  0.1050869E+000  0.1824031E+03  0.7818608E-02  0.1165594E+00
         21   -1    0    0  501  502  0.00000000000E+00  0.00000000000E+00  0.10318396167E+03  0.10318396167E+03  0.00000000000E+00 0.  1.
         21   -1    0    0  502  503 -0.00000000000E+00 -0.00000000000E+00 -0.67318697067E+03  0.67318697067E+03  0.00000000000E+00 0.  1.
         -6    2    1    2    0  503  0.64409917508E+02 -0.87464928356E+01 -0.43646932563E+01  0.18204981047E+03  0.16999395382E+03 0.  0.
        -24    2    3    3    0    0  0.29609005910E+01 -0.12760345135E+02  0.53319207663E+02  0.97541733252E+02  0.80621699807E+02 0.  0.
          6    2    1    2  501    0 -0.64409917508E+02  0.87464928356E+01 -0.56563831574E+03  0.59432112187E+03  0.17042814631E+03 0.  0.
         24    2    5    5    0    0 -0.78262964182E+02 -0.88350324040E+01 -0.55807622423E+03  0.57023186784E+03  0.86672727458E+02 0.  0.
          5    1    5    5  501    0  0.13853046674E+02  0.17581525240E+02 -0.75620915129E+01  0.24089254035E+02  0.47000000000E+01 0. -1.
        -11    1    6    6    0    0 -0.81230435792E+02 -0.11960206366E+02 -0.27197710083E+03  0.28410028795E+03  0.00000000000E+00 0.  1.
         12    1    6    6    0    0  0.29674716101E+01  0.31251739617E+01 -0.28609912340E+03  0.28613157989E+03  0.00000000000E+00 0. -1.
         -5    1    3    3    0  503  0.61449016917E+02  0.40138522990E+01 -0.57683900919E+02  0.84508077221E+02  0.47000000000E+01 0.  1.
         13    1    4    4    0    0 -0.36403320551E+02 -0.13558320584E+02  0.12450026346E+02  0.40792560109E+02  0.00000000000E+00 0. -1.
        -14    1    4    4    0    0  0.39364221142E+02  0.79797544940E+00  0.40869181317E+02  0.56749173143E+02  0.00000000000E+00 0.  1.
</event>
<event>
12    1  0.1050869E+000  0.2424277E+03  0.7818608E-02  0.1118322E+00
         21   -1    0    0  503  502  0.00000000000E+00  0.00000000000E+00  0.82073571236E+03  0.82073571236E+03  0.00000000000E+00 0. -1.
         21   -1    0    0  501  503 -0.00000000000E+00 -0.00000000000E+00 -0.13667921258E+03  0.13667921258E+03  0.00000000000E+00 0. -1.
          6    2    1    2  501    0  0.80739351378E+02 -0.15023570418E+03  0.11412265933E+02  0.24269619450E+03  0.17228346798E+03 0.  0.
         24    2    3    3    0    0  0.47273961727E+02 -0.10599994713E+03  0.73923489452E+02  0.15899148990E+03  0.79641668232E+02 0.  0.
         -6    2    1    2    0  502 -0.80739351378E+02  0.15023570418E+03  0.67264423384E+03  0.71471873045E+03  0.17112272981E+03 0.  0.
        -24    2    5    5    0    0  0.52855668331E+01  0.11745396601E+03  0.31097709860E+03  0.34148939663E+03  0.78005645986E+02 0.  0.
          5    1    3    3  501    0  0.33465389650E+02 -0.44235757044E+02 -0.62511223519E+02  0.83704704596E+02  0.47000000000E+01 0. -1.
        -13    1    4    4    0    0 -0.15479790005E+01 -0.89073484640E+02  0.46495500703E+02  0.10049036516E+03  0.00000000000E+00 0.  1.
         14    1    4    4    0    0  0.48821940728E+02 -0.16926462495E+02  0.27427988749E+02  0.58501124740E+02  0.00000000000E+00 0. -1.
         -5    1    5    5    0  502 -0.86024918211E+02  0.32781738170E+02  0.36166713524E+03  0.37322933382E+03  0.47000000000E+01 0.  1.
         13    1    6    6    0    0  0.18581473053E+02  0.59737752538E+01  0.10597843217E+03  0.10776077773E+03  0.00000000000E+00 0. -1.
        -14    1    6    6    0    0 -0.13295906220E+02  0.11148019076E+03  0.20499866644E+03  0.23372861890E+03  0.00000000000E+00 0.  1.
</event>
<event>
12    1  0.1050869E+000  0.1767103E+03  0.7818608E-02  0.1171058E+00
         21   -1    0    0  501  502  0.00000000000E+00  0.00000000000E+00  0.16001882422E+03  0.16001882422E+03  0.00000000000E+00 0.  1.
         21   -1    0    0  502  503 -0.00000000000E+00 -0.00000000000E+00 -0.19512247619E+03  0.19512247619E+03  0.00000000000E+00 0.  1.
         -6    2    1    2    0  503 -0.39581127095E+02  0.11510873225E+01 -0.13051283679E+02  0.17706027922E+03  0.17208142215E+03 0.  0.
        -24    2    3    3    0    0 -0.72225621566E+02 -0.38761038473E+02 -0.34712721078E+02  0.12093587566E+03  0.81863022812E+02 0.  0.
          6    2    1    2  501    0  0.39581127095E+02 -0.11510873225E+01 -0.22052368289E+02  0.17808102119E+03  0.17221658613E+03 0.  0.
         24    2    5    5    0    0  0.46282642086E+02  0.35675325685E+02 -0.67451283850E+02  0.11905351462E+03  0.78798806013E+02 0.  0.
          5    1    5    5  501    0 -0.67015149905E+01 -0.36826413007E+02  0.45398915561E+02  0.59027506573E+02  0.47000000000E+01 0. -1.
        -11    1    6    6    0    0  0.56494839486E+02 -0.30883555159E+01 -0.29306398488E+02  0.63718677173E+02  0.00000000000E+00 0.  1.
         12    1    6    6    0    0 -0.10212197400E+02  0.38763681201E+02 -0.38144885362E+02  0.55334837446E+02  0.00000000000E+00 0. -1.
         -5    1    3    3    0  503  0.32644494471E+02  0.39912125796E+02  0.21661437399E+02  0.56124403560E+02  0.47000000000E+01 0.  1.
         11    1    4    4    0    0 -0.64276517114E+02 -0.55605604619E+02 -0.48414355772E+02  0.97813106291E+02  0.00000000000E+00 0. -1.
        -12    1    4    4    0    0 -0.79491044517E+01  0.16844566145E+02  0.13701634695E+02  0.23122769374E+02  0.00000000000E+00 0.  1.
</event>
<event>
12    1  0.1050869E+000  0.1960331E+03  0.7818608E-02  0.1153371E+00
         21   -1    0    0  503  502  0.00000000000E+00  0.00000000000E+00  0.13593265093E+03  0.13593265093E+03  0.00000000000E+00 0. -1.
         21   -1    0    0  501  503 -0.00000000000E+00 -0.00000000000E+00 -0.64982442341E+03  0.64982442341E+03  0.00000000000E+00 0. -1.
          6    2    1    2  501    0  0.60148896184E+02  0.71919607089E+02  0.39314383932E+02  0.19884477692E+03  0.17088974494E+03 0.  0.
         24    2    3    3    0    0 -0.25068231256E+01 -0.22555714682E+02  0.25775117383E+02  0.84578739422E+02  0.77292703789E+02 0.  0.
         -6    2    1    2    0  502 -0.60148896184E+02 -0.71919607089E+02 -0.55320615641E+03  0.58691229743E+03  0.17215886206E+03 0.  0.
        -24    2    5    5    0    0  0.26969169875E+02 -0.31162149039E+01 -0.24873685013E+03  0.26280257422E+03  0.80362463165E+02 0.  0.
          5    1    3    3  501    0  0.62655719310E+02  0.94475321770E+02  0.13539266549E+02  0.11426603749E+03  0.47000000000E+01 0. -1.
        -13    1    4    4    0    0  0.32203871162E+02  0.68537744936E+01  0.13746323334E+01  0.32953803372E+02  0.00000000000E+00 0.  1.
         14    1    4    4    0    0 -0.34710694288E+02 -0.29409489176E+02  0.24400485050E+02  0.51624936050E+02  0.00000000000E+00 0. -1.
         -5    1    5    5    0  502 -0.87118066060E+02 -0.68803392185E+02 -0.30446930628E+03  0.32410972320E+03  0.47000000000E+01 0.  1.
         11    1    6    6    0    0  0.77271579219E+01  0.16049321243E+02 -0.22783996779E+03  0.22853520649E+03  0.00000000000E+00 0. -1.
        -12    1    6    6    0    0  0.19242011953E+02 -0.19165536146E+02 -0.20896882337E+02  0.34267367731E+02  0.00000000000E+00 0.  1.
</event>
<event>
12    1  0.1050869E+000  0.1918351E+03  0.7818608E-02  0.1157043E+00
         21   -1    0    0  501  502  0.00000000000E+00  0.00000000000E+00  0.28130026829E+03  0.28130026829E+03  0.00000000000E+00 0. -1.
         21   -1    0    0  502  503 -0.00000000000E+00 -0.00000000000E+00 -0.20166917196E+03  0.20166917196E+03  0.00000000000E+00 0. -1.
         -6    2    1    2    0  503  0.32641392871E+02  0.78675699116E+02 -0.10394177825E+03  0.21818474767E+03  0.17188765136E+03 0.  0.
        -24    2    3    3    0    0 -0.45206030987E+02  0.63276379268E+02 -0.62380239140E+02  0.12848072331E+03  0.81046385582E+02 0.  0.
          6    2    1    2  501    0 -0.32641392871E+02 -0.78675699116E+02  0.18357287458E+03  0.26478469259E+03  0.17075305850E+03 0.  0.
         24    2    5    5    0    0 -0.75775300363E+02 -0.81511948957E+02  0.16750684638E+03  0.21842969770E+03  0.85246086626E+02 0.  0.
          5    1    5    5  501    0  0.43133907492E+02  0.28362498411E+01  0.16066028193E+02  0.46354994883E+02  0.47000000000E+01 0. -1.
        -13    1    6    6    0    0 -0.38879773273E+02 -0.61863350110E+02  0.38027364288E+02  0.82369844550E+02  0.00000000000E+00 0.  1.
         14    1    6    6    0    0 -0.36895527090E+02 -0.19648598847E+02  0.12947948210E+03  0.13605985315E+03  0.00000000000E+00 0. -1.
         -5    1    3    3    0  503  0.77847423858E+02  0.15399319848E+02 -0.41561539105E+02  0.89704024357E+02  0.47000000000E+01 0.  1.
         11    1    4    4    0    0  0.17003534639E+02  0.42706531774E+02 -0.33484681639E+02  0.56869956488E+02  0.00000000000E+00 0. -1.
        -12    1    4    4    0    0 -0.62209565627E+02  0.20569847493E+02 -0.28895557501E+02  0.71610766821E+02  0.00000000000E+00 0.  1.
</event>
<event>
12    1  0.1050869E+000  0.2744540E+03  0.7818608E-02  0.1098824E+00
         21   -1    0    0  501  502  0.00000000000E+00  0.00000000000E+00  0.10199828109E+04  0.10199828109E+04  0.00000000000E+00 0.  1.
         21   -1    0    0  502  503 -0.00000000000E+00 -0.00000000000E+00 -0.84098968809E+02  0.84098968809E+02  0.00000000000E+00 0.  1.
         -6    2    1    2    0  503 -0.56000364780E+01  0.21342445198E+03  0.66150469488E+03  0.71599816397E+03  0.17170775273E+03 0.  0.
        -24    2    3    3    0    0 -0.45012143616E+02  0.15769046614E+03  0.32634815200E+03  0.37392859560E+03  0.80169209250E+02 0.  0.
          6    2    1    2  501    0  0.56000364780E+01 -0.21342445198E+03  0.27437914720E+03  0.38808361573E+03  0.17246338530E+03 0.  0.
         24    2    5    5    0    0 -0.17764394930E+02 -0.86323000547E+02  0.50126073156E+02  0.12921645514E+03  0.80106397493E+02 0.  0.
          5    1    5    5  501    0  0.23364431408E+02 -0.12710145143E+03  0.22425307405E+03  0.25886716059E+03  0.47000000000E+01 0. -1.
        -13    1    6    6    0    0  0.19622669813E+02  0.47230280876E+01  0.42463746624E+01  0.20624933035E+02  0.00000000000E+00 0.  1.
         14    1    6    6    0    0 -0.37387064743E+02 -0.91046028634E+02  0.45879698494E+02  0.10859152211E+03  0.00000000000E+00 0. -1.
         -5    1    3    3    0  503  0.39412107138E+02  0.55733985844E+02  0.33515654288E+03  0.34206956837E+03  0.47000000000E+01 0.  1.
         11    1    4    4    0    0 -0.49478552382E+02  0.49998774696E+02  0.17049190587E+03  0.18443289995E+03  0.00000000000E+00 0. -1.
        -12    1    4    4    0    0  0.44664087665E+01  0.10769169144E+03  0.15585624613E+03  0.18949569565E+03  0.00000000000E+00 0.  1.
</event>
<event>
12    1  0.1050869E+000  0.1753546E+03  0.7818608E-02  0.1177064E+00
         21   -1    0    0  501  502  0.00000000000E+00  0.00000000000E+00  0.23953100139E+02  0.23953100139E+02  0.00000000000E+00 0.  1.
         21   -1    0    0  502  503 -0.00000000000E+00 -0.00000000000E+00 -0.11634643441E+04  0.11634643441E+04  0.00000000000E+00 0.  1.
         -6    2    1    2    0  503 -0.67449243409E+01  0.31734968130E+02 -0.49712171323E+03  0.52152440584E+03  0.15428903367E+03 0.  0.
        -24    2    3    3    0    0  0.60989270171E+01  0.49131201367E+02 -0.17971008903E+03  0.20334234690E+03  0.81248520521E+02 0.  0.
          6    2    1    2  501    0  0.67449243409E+01 -0.31734968130E+02 -0.64238953075E+03  0.66589303842E+03  0.17232709362E+03 0.  0.
         24    2    5    5    0    0 -0.41068080121E+02 -0.63765763207E+02 -0.30029803697E+03  0.31896259100E+03  0.76194249714E+02 0.  0.
          5    1    5    5  501    0  0.47813004462E+02  0.32030795076E+02 -0.34209149378E+03  0.34693044741E+03  0.47000000000E+01 0. -1.
        -11    1    6    6    0    0 -0.48756713623E+02 -0.73608100691E+02 -0.28877008467E+03  0.30196610971E+03  0.00000000000E+00 0.  1.
         12    1    6    6    0    0  0.76886335018E+01  0.98423374842E+01 -0.11527952301E+02  0.16996481298E+02  0.00000000000E+00 0. -1.
         -5    1    3    3    0  503 -0.12843851358E+02 -0.17396233237E+02 -0.31741162420E+03  0.31818205894E+03  0.47000000000E+01 0.  1.
         13    1    4    4    0    0  0.22604931484E+02  0.32779214318E+02 -0.25259701310E+02  0.47154133742E+02  0.00000000000E+00 0. -1.
        -14    1    4    4    0    0 -0.16506004467E+02  0.16351987049E+02 -0.15445038772E+03  0.15618821316E+03  0.00000000000E+00 0.  1.
</event>
<event>
12    1  0.1050869E+000  0.2889719E+03  0.7818608E-02  0.1091092E+00
         21   -1    0    0  503  502  0.00000000000E+00  0.00000000000E+00  0.12359849179E+03  0.12359849179E+03  0.00000000000E+00 0. -1.
         21   -1    0    0  501  503 -0.00000000000E+00 -0.00000000000E+00 -0.69927263674E+03  0.69927263674E+03  0.00000000000E+00 0. -1.
          6    2    1    2  501    0 -0.12283073266E+03  0.19682112443E+03 -0.20729054479E+03  0.35563197420E+03  0.17227532385E+03 0.  0.
         24    2    3    3    0    0 -0.11776813867E+03  0.22121965134E+03 -0.18749832844E+03  0.32346460251E+03  0.81647151091E+02 0.  0.
         -6    2    1    2    0  502  0.12283073266E+03 -0.19682112443E+03 -0.36838360016E+03  0.46723915432E+03  0.16964671102E+03 0.  0.
        -24    2    5    5    0    0  0.27820655941E+02 -0.15312053795E+03 -0.28094919365E+03  0.33084442796E+03  0.79408425643E+02 0.  0.
          5    1    3    3  501    0 -0.50625939943E+01 -0.24398526918E+02 -0.19792216349E+02  0.32167371695E+02  0.47000000000E+01 0. -1.
        -13    1    4    4    0    0  0.47915163800E+00  0.71033326444E+02 -0.36467984643E+02  0.79849088635E+02  0.00000000000E+00 0.  1.
         14    1    4    4    0    0 -0.11824729030E+03  0.15018632490E+03 -0.15103034380E+03  0.24361551387E+03  0.00000000000E+00 0. -1.
         -5    1    5    5    0  502  0.95010076720E+02 -0.43700586473E+02 -0.87434406515E+02  0.13639472636E+03  0.47000000000E+01 0.  1.
         11    1    6    6    0    0 -0.40628621966E+01 -0.41354363978E+01 -0.72071446867E+02  0.72304233188E+02  0.00000000000E+00 0. -1.
        -12    1    6    6    0    0  0.31883518138E+02 -0.14898510155E+03 -0.20887774678E+03  0.25854019477E+03  0.00000000000E+00 0.  1.
</event>
<event>
12    1  0.1050869E+000  0.2293475E+03  0.7818608E-02  0.1127268E+00
         21   -1    0    0  503  502  0.00000000000E+00  0.00000000000E+00  0.31623719716E+03  0.31623719716E+03  0.00000000000E+00 0.  1.
         21   -1    0    0  501  503 -0.00000000000E+00 -0.00000000000E+00 -0.38056854957E+03  0.38056854957E+03  0.00000000000E+00 0. -1.
          6    2    1    2  501    0  0.12810888414E+03  0.79823618506E+02 -0.29395985004E+03  0.37226061041E+03  0.17141141258E+03 0.  0.
         24    2    3    3    0    0  0.11104740495E+03  0.12157636270E+03 -0.24477940153E+03  0.30536373279E+03  0.78852493813E+02 0.  0.
         -6    2    1    2    0  502 -0.12810888414E+03 -0.79823618506E+02  0.22962849762E+03  0.32454513633E+03  0.17267484567E+03 0.  0.
        -24    2    5    5    0    0 -0.14558182512E+03 -0.26062552395E+02  0.18488590988E+03  0.25229871735E+03  0.87169482424E+02 0.  0.
          5    1    3    3  501    0  0.17061479188E+02 -0.41752744191E+02 -0.49180448506E+02  0.66896877617E+02  0.47000000000E+01 0. -1.
        -13    1    4    4    0    0 -0.11071309210E+01  0.97432013103E+01  0.38812956809E+01  0.10546097231E+02  0.00000000000E+00 0.  1.
         14    1    4    4    0    0  0.11215453587E+03  0.11183316139E+03 -0.24866069721E+03  0.29481763556E+03  0.00000000000E+00 0. -1.
         -5    1    5    5    0  502  0.17472940981E+02 -0.53761066111E+02  0.44742587750E+02  0.72246418973E+02  0.47000000000E+01 0.  1.
         11    1    6    6    0    0 -0.14500690771E+02 -0.13567769978E+02 -0.56902218495E+01  0.20657517753E+02  0.00000000000E+00 0. -1.
        -12    1    6    6    0    0 -0.13108113435E+03 -0.12494782417E+02  0.19057613172E+03  0.23164119960E+03  0.00000000000E+00 0.  1.
</event>
<event>
12    1  0.1050869E+000  0.1789367E+03  0.7818608E-02  0.1168886E+00
         21   -1    0    0  501  502  0.00000000000E+00  0.00000000000E+00  0.11770626818E+04  0.11770626818E+04  0.00000000000E+00 0. -1.
         21   -1    0    0  502  503 -0.00000000000E+00 -0.00000000000E+00 -0.32846221596E+02  0.32846221596E+02  0.00000000000E+00 0. -1.
         -6    2    1    2    0  503  0.48856996848E+02  0.89676117611E+01  0.82330126868E+03  0.84247875886E+03  0.17169174680E+03 0.  0.
        -24    2    3    3    0    0  0.96179203882E+02 -0.12493951345E+02  0.53015680005E+03  0.54472758849E+03  0.79090928316E+02 0.  0.
          6    2    1    2  501    0 -0.48856996848E+02 -0.89676117611E+01  0.32091519154E+03  0.36743014455E+03  0.17190382998E+03 0.  0.
         24    2    5    5    0    0 -0.40939571638E+02 -0.71600253821E+02  0.21199927738E+03  0.24145276630E+03  0.80951219089E+02 0.  0.
          5    1    5    5  501    0 -0.79174252093E+01  0.62632642059E+02  0.10891591416E+03  0.12597737825E+03  0.47000000000E+01 0. -1.
        -13    1    6    6    0    0 -0.83223594810E+01 -0.17729050065E+02  0.15586349109E+03  0.15708917448E+03  0.00000000000E+00 0.  1.
         14    1    6    6    0    0 -0.32617212157E+02 -0.53871203755E+02  0.56135786289E+02  0.84363591823E+02  0.00000000000E+00 0. -1.
         -5    1    3    3    0  503 -0.47322207034E+02  0.21461563106E+02  0.29314446863E+03  0.29775117037E+03  0.47000000000E+01 0.  1.
         11    1    4    4    0    0  0.83064709650E+02 -0.37024670572E+02  0.46614190829E+03  0.47493036425E+03  0.00000000000E+00 0. -1.
        -12    1    4    4    0    0  0.13114494232E+02  0.24530719226E+02  0.64014891760E+02  0.69797224241E+02  0.00000000000E+00 0.  1.
</event>
<event>
12    1  0.1050869E+000  0.1820286E+03  0.7818608E-02  0.1165868E+00
         21   -1    0    0  501  502  0.00000000000E+00  0.00000000000E+00  0.15299135953E+02  0.15299135953E+02  0.00000000000E+00 0. -1.
         21   -1    0    0  502  503 -0.00000000000E+00 -0.00000000000E+00 -0.21753796174E+04  0.21753796174E+04  0.00000000000E+00 0. -1.
         -6    2    1    2    0  503  0.47687821035E+02 -0.35113115801E+02 -0.10044596240E+04  0.10208095378E+04  0.17206370039E+03 0.  0.
        -24    2    3    3    0    0  0.89314203383E+02 -0.49444672067E+02 -0.85511629329E+03  0.86504153837E+03  0.81554800764E+02 0.  0.
          6    2    1    2  501    0 -0.47687821035E+02  0.35113115801E+02 -0.11556208574E+04  0.11698692155E+04  0.17212598936E+03 0.  0.
         24    2    5    5    0    0 -0.67173669368E+02 -0.66278249969E+01 -0.42369352069E+03  0.43647865065E+03  0.80256981522E+02 0.  0.
          5    1    5    5  501    0  0.19485848333E+02  0.41740940798E+02 -0.73192733672E+03  0.73339056488E+03  0.47000000000E+01 0. -1.
        -11    1    6    6    0    0 -0.85614305999E+02 -0.37523721271E+01 -0.33009556905E+03  0.34103808350E+03  0.00000000000E+00 0.  1.
         12    1    6    6    0    0  0.18440636631E+02 -0.28754528698E+01 -0.93597951638E+02  0.95440567158E+02  0.00000000000E+00 0. -1.
         -5    1    3    3    0  503 -0.41626382349E+02  0.14331556266E+02 -0.14934333071E+03  0.15576799941E+03  0.47000000000E+01 0.  1.
         13    1    4    4    0    0  0.10274465901E+02 -0.41074393513E+02 -0.16429566936E+03  0.16966360076E+03  0.00000000000E+00 0. -1.
        -14    1    4    4    0    0  0.79039737482E+02 -0.83702785538E+01 -0.69082062393E+03  0.69537793761E+03  0.00000000000E+00 0.  1.
</event>
<event>
12    1  0.1050869E+000  0.1904878E+03  0.7818608E-02  0.1158779E+00
         21   -1    0    0  503  502  0.00000000000E+00  0.00000000000E+00  0.21475353426E+03  0.21475353426E+03  0.00000000000E+00 0.  1.
         21   -1    0    0  501  503 -0.00000000000E+00 -0.00000000000E+00 -0.24696117622E+03  0.24696117622E+03  0.00000000000E+00 0.  1.
          6    2    1    2  501    0 -0.44644315383E+02  0.59091347260E+02  0.11596383788E+03  0.22300947821E+03  0.17550132039E+03 0.  0.
         24    2    3    3    0    0 -0.59706745566E+01 -0.34165893289E+02  0.39520376732E+02  0.96288303331E+02  0.80663622299E+02 0.  0.
         -6    2    1    2    0  502  0.44644315383E+02 -0.59091347260E+02 -0.14817147984E+03  0.23870523227E+03  0.17187349493E+03 0.  0.
        -24    2    5    5    0    0  0.94405890797E+02 -0.58534357328E+02 -0.10585960785E+03  0.17321546867E+03  0.80365408026E+02 0.  0.
          5    1    3    3  501    0 -0.38673640826E+02  0.93257240549E+02  0.76443461147E+02  0.12672117487E+03  0.47000000000E+01 0. -1.
        -13    1    4    4    0    0  0.28512161615E+02 -0.34455208414E+02  0.12031385165E+01  0.44738711304E+02  0.00000000000E+00 0.  1.
         14    1    4    4    0    0 -0.34482836172E+02  0.28931512456E+00  0.38317238215E+02  0.51549592027E+02  0.00000000000E+00 0. -1.
         -5    1    5    5    0  502 -0.49761575414E+02 -0.55698993155E+00 -0.42311871984E+02  0.65489763599E+02  0.47000000000E+01 0.  1.
         13    1    6    6    0    0  0.41067272976E+02 -0.54086992194E+02 -0.97832904458E+02  0.11909324426E+03  0.00000000000E+00 0. -1.
        -14    1    6    6    0    0  0.53338617821E+02 -0.44473651343E+01 -0.80267033971E+01  0.54122224410E+02  0.00000000000E+00 0.  1.
</event>
<event>
12    1  0.1050869E+000  0.2103280E+03  0.7818608E-02  0.1141377E+00
         21   -1    0    0  503  502  0.00000000000E+00  0.00000000000E+00  0.46688162781E+03  0.46688162781E+03  0.00000000000E+00 0. -1.
         21   -1    0    0  501  503 -0.00000000000E+00 -0.00000000000E+00 -0.23085132445E+03  0.23085132445E+03  0.00000000000E+00 0. -1.
          6    2    1    2  501    0 -0.11978676727E+03  0.15941031252E+02  0.38600099250E+03  0.43941322335E+03  0.17170972179E+03 0.  0.
         24    2    3    3    0    0 -0.29890895193E+02 -0.18631314715E+02  0.29633101617E+03  0.30773441118E+03  0.75151880699E+02 0.  0.
         -6    2    1    2    0  502  0.11978676727E+03 -0.15941031252E+02 -0.14997068914E+03  0.25831972890E+03  0.17214786857E+03 0.  0.
        -24    2    5    5    0    0  0.14190377011E+03 -0.18049200253E+01 -0.75617055298E+02  0.17932894261E+03  0.79378793741E+02 0.  0.
          5    1    3    3  501    0 -0.89895872076E+02  0.34572345967E+02  0.89669976330E+02  0.13167881218E+03  0.47000000000E+01 0. -1.
        -13    1    4    4    0    0 -0.48775003039E+02 -0.23947095018E+02  0.13995852818E+03  0.15013611787E+03  0.00000000000E+00 0.  1.
         14    1    4    4    0    0  0.18884107845E+02  0.53157803026E+01  0.15637248800E+03  0.15759829330E+03  0.00000000000E+00 0. -1.
         -5    1    5    5    0  502 -0.22117002843E+02 -0.14136111226E+02 -0.74353633837E+02  0.78990786299E+02  0.47000000000E+01 0.  1.
         11    1    6    6    0    0  0.10184647683E+03 -0.78787038871E+01 -0.10570135132E+02  0.10269618578E+03  0.00000000000E+00 0. -1.
        -12    1    6    6    0    0  0.40057293287E+02  0.60737838618E+01 -0.65046920167E+02  0.76632756828E+02  0.00000000000E+00 0.  1.
</event>
<event>
12    1  0.1050869E+000  0.1808486E+03  0.7818608E-02  0.1167470E+00
         21   -1    0    0  503  502  0.00000000000E+00  0.00000000000E+00  0.12534491697E+03  0.12534491697E+03  0.00000000000E+00 0. -1.
         21   -1    0    0  501  503 -0.00000000000E+00 -0.00000000000E+00 -0.28055860414E+03  0.28055860414E+03  0.00000000000E+00 0. -1.
          6    2    1    2  501    0 -0.24112078213E+02 -0.42372309619E+02 -0.19711771755E+02  0.17992345227E+03  0.17206710840E+03 0.  0.
         24    2    3    3    0    0  0.34023922398E+02 -0.10741308626E+02  0.19770167285E+02  0.10271446121E+03  0.94267693407E+02 0.  0.
         -6    2    1    2    0  502  0.24112078213E+02  0.42372309619E+02 -0.13550191541E+03  0.22598006883E+03  0.17415343089E+03 0.  0.
        -24    2    5    5    0    0  0.43301718619E+02 -0.40937491362E+02 -0.64359975388E+02  0.11466056978E+03  0.73850679054E+02 0.  0.
          5    1    3    3  501    0 -0.58136000610E+02 -0.31631000993E+02 -0.39481939040E+02  0.77208991064E+02  0.47000000000E+01 0. -1.
        -11    1    4    4    0    0  0.22917722451E+02 -0.15334599408E+02 -0.36178724890E+02  0.45489252312E+02  0.00000000000E+00 0.  1.
         12    1    4    4    0    0  0.11106199947E+02  0.45932907812E+01  0.55948892174E+02  0.57225208894E+02  0.00000000000E+00 0. -1.
         -5    1    5    5    0  502 -0.19189640406E+02  0.83309800981E+02 -0.71141940026E+02  0.11131949905E+03  0.47000000000E+01 0.  1.
         11    1    6    6    0    0 -0.10017864435E+02 -0.40345851508E+02 -0.28205148428E+02  0.50236199494E+02  0.00000000000E+00 0. -1.
        -12    1    6    6    0    0  0.53319583053E+02 -0.59163985385E+00 -0.36154826960E+02  0.64424370289E+02  0.00000000000E+00 0.  1.
</event>
<event>
12    1  0.1050869E+000  0.2068992E+03  0.7818608E-02  0.1144470E+00
         21   -1    0    0  501  502  0.00000000000E+00  0.00000000000E+00  0.62953948849E+03  0.62953948849E+03  0.00000000000E+00 0.  1.
         21   -1    0    0  502  503 -0.00000000000E+00 -0.00000000000E+00 -0.31456673236E+03  0.31456673236E+03  0.00000000000E+00 0.  1.
         -6    2    1    2    0  503  0.10083275754E+03  0.50708351935E+02  0.57616798382E+03  0.61219018940E+03  0.17340328852E+03 0.  0.
        -24    2    3    3    0    0  0.13307570710E+03  0.13920946228E+02  0.40417988151E+03  0.43331895540E+03  0.80628803347E+02 0.  0.
          6    2    1    2  501    0 -0.10083275754E+03 -0.50708351935E+02 -0.26119522768E+03  0.33191603145E+03  0.17089974552E+03 0.  0.
         24    2    5    5    0    0 -0.19831010309E+02 -0.17726287014E+02 -0.31610322364E+02  0.86191758306E+02  0.75645994598E+02 0.  0.
          5    1    5    5  501    0 -0.81001747232E+02 -0.32982064920E+02 -0.22958490532E+03  0.24572427314E+03  0.47000000000E+01 0. -1.
        -11    1    6    6    0    0 -0.19981663542E+02  0.97760146607E+01 -0.48888862396E+02  0.53711806960E+02  0.00000000000E+00 0.  1.
         12    1    6    6    0    0  0.15065323212E+00 -0.27502301675E+02  0.17278540032E+02  0.32479951346E+02  0.00000000000E+00 0. -1.
         -5    1    3    3    0  503 -0.32242949563E+02  0.36787405707E+02  0.17198810231E+03  0.17887123399E+03  0.47000000000E+01 0.  1.
         11    1    4    4    0    0  0.11073684583E+03  0.28340975248E+02  0.22700049667E+03  0.25415563222E+03  0.00000000000E+00 0. -1.
        -12    1    4    4    0    0  0.22338861269E+02 -0.14420029020E+02  0.17717938484E+03  0.17916332318E+03  0.00000000000E+00 0.  1.
</event>
