<event>
12    1  0.8356052E-002  0.2448953E+03  0.7818608E-02  0.1118674E+00
         21   -1    0    0  501  502  0.00000000000E+00  0.00000000000E+00  0.25205937165E+04  0.25205937165E+04  0.00000000000E+00 0. -1.
         21   -1    0    0  502  503 -0.00000000000E+00 -0.00000000000E+00 -0.34016414418E+02  0.34016414418E+02  0.00000000000E+00 0. -1.
         -6    2    1    2    0  503 -0.12121715437E+03 -0.96574058032E+02  0.52482103270E+03  0.57914665038E+03  0.18961429031E+03 0.  0.
        -24    2    3    3    0    0 -0.98736098570E+02 -0.65330027235E+02  0.52091541418E+03  0.54017318266E+03  0.80108482181E+02 0.  0.
          6    2    1    2  501    0  0.12121715437E+03  0.96574058032E+02  0.19617562694E+04  0.19754634806E+04  0.17305535314E+03 0.  0.
         24    2    5    5    0    0  0.44002978376E+02  0.11934300196E+03  0.11490034070E+04  0.11587200942E+04  0.79021599672E+02 0.  0.
          5    1    5    5  501    0  0.77214175998E+02 -0.22768943924E+02  0.81275286242E+03  0.81674338635E+03  0.47000000000E+01 0. -1.
        -13    1    6    6    0    0  0.17237644636E+02 -0.81203127581E+01  0.11923761871E+03  0.12075050968E+03  0.00000000000E+00 0.  1.
         14    1    6    6    0    0  0.26765333741E+02  0.12746331471E+03  0.10297657883E+04  0.10379695845E+04  0.00000000000E+00 0. -1.
         -5    1    3    3    0  503 -0.22481055804E+02 -0.31244030797E+02  0.39056185200E+01  0.38973467725E+02  0.47000000000E+01 0.  1.
         11    1    4    4    0    0 -0.87621804909E+02 -0.61576737914E+02  0.29304546140E+03  0.31200147082E+03  0.00000000000E+00 0. -1.
        -12    1    4    4    0    0 -0.11114293660E+02 -0.37532893216E+01  0.22786995277E+03  0.22817171183E+03  0.00000000000E+00 0.  1.
</event>
<event>
12    1  0.8356052E-002  0.1877739E+03  0.7818608E-02  0.1160686E+00
         21   -1    0    0  503  502  0.00000000000E+00  0.00000000000E+00  0.19653533306E+03  0.19653533306E+03  0.00000000000E+00 0. -1.
         21   -1    0    0  501  503 -0.00000000000E+00 -0.00000000000E+00 -0.18336680145E+03  0.18336680145E+03  0.00000000000E+00 0.  1.
          6    2    1    2  501    0 -0.44613315101E+01 -0.71597946905E+02  0.37307460335E+02  0.19058298440E+03  0.17258000425E+03 0.  0.
         24    2    3    3    0    0  0.17754531418E+02 -0.11258349935E+03  0.35945499024E+02  0.14370756426E+03  0.79809256436E+02 0.  0.
         -6    2    1    2    0  502  0.44613315101E+01  0.71597946905E+02 -0.24138928728E+02  0.18931915011E+03  0.17353064064E+03 0.  0.
        -24    2    5    5    0    0  0.30836204018E+02  0.18366057012E+02  0.44190452118E+02  0.98653487990E+02  0.80570038511E+02 0.  0.
          5    1    3    3  501    0 -0.22215862928E+02  0.40985552448E+02  0.13619613110E+01  0.46875420145E+02  0.47000000000E+01 0. -1.
        -11    1    4    4    0    0  0.30717812846E+02 -0.54273714312E+01  0.87207996275E+01  0.32389701031E+02  0.00000000000E+00 0.  1.
         12    1    4    4    0    0 -0.12963281428E+02 -0.10715612792E+03  0.27224699397E+02  0.11131786323E+03  0.00000000000E+00 0. -1.
         -5    1    5    5    0  502 -0.26374872508E+02  0.53231889892E+02 -0.68329380846E+02  0.90665662123E+02  0.47000000000E+01 0.  1.
         13    1    6    6    0    0  0.26261341280E+02 -0.29816990444E+02  0.17971304750E+02  0.43608241874E+02  0.00000000000E+00 0. -1.
        -14    1    6    6    0    0  0.45748627378E+01  0.48183047456E+02  0.26219147368E+02  0.55045246116E+02  0.00000000000E+00 0.  1.
</event>
<event>
12    1  0.8356052E-002  0.2272362E+03  0.7818608E-02  0.1130035E+00
         21   -1    0    0  503  502  0.00000000000E+00  0.00000000000E+00  0.30713338106E+02  0.30713338106E+02  0.00000000000E+00 0. -1.
         21   -1    0    0  501  503 -0.00000000000E+00 -0.00000000000E+00 -0.27175822086E+04  0.27175822086E+04  0.00000000000E+00 0.  1.
          6    2    1    2  501    0  0.84715890693E+01  0.13686303800E+03 -0.22011163652E+04  0.22120196967E+04  0.17121514604E+03 0.  0.
         24    2    3    3    0    0  0.38128573427E+02  0.15506244086E+03 -0.16188402230E+04  0.16286858722E+04  0.80472690985E+02 0.  0.
         -6    2    1    2    0  502 -0.84715890693E+01 -0.13686303800E+03 -0.48575250527E+03  0.53627585003E+03  0.18119887405E+03 0.  0.
        -24    2    5    5    0    0  0.36409565382E+02 -0.10555702133E+03 -0.18451648243E+03  0.23007392946E+03  0.80123277047E+02 0.  0.
          5    1    3    3  501    0 -0.29656984358E+02 -0.18199402856E+02 -0.58227614219E+03  0.58333382445E+03  0.47000000000E+01 0. -1.
        -13    1    4    4    0    0  0.51331881507E+02  0.52241333816E+02 -0.79005762296E+03  0.79344512514E+03  0.00000000000E+00 0.  1.
         14    1    4    4    0    0 -0.13203308080E+02  0.10282110704E+03 -0.82878260006E+03  0.83524074707E+03  0.00000000000E+00 0. -1.
         -5    1    5    5    0  502 -0.44881154451E+02 -0.31306016673E+02 -0.30123602284E+03  0.30620192057E+03  0.47000000000E+01 0.  1.
         13    1    6    6    0    0  0.84408117944E+01 -0.55701259953E+02 -0.26936742985E+02  0.62445702709E+02  0.00000000000E+00 0. -1.
        -14    1    6    6    0    0  0.27968753588E+02 -0.49855761377E+02 -0.15757973944E+03  0.16762822675E+03  0.00000000000E+00 0.  1.
</event>
<event>
12    1  0.8356052E-002  0.1807722E+03  0.7818608E-02  0.1167814E+00
         21   -1    0    0  503  502  0.00000000000E+00  0.00000000000E+00  0.14795492989E+03  0.14795492989E+03  0.00000000000E+00 0. -1.
         21   -1    0    0  501  503 -0.00000000000E+00 -0.00000000000E+00 -0.33479894205E+03  0.33479894205E+03  0.00000000000E+00 0. -1.
          6    2    1    2  501    0 -0.18858766960E+00 -0.51165505899E+02 -0.23707237226E+03  0.29813069905E+03  0.17338010113E+03 0.  0.
         24    2    3    3    0    0 -0.25933177690E+02  0.34054003314E+02 -0.14289414129E+03  0.16845117926E+03  0.78261480498E+02 0.  0.
         -6    2    1    2    0  502  0.18858766960E+00  0.51165505899E+02  0.50228360108E+02  0.18462317289E+03  0.17013195834E+03 0.  0.
        -24    2    5    5    0    0 -0.15636101796E+02  0.90727598076E+02  0.67957156531E+02  0.13823373275E+03  0.77552595143E+02 0.  0.
          5    1    3    3  501    0  0.25744590021E+02 -0.85219509212E+02 -0.94178230967E+02  0.12967951979E+03  0.47000000000E+01 0. -1.
        -13    1    4    4    0    0 -0.10240249545E+02  0.39916771199E+02 -0.22606927882E+02  0.47003026733E+02  0.00000000000E+00 0.  1.
         14    1    4    4    0    0 -0.15692928145E+02 -0.58627678856E+01 -0.12028721341E+03  0.12144815252E+03  0.00000000000E+00 0. -1.
         -5    1    5    5    0  502  0.15824689465E+02 -0.39562092178E+02 -0.17728796423E+02  0.46389440143E+02  0.47000000000E+01 0.  1.
         11    1    6    6    0    0  0.53183903360E+01 -0.10991125569E+02 -0.28493072890E+01  0.12538288123E+02  0.00000000000E+00 0. -1.
        -12    1    6    6    0    0 -0.20954492132E+02  0.10171872365E+03  0.70806463820E+02  0.12569544462E+03  0.00000000000E+00 0.  1.
</event>
<event>
12    1  0.8356052E-002  0.2346176E+03  0.7818608E-02  0.1123625E+00
         21   -1    0    0  501  502  0.00000000000E+00  0.00000000000E+00  0.16046058852E+03  0.16046058852E+03  0.00000000000E+00 0.  1.
         21   -1    0    0  502  503 -0.00000000000E+00 -0.00000000000E+00 -0.41404772098E+03  0.41404772098E+03  0.00000000000E+00 0.  1.
         -6    2    1    2    0  503  0.48042949162E+01  0.15843500476E+03 -0.62188575856E+01  0.23357360537E+03  0.17144451858E+03 0.  0.
        -24    2    3    3    0    0  0.37555887446E+02  0.19253859492E+02 -0.18708927747E+02  0.89969462447E+02  0.77222564114E+02 0.  0.
          6    2    1    2  501    0 -0.48042949162E+01 -0.15843500476E+03 -0.24736827487E+03  0.34093470413E+03  0.17297594367E+03 0.  0.
         24    2    5    5    0    0  0.30849187745E+02 -0.52527453741E+02 -0.19162247873E+03  0.21596565206E+03  0.78811057178E+02 0.  0.
          5    1    5    5  501    0 -0.35653482661E+02 -0.10590755102E+03 -0.55745796139E+02  0.12496905207E+03  0.47000000000E+01 0. -1.
        -13    1    6    6    0    0  0.25507687252E+02 -0.43638957338E+02 -0.41267283182E+02  0.65253270935E+02  0.00000000000E+00 0.  1.
         14    1    6    6    0    0  0.53415004929E+01 -0.88884964032E+01 -0.15035519555E+03  0.15071238112E+03  0.00000000000E+00 0. -1.
         -5    1    3    3    0  503 -0.32751592530E+02  0.13918114527E+03  0.12490070161E+02  0.14360414292E+03  0.47000000000E+01 0.  1.
         11    1    4    4    0    0  0.51112832624E+02  0.36356193110E+02 -0.24582414618E+02  0.67369054801E+02  0.00000000000E+00 0. -1.
        -12    1    4    4    0    0 -0.13556945177E+02 -0.17102333619E+02  0.58734868719E+01  0.22600407646E+02  0.00000000000E+00 0.  1.
</event>
<event>
12    1  0.8356052E-002  0.1746559E+03  0.7818608E-02  0.1173376E+00
         21   -1    0    0  501  502  0.00000000000E+00  0.00000000000E+00  0.11875618401E+03  0.11875618401E+03  0.00000000000E+00 0. -1.
         21   -1    0    0  502  503 -0.00000000000E+00 -0.00000000000E+00 -0.34469041579E+03  0.34469041579E+03  0.00000000000E+00 0. -1.
         -6    2    1    2    0  503  0.17602418400E+02  0.22625626379E+01 -0.23079786371E+03  0.28872303930E+03  0.17256411912E+03 0.  0.
        -24    2    3    3    0    0  0.19632064903E+02  0.59620945879E+02 -0.76253310084E+02  0.12379816959E+03  0.74641438466E+02 0.  0.
          6    2    1    2  501    0 -0.17602418400E+02 -0.22625626379E+01  0.48636319340E+01  0.17472356049E+03  0.17375184417E+03 0.  0.
         24    2    5    5    0    0  0.31389257959E+02 -0.35137438485E+02  0.45202208262E+02  0.10309791875E+03  0.79787318046E+02 0.  0.
          5    1    5    5  501    0 -0.48991676359E+02  0.32874875847E+02 -0.40338576328E+02  0.71625641740E+02  0.47000000000E+01 0. -1.
        -13    1    6    6    0    0  0.61509621375E+01 -0.23982248099E+02 -0.20302635344E+02  0.32018425336E+02  0.00000000000E+00 0.  1.
         14    1    6    6    0    0  0.25238295822E+02 -0.11155190386E+02  0.65504843606E+02  0.71079493417E+02  0.00000000000E+00 0. -1.
         -5    1    3    3    0  503 -0.20296465034E+01 -0.57358383241E+02 -0.15454455363E+03  0.16492486971E+03  0.47000000000E+01 0.  1.
         13    1    4    4    0    0  0.22244670544E+02  0.21864883834E+02 -0.79904007520E+02  0.85776155955E+02  0.00000000000E+00 0. -1.
        -14    1    4    4    0    0 -0.26126056410E+01  0.37756062045E+02  0.36506974358E+01  0.38022013639E+02  0.00000000000E+00 0.  1.
</event>
<event>
12    1  0.8356052E-002  0.2137235E+03  0.7818608E-02  0.1140849E+00
         21   -1    0    0  503  502  0.00000000000E+00  0.00000000000E+00  0.15888608514E+03  0.15888608514E+03  0.00000000000E+00 0.  1.
         21   -1    0    0  501  503 -0.00000000000E+00 -0.00000000000E+00 -0.95195054509E+03  0.95195054509E+03  0.00000000000E+00 0. -1.
          6    2    1    2  501    0  0.19280561168E+02  0.10854759660E+03 -0.86259519372E+03  0.88608726616E+03  0.17007602496E+03 0.  0.
         24    2    3    3    0    0  0.40315905872E+02  0.12264710769E+03 -0.83420534896E+03  0.84775509658E+03  0.78246113348E+02 0.  0.
         -6    2    1    2    0  502 -0.19280561168E+02 -0.10854759660E+03  0.69530733761E+02  0.22474936407E+03  0.18309405491E+03 0.  0.
        -24    2    5    5    0    0  0.50269731426E+02 -0.10696339710E+03  0.31390933053E+02  0.14527303246E+03  0.78426073885E+02 0.  0.
          5    1    3    3  501    0 -0.21035344704E+02 -0.14099511084E+02 -0.28389844756E+02  0.38332169583E+02  0.47000000000E+01 0. -1.
        -11    1    4    4    0    0 -0.10130935777E+02  0.43303931510E+02 -0.13217237602E+03  0.13945394697E+03  0.00000000000E+00 0.  1.
         12    1    4    4    0    0  0.50446841649E+02  0.79343176178E+02 -0.70203297294E+03  0.70830114961E+03  0.00000000000E+00 0. -1.
         -5    1    5    5    0  502 -0.69550292593E+02 -0.15841995039E+01  0.38139800708E+02  0.79476331609E+02  0.47000000000E+01 0.  1.
         11    1    6    6    0    0  0.29268942740E+02  0.29983820858E+01  0.17902132734E+01  0.29476535886E+02  0.00000000000E+00 0. -1.
        -12    1    6    6    0    0  0.21000788686E+02 -0.10996177919E+03  0.29600719780E+02  0.11579649657E+03  0.00000000000E+00 0.  1.
</event>
<event>
12    1  0.8356052E-002  0.1767202E+03  0.7818608E-02  0.1173580E+00
         21   -1    0    0  501  502  0.00000000000E+00  0.00000000000E+00  0.52333785748E+02  0.52333785748E+02  0.00000000000E+00 0.  1.
         21   -1    0    0  502  503 -0.00000000000E+00 -0.00000000000E+00 -0.58026221165E+03  0.58026221165E+03  0.00000000000E+00 0.  1.
         -6    2    1    2    0  503  0.41586849182E+02 -0.29366446821E+01 -0.20252163304E+03  0.26229932907E+03  0.16139342079E+03 0.  0.
        -24    2    3    3    0    0  0.16868130474E+02 -0.28282601339E+02 -0.20873867243E+03  0.22604778907E+03  0.80257898122E+02 0.  0.
          6    2    1    2  501    0 -0.41586849182E+02  0.29366446821E+01 -0.32540679286E+03  0.37029666833E+03  0.17173220964E+03 0.  0.
         24    2    5    5    0    0 -0.13485942410E+02 -0.55620519275E+02 -0.25498585251E+03  0.27438107392E+03  0.83616242047E+02 0.  0.
          5    1    5    5  501    0 -0.28100906772E+02  0.58557163957E+02 -0.70420940349E+02  0.95915594414E+02  0.47000000000E+01 0. -1.
        -13    1    6    6    0    0  0.22531105189E+02 -0.51761766611E+02 -0.20512412234E+03  0.21275064453E+03  0.00000000000E+00 0.  1.
         14    1    6    6    0    0 -0.36017047599E+02 -0.38587526633E+01 -0.49861730172E+02  0.61630429380E+02  0.00000000000E+00 0. -1.
         -5    1    3    3    0  503  0.24718718709E+02  0.25345956657E+02  0.62170393915E+01  0.36251539998E+02  0.47000000000E+01 0.  1.
         13    1    4    4    0    0  0.34784529737E+02  0.14820449501E+02 -0.11948921129E+03  0.12532869124E+03  0.00000000000E+00 0. -1.
        -14    1    4    4    0    0 -0.17916399263E+02 -0.43103050840E+02 -0.89249461140E+02  0.10071909783E+03  0.00000000000E+00 0.  1.
</event>
<event>
12    1  0.8356052E-002  0.2115932E+03  0.7818608E-02  0.1141093E+00
         21   -1    0    0  503  502  0.00000000000E+00  0.00000000000E+00  0.23827825276E+03  0.23827825276E+03  0.00000000000E+00 0.  1.
         21   -1    0    0  501  503 -0.00000000000E+00 -0.00000000000E+00 -0.18673932668E+03  0.18673932668E+03  0.00000000000E+00 0.  1.
          6    2    1    2  501    0 -0.11553011887E+03 -0.34663893139E+02  0.17782954267E+01  0.20765196945E+03  0.16901888720E+03 0.  0.
         24    2    3    3    0    0 -0.12974587096E+03 -0.70820929166E+02  0.60472533111E+01  0.16828532287E+03  0.80210881926E+02 0.  0.
         -6    2    1    2    0  502  0.11553011887E+03  0.34663893139E+02  0.49760630657E+02  0.21736560999E+03  0.17384733012E+03 0.  0.
        -24    2    5    5    0    0  0.69403781477E+02  0.73542581534E+02  0.77859637990E+02  0.15065102668E+03  0.80051311239E+02 0.  0.
          5    1    3    3  501    0  0.14215752096E+02  0.36157036027E+02 -0.42689578845E+01  0.39366646585E+02  0.47000000000E+01 0. -1.
        -11    1    4    4    0    0 -0.12060851849E+03 -0.62668839386E+02  0.31959623351E+02  0.13962526880E+03  0.00000000000E+00 0.  1.
         12    1    4    4    0    0 -0.91373524734E+01 -0.81520897805E+01 -0.25912370040E+02  0.28660054067E+02  0.00000000000E+00 0. -1.
         -5    1    5    5    0  502  0.46126337392E+02 -0.38878688395E+02 -0.28099007333E+02  0.66714583305E+02  0.47000000000E+01 0.  1.
         13    1    6    6    0    0  0.78183188706E+02  0.55144558832E+02  0.86053237244E+02  0.12868058519E+03  0.00000000000E+00 0. -1.
        -14    1    6    6    0    0 -0.87794072296E+01  0.18398022702E+02 -0.81935992541E+01  0.21970441493E+02  0.00000000000E+00 0.  1.
</event>
<event>
12    1  0.8356052E-002  0.1890562E+03  0.7818608E-02  0.1159887E+00
         21   -1    0    0  501  502  0.00000000000E+00  0.00000000000E+00  0.61701909895E+03  0.61701909895E+03  0.00000000000E+00 0.  1.
         21   -1    0    0  502  503 -0.00000000000E+00 -0.00000000000E+00 -0.59622599613E+02  0.59622599613E+02  0.00000000000E+00 0.  1.
         -6    2    1    2    0  503  0.72673820918E+02  0.16673596567E+02  0.20821200195E+03  0.27956226261E+03  0.17100680646E+03 0.  0.
        -24    2    3    3    0    0  0.67774302504E+02 -0.32119364346E+02  0.63636338845E+02  0.12682402026E+03  0.80060844662E+02 0.  0.
          6    2    1    2  501    0 -0.72673820918E+02 -0.16673596567E+02  0.34918449739E+03  0.39707943594E+03  0.17373189738E+03 0.  0.
         24    2    5    5    0    0 -0.11476179319E+02 -0.68148007444E+02  0.16398190231E+03  0.19529525040E+03  0.80463140217E+02 0.  0.
          5    1    5    5  501    0 -0.61197641599E+02  0.51474410877E+02  0.18520259508E+03  0.20178418555E+03  0.47000000000E+01 0. -1.
        -13    1    6    6    0    0 -0.45898393561E+02 -0.40891454451E+02  0.84527967103E+02  0.10451674890E+03  0.00000000000E+00 0.  1.
         14    1    6    6    0    0  0.34422214242E+02 -0.27256552993E+02  0.79453935203E+02  0.90778501495E+02  0.00000000000E+00 0. -1.
         -5    1    3    3    0  503  0.48995184135E+01  0.48792960913E+02  0.14457566310E+03  0.15273824235E+03  0.47000000000E+01 0.  1.
         13    1    4    4    0    0 -0.25881341293E+01 -0.34120505058E+02  0.37839058744E+01  0.34427100478E+02  0.00000000000E+00 0. -1.
        -14    1    4    4    0    0  0.70362436634E+02  0.20011407116E+01  0.59852432971E+02  0.92396919785E+02  0.00000000000E+00 0.  1.
</event>
<event>
12    1  0.8356052E-002  0.1943841E+03  0.7818608E-02  0.1155889E+00
         21   -1    0    0  503  502  0.00000000000E+00  0.00000000000E+00  0.10838578957E+03  0.10838578957E+03  0.00000000000E+00 0. -1.
         21   -1    0    0  501  503 -0.00000000000E+00 -0.00000000000E+00 -0.35110897426E+03  0.35110897426E+03  0.00000000000E+00 0.  1.
          6    2    1    2  501    0 -0.44800721950E+02  0.76821844960E+02 -0.78852287755E+02  0.20976856235E+03  0.17284810070E+03 0.  0.
         24    2    3    3    0    0 -0.79198332531E+02  0.95383858457E+02 -0.87340274411E+02  0.16949599258E+03  0.75697500861E+02 0.  0.
         -6    2    1    2    0  502  0.44800721950E+02 -0.76821844960E+02 -0.16387089693E+03  0.24972620148E+03  0.16613489788E+03 0.  0.
        -24    2    5    5    0    0  0.41626970203E+02 -0.26002879664E+02 -0.17310434894E+03  0.19776480649E+03  0.82078308115E+02 0.  0.
          5    1    3    3  501    0  0.34397610580E+02 -0.18562013497E+02  0.84879866564E+01  0.40272569773E+02  0.47000000000E+01 0. -1.
        -13    1    4    4    0    0 -0.17220741776E+02  0.10331610686E+01 -0.46252117726E+02  0.49364762364E+02  0.00000000000E+00 0.  1.
         14    1    4    4    0    0 -0.61977590754E+02  0.94350697388E+02 -0.41088156685E+02  0.12013123022E+03  0.00000000000E+00 0. -1.
         -5    1    5    5    0  502  0.31737517474E+01 -0.50818965296E+02  0.92334520099E+01  0.51961394996E+02  0.47000000000E+01 0.  1.
         13    1    6    6    0    0  0.32084513525E+01 -0.10491835277E+02  0.69616627330E+01  0.12993749096E+02  0.00000000000E+00 0. -1.
        -14    1    6    6    0    0  0.38418518851E+02 -0.15511044386E+02 -0.18006601167E+03  0.18477105739E+03  0.00000000000E+00 0.  1.
</event>
<event>
12    1  0.8356052E-002  0.1932898E+03  0.7818608E-02  0.1156151E+00
         21   -1    0    0  503  502  0.00000000000E+00  0.00000000000E+00  0.16250574627E+04  0.16250574627E+04  0.00000000000E+00 0. -1.
         21   -1    0    0  501  503 -0.00000000000E+00 -0.00000000000E+00 -0.36720259971E+02  0.36720259971E+02  0.00000000000E+00 0. -1.
          6    2    1    2  501    0 -0.41624972959E+02 -0.72979555848E+02  0.27641337082E+03  0.33569134660E+03  0.17095518322E+03 0.  0.
         24    2    3    3    0    0 -0.66270953604E+02 -0.31313814861E+02  0.83708562935E+02  0.13694353827E+03  0.79837427775E+02 0.  0.
         -6    2    1    2    0  502  0.41624972959E+02  0.72979555848E+02  0.13119238319E+04  0.13260863761E+04  0.17407550694E+03 0.  0.
        -24    2    5    5    0    0  0.47448259065E+02 -0.16075744210E+02  0.47070006740E+03  0.48012877128E+03  0.80344985634E+02 0.  0.
          5    1    3    3  501    0  0.24645980645E+02 -0.41665740987E+02  0.19270480788E+03  0.19874780833E+03  0.47000000000E+01 0. -1.
        -13    1    4    4    0    0 -0.72526542330E+02 -0.39721856357E+01  0.80949837189E+02  0.10876007421E+03  0.00000000000E+00 0.  1.
         14    1    4    4    0    0  0.62555887256E+01 -0.27341629225E+02  0.27587257461E+01  0.28183464066E+02  0.00000000000E+00 0. -1.
         -5    1    5    5    0  502 -0.58232861055E+01  0.89055300057E+02  0.84122376453E+03  0.84595760481E+03  0.47000000000E+01 0.  1.
         13    1    6    6    0    0 -0.79426539515E+01  0.47720720100E+01  0.28659056656E+03  0.28674032026E+03  0.00000000000E+00 0. -1.
        -14    1    6    6    0    0  0.55390913016E+02 -0.20847816220E+02  0.18410950084E+03  0.19338845102E+03  0.00000000000E+00 0.  1.
</event>
<event>
12    1  0.8356052E-002  0.1844027E+03  0.7818608E-02  0.1164200E+00
         21   -1    0    0  501  502  0.00000000000E+00  0.00000000000E+00  0.20277804177E+03  0.20277804177E+03  0.00000000000E+00 0. -1.
         21   -1    0    0  502  503 -0.00000000000E+00 -0.00000000000E+00 -0.17193730135E+03  0.17193730135E+03  0.00000000000E+00 0. -1.
         -6    2    1    2    0  503 -0.58964996807E+02  0.56889850415E-01 -0.20945165982E+02  0.18558838969E+03  0.17472113875E+03 0.  0.
        -24    2    3    3    0    0 -0.15073151595E+02  0.67151035579E+02  0.37828949669E+01  0.10155455445E+03  0.74582543245E+02 0.  0.
          6    2    1    2  501    0  0.58964996807E+02 -0.56889850415E-01  0.51785906398E+02  0.18912695343E+03  0.17207658274E+03 0.  0.
         24    2    5    5    0    0  0.51705624551E+02 -0.60803490521E+02  0.71282826774E+02  0.12474475184E+03  0.64105192050E+02 0.  0.
          5    1    5    5  501    0  0.72593722559E+01  0.60746600670E+02 -0.19496920376E+02  0.64382201599E+02  0.47000000000E+01 0. -1.
        -11    1    6    6    0    0  0.34764721699E+02 -0.14270472850E+01  0.46812014353E+02  0.58326555072E+02  0.00000000000E+00 0.  1.
         12    1    6    6    0    0  0.16940902851E+02 -0.59376443236E+02  0.24470812422E+02  0.66418196763E+02  0.00000000000E+00 0. -1.
         -5    1    3    3    0  503 -0.43891845211E+02 -0.67094145728E+02 -0.24728060949E+02  0.84033835242E+02  0.47000000000E+01 0.  1.
         13    1    4    4    0    0  0.11942587898E+02  0.13365868432E+02  0.30756301623E+02  0.35598060820E+02  0.00000000000E+00 0. -1.
        -14    1    4    4    0    0 -0.27015739493E+02  0.53785167147E+02 -0.26973406656E+02  0.65956493630E+02  0.00000000000E+00 0.  1.
</event>
<event>
12    1  0.8356052E-002  0.2057422E+03  0.7818608E-02  0.1145170E+00
         21   -1    0    0  503  502  0.00000000000E+00  0.00000000000E+00  0.20573107892E+04  0.20573107892E+04  0.00000000000E+00 0. -1.
         21   -1    0    0  501  503 -0.00000000000E+00 -0.00000000000E+00 -0.20632093914E+02  0.20632093914E+02  0.00000000000E+00 0. -1.
          6    2    1    2  501    0 -0.24376184095E+02  0.10877519558E+03  0.93251116312E+03  0.95493817115E+03  0.17292657356E+03 0.  0.
         24    2    3    3    0    0  0.49438511819E+02  0.34694434676E+02  0.50597605453E+03  0.51574475438E+03  0.79580234145E+02 0.  0.
         -6    2    1    2    0  502  0.24376184095E+02 -0.10877519558E+03  0.11041675322E+04  0.11230047120E+04  0.17183539359E+03 0.  0.
        -24    2    5    5    0    0 -0.21986637128E+02 -0.11994669293E+03  0.91631704271E+03  0.92913823747E+03  0.93756707574E+02 0.  0.
          5    1    3    3  501    0 -0.73814695913E+02  0.74080760901E+02  0.42653510859E+03  0.43919341676E+03  0.47000000000E+01 0. -1.
        -13    1    4    4    0    0  0.41166323120E+02  0.43063826062E+02  0.18092996747E+03  0.19048572756E+03  0.00000000000E+00 0.  1.
         14    1    4    4    0    0  0.82721886989E+01 -0.83693913865E+01  0.32504608706E+03  0.32525902683E+03  0.00000000000E+00 0. -1.
         -5    1    5    5    0  502  0.46362821223E+02  0.11171497357E+02  0.18785048947E+03  0.19386647451E+03  0.47000000000E+01 0.  1.
         11    1    6    6    0    0  0.21160426443E+02 -0.67907870712E+02  0.26700128647E+03  0.27631310053E+03  0.00000000000E+00 0. -1.
        -12    1    6    6    0    0 -0.43147063571E+02 -0.52038822222E+02  0.64931575624E+03  0.65282513694E+03  0.00000000000E+00 0.  1.
</event>
<event>
12    1  0.8356052E-002  0.2102623E+03  0.7818608E-02  0.1141673E+00
         21   -1    0    0  503  502  0.00000000000E+00  0.00000000000E+00  0.33445975584E+03  0.33445975584E+03  0.00000000000E+00 0.  1.
         21   -1    0    0  501  503 -0.00000000000E+00 -0.00000000000E+00 -0.17871103639E+03  0.17871103639E+03  0.00000000000E+00 0.  1.
          6    2    1    2  501    0  0.10611411368E+03 -0.52393333254E+02 -0.54654960347E+02  0.21571497966E+03  0.17187356186E+03 0.  0.
         24    2    3    3    0    0  0.13795222689E+03 -0.22724068523E+02 -0.60267526968E+02  0.17158424630E+03  0.79131400695E+02 0.  0.
         -6    2    1    2    0  502 -0.10611411368E+03  0.52393333254E+02  0.21040367980E+03  0.29745581257E+03  0.17379581545E+03 0.  0.
        -24    2    5    5    0    0 -0.10622724114E+03  0.57909712728E+02  0.77005467308E+02  0.16386084135E+03  0.79263937210E+02 0.  0.
          5    1    3    3  501    0 -0.31838113213E+02 -0.29669264731E+02  0.56125666205E+01  0.44130733358E+02  0.47000000000E+01 0. -1.
        -11    1    4    4    0    0  0.69920188744E+02 -0.48081045753E+02 -0.49351959586E+02  0.98164329925E+02  0.00000000000E+00 0.  1.
         12    1    4    4    0    0  0.68032038149E+02  0.25356977230E+02 -0.10915567381E+02  0.73419916373E+02  0.00000000000E+00 0. -1.
         -5    1    5    5    0  502  0.11312746469E+00 -0.55163794735E+01  0.13339821249E+03  0.13359497122E+03  0.47000000000E+01 0.  1.
         11    1    6    6    0    0  0.83366717511E+01  0.17020886972E+02  0.25480360690E+02  0.31756250882E+02  0.00000000000E+00 0. -1.
        -12    1    6    6    0    0 -0.11456391290E+03  0.40888825755E+02  0.51525106618E+02  0.13210459046E+03  0.00000000000E+00 0.  1.
</event>
<event>
12    1  0.8356052E-002  0.1946430E+03  0.7818608E-02  0.1154448E+00
         21   -1    0    0  501  502  0.00000000000E+00  0.00000000000E+00  0.36355873377E+03  0.36355873377E+03  0.00000000000E+00 0. -1.
         21   -1    0    0  502  503 -0.00000000000E+00 -0.00000000000E+00 -0.16852519477E+03  0.16852519477E+03  0.00000000000E+00 0.  1.
         -6    2    1    2    0  503 -0.52076471944E+02 -0.73896579871E+02 -0.67253083927E+02  0.20546464349E+03  0.17181408260E+03 0.  0.
        -24    2    3    3    0    0  0.15574368125E+01 -0.69274807292E+02  0.17165992951E+02  0.10523177716E+03  0.77315141312E+02 0.  0.
          6    2    1    2  501    0  0.52076471944E+02  0.73896579871E+02  0.26228662293E+03  0.32661928506E+03  0.17237523417E+03 0.  0.
         24    2    5    5    0    0 -0.17315505847E+02  0.67015501114E+02  0.82153855453E+02  0.13340308556E+03  0.79096290300E+02 0.  0.
          5    1    5    5  501    0  0.69391977791E+02  0.68810787568E+01  0.18013276748E+03  0.19321619949E+03  0.47000000000E+01 0. -1.
        -11    1    6    6    0    0 -0.11688910157E+02 -0.18610242888E+01 -0.11838395832E+02  0.16740419587E+02  0.00000000000E+00 0.  1.
         12    1    6    6    0    0 -0.56265956901E+01  0.68876525403E+02  0.93992251286E+02  0.11666266597E+03  0.00000000000E+00 0. -1.
         -5    1    3    3    0  503 -0.53633908757E+02 -0.46217725789E+01 -0.84419076878E+02  0.10023286632E+03  0.47000000000E+01 0.  1.
         13    1    4    4    0    0  0.98245121805E+01 -0.50348955175E+02 -0.25902719558E+02  0.57467288150E+02  0.00000000000E+00 0. -1.
        -14    1    4    4    0    0 -0.82670753680E+01 -0.18925852118E+02  0.43068712509E+02  0.47764489013E+02  0.00000000000E+00 0.  1.
</event>
<event>
12    1  0.8356052E-002  0.1848077E+03  0.7818608E-02  0.1163773E+00
         21   -1    0    0  503  502  0.00000000000E+00  0.00000000000E+00  0.64983381838E+03  0.64983381838E+03  0.00000000000E+00 0.  1.
         21   -1    0    0  501  503 -0.00000000000E+00 -0.00000000000E+00 -0.86755631421E+02  0.86755631421E+02  0.00000000000E+00 0. -1.
          6    2    1    2  501    0 -0.69163118440E+02  0.16246549051E+01  0.49166733991E+02  0.19123615975E+03  0.17137013920E+03 0.  0.
         24    2    3    3    0    0 -0.13182982014E+02 -0.60989835946E+02  0.28542640077E+02  0.10462326586E+03  0.78979708491E+02 0.  0.
         -6    2    1    2    0  502  0.69163118440E+02 -0.16246549051E+01  0.51391145296E+03  0.54535329004E+03  0.16887585090E+03 0.  0.
        -24    2    5    5    0    0  0.89976073147E+02 -0.46576525012E+02  0.41006210256E+03  0.43019849297E+03  0.81576644794E+02 0.  0.
          5    1    3    3  501    0 -0.55980136426E+02  0.62614490851E+02  0.20624093914E+02  0.86612893893E+02  0.47000000000E+01 0. -1.
        -11    1    4    4    0    0 -0.58319489480E+01 -0.27032676231E+01  0.43522992241E+02  0.43995114933E+02  0.00000000000E+00 0.  1.
         12    1    4    4    0    0 -0.73510330656E+01 -0.58286568322E+02 -0.14980352164E+02  0.60628150928E+02  0.00000000000E+00 0. -1.
         -5    1    5    5    0  502 -0.20812954707E+02  0.44951870107E+02  0.10384935040E+03  0.11515479707E+03  0.47000000000E+01 0.  1.
         11    1    6    6    0    0 -0.27164648904E+01 -0.15315298765E+02  0.10332713350E+02  0.18673578204E+02  0.00000000000E+00 0. -1.
        -12    1    6    6    0    0  0.92692538037E+02 -0.31261226247E+02  0.39972938921E+03  0.41152491477E+03  0.00000000000E+00 0.  1.
</event>
<event>
12    1  0.8356052E-002  0.1858602E+03  0.7818608E-02  0.1162398E+00
         21   -1    0    0  503  502  0.00000000000E+00  0.00000000000E+00  0.82061227341E+02  0.82061227341E+02  0.00000000000E+00 0. -1.
         21   -1    0    0  501  503 -0.00000000000E+00 -0.00000000000E+00 -0.61336885082E+03  0.61336885082E+03  0.00000000000E+00 0. -1.
          6    2    1    2  501    0 -0.54484581041E+02 -0.39627456140E+02 -0.46145007418E+03  0.49747378551E+03  0.17321977791E+03 0.  0.
         24    2    3    3    0    0 -0.14678563065E+02 -0.33654596867E+02 -0.97728810595E+02  0.13150187170E+03  0.79960801251E+02 0.  0.
         -6    2    1    2    0  502  0.54484581041E+02  0.39627456140E+02 -0.69857549297E+02  0.19795629265E+03  0.17253321928E+03 0.  0.
        -24    2    5    5    0    0  0.10667019456E+02  0.68529074801E+02 -0.92906235139E+02  0.14043573820E+03  0.79250291104E+02 0.  0.
          5    1    3    3  501    0 -0.39806017976E+02 -0.59728592730E+01 -0.36372126359E+03  0.36597191381E+03  0.47000000000E+01 0. -1.
        -11    1    4    4    0    0 -0.14629077773E+02  0.16594360418E+02 -0.71449763153E+02  0.74796065196E+02  0.00000000000E+00 0.  1.
         12    1    4    4    0    0 -0.49485292097E-01 -0.50248957284E+02 -0.26279047442E+02  0.56705806505E+02  0.00000000000E+00 0. -1.
         -5    1    5    5    0  502  0.43817561585E+02 -0.28901618661E+02  0.23048685841E+02  0.57520554444E+02  0.47000000000E+01 0.  1.
         13    1    6    6    0    0  0.12590779865E+02  0.85072145558E+02 -0.64469007926E+02  0.10748046646E+03  0.00000000000E+00 0. -1.
        -14    1    6    6    0    0 -0.19237604090E+01 -0.16543070757E+02 -0.28437227212E+02  0.32955271744E+02  0.00000000000E+00 0.  1.
</event>
<event>
12    1  0.8356052E-002  0.1834403E+03  0.7818608E-02  0.1164540E+00
         21   -1    0    0  501  502  0.00000000000E+00  0.00000000000E+00  0.79604614181E+02  0.79604614181E+02  0.00000000000E+00 0. -1.
         21   -1    0    0  502  503 -0.00000000000E+00 -0.00000000000E+00 -0.16178334436E+04  0.16178334436E+04  0.00000000000E+00 0. -1.
         -6    2    1    2    0  503 -0.60598215190E+02 -0.20656901760E+02 -0.14987099550E+04  0.15098946606E+04  0.17190551423E+03 0.  0.
        -24    2    3    3    0    0 -0.96421798773E+02  0.22986045837E+02 -0.10240819640E+04  0.10318969035E+04  0.79005245922E+02 0.  0.
          6    2    1    2  501    0  0.60598215190E+02  0.20656901760E+02 -0.39518874438E+02  0.18754339713E+03  0.17179037545E+03 0.  0.
         24    2    5    5    0    0  0.30107065439E+02 -0.17448803462E+02 -0.84121063174E+02  0.12126217638E+03  0.80107839943E+02 0.  0.
          5    1    5    5  501    0  0.30491149751E+02  0.38105705222E+02  0.44602188736E+02  0.66281220747E+02  0.47000000000E+01 0. -1.
        -13    1    6    6    0    0  0.35297173478E+02 -0.42879631290E+02 -0.34834419856E+02  0.65559057664E+02  0.00000000000E+00 0.  1.
         14    1    6    6    0    0 -0.51901080398E+01  0.25430827829E+02 -0.49286643318E+02  0.55703118720E+02  0.00000000000E+00 0. -1.
         -5    1    3    3    0  503  0.35823583583E+02 -0.43642947597E+02 -0.47462799098E+03  0.47799775714E+03  0.47000000000E+01 0.  1.
         11    1    4    4    0    0 -0.87515547635E+02 -0.12837680341E+02 -0.64831283954E+03  0.65431897040E+03  0.00000000000E+00 0. -1.
        -12    1    4    4    0    0 -0.89062511377E+01  0.35823726178E+02 -0.37576912444E+03  0.37757793308E+03  0.00000000000E+00 0.  1.
</event>
<event>
12    1  0.8356052E-002  0.1934741E+03  0.7818608E-02  0.1155420E+00
         21   -1    0    0  503  502  0.00000000000E+00  0.00000000000E+00  0.37098381817E+03  0.37098381817E+03  0.00000000000E+00 0. -1.
         21   -1    0    0  501  503 -0.00000000000E+00 -0.00000000000E+00 -0.10380507500E+03  0.10380507500E+03  0.00000000000E+00 0.  1.
          6    2    1    2  501    0  0.11002275226E+01  0.86588555177E+02  0.93081822766E+02  0.21470081764E+03  0.17301279426E+03 0.  0.
         24    2    3    3    0    0  0.12203577854E+01  0.55172435995E+02 -0.18472101627E+02  0.98712218964E+02  0.79733284565E+02 0.  0.
         -6    2    1    2    0  502 -0.11002275226E+01 -0.86588555177E+02  0.17409692041E+03  0.26008807553E+03  0.17273471264E+03 0.  0.
        -24    2    5    5    0    0  0.54633791671E+01 -0.12572123993E+03  0.15724567345E+03  0.21672331481E+03  0.80044454401E+02 0.  0.
          5    1    3    3  501    0 -0.12013026279E+00  0.31416119182E+02  0.11155392439E+03  0.11598859868E+03  0.47000000000E+01 0. -1.
        -13    1    4    4    0    0  0.15719974976E+02 -0.17065115320E+02 -0.26373746756E+01  0.23351477883E+02  0.00000000000E+00 0.  1.
         14    1    4    4    0    0 -0.14499617191E+02  0.72237551315E+02 -0.15834726952E+02  0.75360741081E+02  0.00000000000E+00 0. -1.
         -5    1    5    5    0  502 -0.65636066897E+01  0.39132684753E+02  0.16851246956E+02  0.43364760725E+02  0.47000000000E+01 0.  1.
         13    1    6    6    0    0  0.64804685141E+01 -0.91500259645E+02  0.15775272533E+03  0.18248346866E+03  0.00000000000E+00 0. -1.
        -14    1    6    6    0    0 -0.10170893471E+01 -0.34220980285E+02 -0.50705187508E+00  0.34239846144E+02  0.00000000000E+00 0.  1.
</event>
<event>
12    1  0.8356052E-002  0.1963277E+03  0.7818608E-02  0.1153163E+00
         21   -1    0    0  501  502  0.00000000000E+00  0.00000000000E+00  0.80119484774E+02  0.80119484774E+02  0.00000000000E+00 0.  1.
         21   -1    0    0  502  503 -0.00000000000E+00 -0.00000000000E+00 -0.53047328300E+03  0.53047328300E+03  0.00000000000E+00 0. -1.
         -6    2    1    2    0  503 -0.35311658859E+01  0.92613176236E+02 -0.32065190033E+03  0.37529048985E+03  0.17156818191E+03 0.  0.
        -24    2    3    3    0    0 -0.49436922057E+02  0.85653248274E+02 -0.14367960480E+03  0.19226846268E+03  0.80887852621E+02 0.  0.
          6    2    1    2  501    0  0.35311658859E+01 -0.92613176236E+02 -0.12970189790E+03  0.23530227792E+03  0.17307486858E+03 0.  0.
         24    2    5    5    0    0 -0.35803685345E+02 -0.11869291526E+03 -0.88142965815E+02  0.17224184544E+03  0.80797022727E+02 0.  0.
          5    1    5    5  501    0  0.39334851230E+02  0.26079739024E+02 -0.41558932081E+02  0.63060432481E+02  0.47000000000E+01 0. -1.
        -11    1    6    6    0    0  0.15584910317E+02 -0.72478609648E+02 -0.67111825196E+02  0.10000017684E+03  0.00000000000E+00 0.  1.
         12    1    6    6    0    0 -0.51388595662E+02 -0.46214305613E+02 -0.21031140619E+02  0.72241668607E+02  0.00000000000E+00 0. -1.
         -5    1    3    3    0  503  0.45905756171E+02  0.69599279623E+01 -0.17697229553E+03  0.18302202717E+03  0.47000000000E+01 0.  1.
         11    1    4    4    0    0 -0.13888096007E+02  0.90215138757E+02 -0.11154386420E+03  0.14413078822E+03  0.00000000000E+00 0. -1.
        -12    1    4    4    0    0 -0.35548826050E+02 -0.45618904825E+01 -0.32135740605E+02  0.48137674461E+02  0.00000000000E+00 0.  1.
</event>
<event>
12    1  0.8356052E-002  0.2527638E+03  0.7818608E-02  0.1111798E+00
         21   -1    0    0  501  502  0.00000000000E+00  0.00000000000E+00  0.12800480222E+03  0.12800480222E+03  0.00000000000E+00 0. -1.
         21   -1    0    0  502  503 -0.00000000000E+00 -0.00000000000E+00 -0.73775771953E+03  0.73775771953E+03  0.00000000000E+00 0.  1.
         -6    2    1    2    0  503 -0.13499148432E+03 -0.12700773709E+03 -0.55195818177E+03  0.60647551702E+03  0.16970872755E+03 0.  0.
        -24    2    3    3    0    0 -0.97983361462E+02 -0.15547581722E+03 -0.40174752501E+03  0.44910536690E+03  0.80753252991E+02 0.  0.
          6    2    1    2  501    0  0.13499148432E+03  0.12700773709E+03 -0.57794735542E+02  0.25928700473E+03  0.17185998152E+03 0.  0.
         24    2    5    5    0    0  0.10582175818E+03  0.15733576955E+03 -0.27453270687E+02  0.20719711160E+03  0.78893422420E+02 0.  0.
          5    1    5    5  501    0  0.29169726143E+02 -0.30328032467E+02 -0.30341464854E+02  0.52089893128E+02  0.47000000000E+01 0. -1.
        -13    1    6    6    0    0  0.39259139407E+02  0.11403210553E+03 -0.39444964325E+02  0.12688777060E+03  0.00000000000E+00 0.  1.
         14    1    6    6    0    0  0.66562618771E+02  0.43303664024E+02  0.11991693638E+02  0.80309341000E+02  0.00000000000E+00 0. -1.
         -5    1    3    3    0  503 -0.37008122859E+02  0.28468080131E+02 -0.15021065676E+03  0.15737015012E+03  0.47000000000E+01 0.  1.
         13    1    4    4    0    0  0.13511840502E+02 -0.27647040907E+02 -0.71621396963E+02  0.77952249535E+02  0.00000000000E+00 0. -1.
        -14    1    4    4    0    0 -0.11149520196E+03 -0.12782877631E+03 -0.33012612805E+03  0.37115311737E+03  0.00000000000E+00 0.  1.
</event>
<event>
12    1  0.8356052E-002  0.1992392E+03  0.7818608E-02  0.1150468E+00
         21   -1    0    0  503  502  0.00000000000E+00  0.00000000000E+00  0.26712460878E+02  0.26712460878E+02  0.00000000000E+00 0. -1.
         21   -1    0    0  501  503 -0.00000000000E+00 -0.00000000000E+00 -0.16399761903E+04  0.16399761903E+04  0.00000000000E+00 0. -1.
          6    2    1    2  501    0  0.41677728692E+02  0.91430523918E+02 -0.10651633521E+04  0.10836370269E+04  0.17204553365E+03 0.  0.
         24    2    3    3    0    0  0.48736446438E+02  0.12014957566E+02 -0.83001337453E+03  0.83529399876E+03  0.79210239566E+02 0.  0.
         -6    2    1    2    0  502 -0.41677728692E+02 -0.91430523918E+02 -0.54810037732E+03  0.58305162428E+03  0.17157680256E+03 0.  0.
        -24    2    5    5    0    0  0.66821151865E+01 -0.78074055091E+02 -0.18706830723E+03  0.21851998587E+03  0.81340174055E+02 0.  0.
          5    1    3    3  501    0 -0.70587177457E+01  0.79415566352E+02 -0.23514997755E+03  0.24834302812E+03  0.47000000000E+01 0. -1.
        -13    1    4    4    0    0  0.63485840159E+02  0.25052274187E+02 -0.49243289650E+03  0.49714004657E+03  0.00000000000E+00 0.  1.
         14    1    4    4    0    0 -0.14749393721E+02 -0.13037316621E+02 -0.33758047803E+03  0.33815395220E+03  0.00000000000E+00 0. -1.
         -5    1    5    5    0  502 -0.48359843879E+02 -0.13356468827E+02 -0.36103207009E+03  0.36453163840E+03  0.47000000000E+01 0.  1.
         11    1    6    6    0    0 -0.36958143203E+02 -0.35813825492E+02 -0.98270458394E+02  0.11093068754E+03  0.00000000000E+00 0. -1.
        -12    1    6    6    0    0  0.43640258390E+02 -0.42260229599E+02 -0.88797848836E+02  0.10758929833E+03  0.00000000000E+00 0.  1.
</event>
<event>
12    1  0.8356052E-002  0.3268508E+03  0.7818608E-02  0.1072651E+00
         21   -1    0    0  501  502  0.00000000000E+00  0.00000000000E+00  0.15830942517E+03  0.15830942517E+03  0.00000000000E+00 0.  1.
         21   -1    0    0  502  503 -0.00000000000E+00 -0.00000000000E+00 -0.85566987319E+03  0.85566987319E+03  0.00000000000E+00 0. -1.
         -6    2    1    2    0  503  0.23442170984E+03 -0.14703742195E+03 -0.58265757196E+03  0.66758616349E+03  0.17206945697E+03 0.  0.
        -24    2    3    3    0    0  0.11856421431E+03 -0.13859769631E+03 -0.28208398935E+03  0.34531181328E+03  0.80012980227E+02 0.  0.
          6    2    1    2  501    0 -0.23442170984E+03  0.14703742195E+03 -0.11470287606E+03  0.34639313487E+03  0.17394801698E+03 0.  0.
         24    2    5    5    0    0 -0.77717035211E+02  0.95122591027E+02 -0.11105212742E+01  0.14595157784E+03  0.78818683888E+02 0.  0.
          5    1    5    5  501    0 -0.15670467463E+03  0.51914830919E+02 -0.11359235479E+03  0.20044155704E+03  0.47000000000E+01 0. -1.
        -13    1    6    6    0    0  0.14963563129E+02  0.45140718169E+01 -0.45963430673E+01  0.16291452835E+02  0.00000000000E+00 0.  1.
         14    1    6    6    0    0 -0.92680598340E+02  0.90608519210E+02  0.34858217931E+01  0.12966012500E+03  0.00000000000E+00 0. -1.
         -5    1    3    3    0  503  0.11585749553E+03 -0.84397256355E+01 -0.30057358261E+03  0.32227435021E+03  0.47000000000E+01 0.  1.
         11    1    4    4    0    0 -0.76913541712E+00  0.27959366897E+01 -0.42516539625E+02  0.42615313831E+02  0.00000000000E+00 0. -1.
        -12    1    4    4    0    0  0.11933334973E+03 -0.14139363300E+03 -0.23956744973E+03  0.30269649945E+03  0.00000000000E+00 0.  1.
</event>
<event>
12    1  0.8356052E-002  0.2884975E+03  0.7818608E-02  0.1091317E+00
         21   -1    0    0  501  502  0.00000000000E+00  0.00000000000E+00  0.11153108782E+03  0.11153108782E+03  0.00000000000E+00 0.  1.
         21   -1    0    0  502  503 -0.00000000000E+00 -0.00000000000E+00 -0.10997467001E+04  0.10997467001E+04  0.00000000000E+00 0. -1.
         -6    2    1    2    0  503 -0.17895763764E+03 -0.14371387715E+03 -0.83839276691E+03  0.88619673966E+03  0.17251873878E+03 0.  0.
        -24    2    3    3    0    0 -0.12206333577E+03 -0.12244652348E+03 -0.77519312914E+03  0.79841549946E+03  0.81549452862E+02 0.  0.
          6    2    1    2  501    0  0.17895763764E+03  0.14371387715E+03 -0.14982284533E+03  0.32508104823E+03  0.17478926849E+03 0.  0.
         24    2    5    5    0    0  0.48313656551E+02  0.12377138625E+03 -0.98623822284E+02  0.18327490344E+03  0.78800167802E+02 0.  0.
          5    1    5    5  501    0  0.13064398109E+03  0.19942490894E+02 -0.51199023048E+02  0.14180614478E+03  0.47000000000E+01 0. -1.
        -11    1    6    6    0    0  0.33885006326E+02  0.12968299744E+03 -0.71314564515E+02  0.15182766741E+03  0.00000000000E+00 0.  1.
         12    1    6    6    0    0  0.14428650224E+02 -0.59116111896E+01 -0.27309257769E+02  0.31447236032E+02  0.00000000000E+00 0. -1.
         -5    1    3    3    0  503 -0.56894301871E+02 -0.21267353669E+02 -0.63199637773E+02  0.87781240206E+02  0.47000000000E+01 0.  1.
         13    1    4    4    0    0 -0.92833032042E+02 -0.83160392965E+02 -0.37343654126E+03  0.39368575430E+03  0.00000000000E+00 0. -1.
        -14    1    4    4    0    0 -0.29230303724E+02 -0.39286130512E+02 -0.40175658788E+03  0.40472974515E+03  0.00000000000E+00 0.  1.
</event>
<event>
12    1  0.8356052E-002  0.2405911E+03  0.7818608E-02  0.1119538E+00
         21   -1    0    0  503  502  0.00000000000E+00  0.00000000000E+00  0.29894643832E+03  0.29894643832E+03  0.00000000000E+00 0. -1.
         21   -1    0    0  501  503 -0.00000000000E+00 -0.00000000000E+00 -0.46002097896E+03  0.46002097896E+03  0.00000000000E+00 0. -1.
          6    2    1    2  501    0 -0.16697377402E+03  0.15944264227E+01 -0.36973619277E+03  0.44112236171E+03  0.17320884029E+03 0.  0.
         24    2    3    3    0    0 -0.56485537546E+02 -0.45936629617E+02 -0.24412701022E+03  0.26714935109E+03  0.80436240414E+02 0.  0.
         -6    2    1    2    0  502  0.16697377402E+03 -0.15944264227E+01  0.20866165214E+03  0.31784505557E+03  0.17205525528E+03 0.  0.
        -24    2    5    5    0    0  0.19757085874E+02  0.10717312840E+01  0.11958442881E+03  0.14569191624E+03  0.80834446819E+02 0.  0.
          5    1    3    3  501    0 -0.11048823647E+03  0.47531056040E+02 -0.12560918255E+03  0.17397301063E+03  0.47000000000E+01 0. -1.
        -11    1    4    4    0    0 -0.28636190888E+02 -0.17672242397E+02 -0.19186229726E+02  0.38735655294E+02  0.00000000000E+00 0.  1.
         12    1    4    4    0    0 -0.27849346658E+02 -0.28264387220E+02 -0.22494078050E+03  0.22841369579E+03  0.00000000000E+00 0. -1.
         -5    1    5    5    0  502  0.14721668814E+03 -0.26661577066E+01  0.89077223324E+02  0.17215313933E+03  0.47000000000E+01 0.  1.
         13    1    6    6    0    0  0.48579334241E+02  0.15463591670E+02  0.71565764907E+02  0.87867702197E+02  0.00000000000E+00 0. -1.
        -14    1    6    6    0    0 -0.28822248366E+02 -0.14391860386E+02  0.48018663907E+02  0.57824214043E+02  0.00000000000E+00 0.  1.
</event>
<event>
12    1  0.8356052E-002  0.1771257E+03  0.7818608E-02  0.1170713E+00
         21   -1    0    0  503  502  0.00000000000E+00  0.00000000000E+00  0.37094706295E+03  0.37094706295E+03  0.00000000000E+00 0.  1.
         21   -1    0    0  501  503 -0.00000000000E+00 -0.00000000000E+00 -0.34172930527E+03  0.34172930527E+03  0.00000000000E+00 0.  1.
          6    2    1    2  501    0 -0.31902213692E+02 -0.23672557942E+02 -0.29461428450E+03  0.34376019689E+03  0.17261331089E+03 0.  0.
         24    2    3    3    0    0 -0.77916001656E+02  0.92506910204E+01 -0.23408264112E+03  0.26076996339E+03  0.83963160594E+02 0.  0.
         -6    2    1    2    0  502  0.31902213692E+02  0.23672557942E+02  0.32383204218E+03  0.36891617133E+03  0.17220281268E+03 0.  0.
        -24    2    5    5    0    0  0.54236058869E+02  0.26750927529E+02  0.91878732752E+02  0.13582240318E+03  0.79679743147E+02 0.  0.
          5    1    3    3  501    0  0.46013787964E+02 -0.32923248962E+02 -0.60531643378E+02  0.82990233492E+02  0.47000000000E+01 0. -1.
        -13    1    4    4    0    0 -0.10453614039E+02 -0.24142201793E+02 -0.12811113817E+03  0.13078450855E+03  0.00000000000E+00 0.  1.
         14    1    4    4    0    0 -0.67462387617E+02  0.33392892814E+02 -0.10597150295E+03  0.12998545484E+03  0.00000000000E+00 0. -1.
         -5    1    5    5    0  502 -0.22333845177E+02 -0.30783695873E+01  0.23195330942E+03  0.23309376815E+03  0.47000000000E+01 0.  1.
         11    1    6    6    0    0  0.25500331613E+02 -0.13994332243E+02 -0.23842639300E+01  0.29185492317E+02  0.00000000000E+00 0. -1.
        -12    1    6    6    0    0  0.28735727257E+02  0.40745259772E+02  0.94262996682E+02  0.10663691086E+03  0.00000000000E+00 0.  1.
</event>
<event>
12    1  0.8356052E-002  0.1912153E+03  0.7818608E-02  0.1157669E+00
         21   -1    0    0  501  502  0.00000000000E+00  0.00000000000E+00  0.11978312580E+03  0.11978312580E+03  0.00000000000E+00 0.  1.
         21   -1    0    0  502  503 -0.00000000000E+00 -0.00000000000E+00 -0.80478025918E+03  0.80478025918E+03  0.00000000000E+00 0. -1.
         -6    2    1    2    0  503  0.18941031319E+01  0.81899565192E+02 -0.70702944571E+03  0.73208298536E+03  0.17130012829E+03 0.  0.
        -24    2    3    3    0    0  0.61033316792E+02  0.16419572535E+02 -0.35836498651E+03  0.37239691233E+03  0.79115918941E+02 0.  0.
          6    2    1    2  501    0 -0.18941031319E+01 -0.81899565192E+02  0.22032312329E+02  0.19248039962E+03  0.17277776201E+03 0.  0.
         24    2    5    5    0    0  0.33523173026E+02 -0.18508670677E+02 -0.42017769915E+02  0.95540768952E+02  0.76786532174E+02 0.  0.
          5    1    5    5  501    0 -0.35417276158E+02 -0.63390894515E+02  0.64050082244E+02  0.96939630665E+02  0.47000000000E+01 0. -1.
        -13    1    6    6    0    0 -0.15437816779E+02  0.12488823163E+02 -0.30600025849E+02  0.36478191743E+02  0.00000000000E+00 0.  1.
         14    1    6    6    0    0  0.48960989805E+02 -0.30997493839E+02 -0.11417744066E+02  0.59062577209E+02  0.00000000000E+00 0. -1.
         -5    1    3    3    0  503 -0.59139213660E+02  0.65479992657E+02 -0.34866445920E+03  0.35968607304E+03  0.47000000000E+01 0.  1.
         11    1    4    4    0    0  0.52159024266E+02  0.29376776210E+02 -0.34903160497E+03  0.35412797131E+03  0.00000000000E+00 0. -1.
        -12    1    4    4    0    0  0.88742925261E+01 -0.12957203675E+02 -0.93333815407E+01  0.18268941017E+02  0.00000000000E+00 0.  1.
</event>
<event>
12    1  0.8356052E-002  0.1836277E+03  0.7818608E-02  0.1164979E+00
         21   -1    0    0  501  502  0.00000000000E+00  0.00000000000E+00  0.19636191860E+03  0.19636191860E+03  0.00000000000E+00 0. -1.
         21   -1    0    0  502  503 -0.00000000000E+00 -0.00000000000E+00 -0.16946090363E+03  0.16946090363E+03  0.00000000000E+00 0. -1.
         -6    2    1    2    0  503 -0.19997645524E+01 -0.54098807949E+02  0.20466392656E+02  0.18208239251E+03  0.17263963726E+03 0.  0.
        -24    2    3    3    0    0 -0.61121359185E+02 -0.64454778184E+02  0.22865890437E+02  0.12182912155E+03  0.80182584977E+02 0.  0.
          6    2    1    2  501    0  0.19997645524E+01  0.54098807949E+02  0.64346223160E+01  0.18374042973E+03  0.17546641010E+03 0.  0.
         24    2    5    5    0    0  0.55954466747E+02 -0.13274138810E+02 -0.48099260794E+01  0.96569599098E+02  0.77430271670E+02 0.  0.
          5    1    5    5  501    0 -0.53954702195E+02  0.67372946758E+02  0.11244548395E+02  0.87170830628E+02  0.47000000000E+01 0. -1.
        -11    1    6    6    0    0 -0.10078662526E+02  0.31913425810E+01  0.21219018235E+02  0.23706767824E+02  0.00000000000E+00 0.  1.
         12    1    6    6    0    0  0.66033129274E+02 -0.16465481391E+02 -0.26028944315E+02  0.72862831274E+02  0.00000000000E+00 0. -1.
         -5    1    3    3    0  503  0.59121594632E+02  0.10355970236E+02 -0.23994977814E+01  0.60253270957E+02  0.47000000000E+01 0.  1.
         11    1    4    4    0    0 -0.20771574060E+02 -0.30896196747E+02  0.50324448469E+02  0.62598589250E+02  0.00000000000E+00 0. -1.
        -12    1    4    4    0    0 -0.40349785125E+02 -0.33558581437E+02 -0.27458558032E+02  0.59230532303E+02  0.00000000000E+00 0.  1.
</event>
<event>
12    1  0.8356052E-002  0.1966767E+03  0.7818608E-02  0.1153148E+00
         21   -1    0    0  501  502  0.00000000000E+00  0.00000000000E+00  0.42847887951E+03  0.42847887951E+03  0.00000000000E+00 0. -1.
         21   -1    0    0  502  503 -0.00000000000E+00 -0.00000000000E+00 -0.89326416295E+02  0.89326416295E+02  0.00000000000E+00 0. -1.
         -6    2    1    2    0  503  0.95564670289E+02  0.95234825320E+01  0.15448652143E+03  0.24802162544E+03  0.16859815675E+03 0.  0.
        -24    2    3    3    0    0 -0.73642323941E+01 -0.26114879225E+02  0.79944644672E+02  0.11594954957E+03  0.79479135611E+02 0.  0.
          6    2    1    2  501    0 -0.95564670289E+02 -0.95234825320E+01  0.18466594179E+03  0.26978367036E+03  0.17163454142E+03 0.  0.
         24    2    5    5    0    0  0.10753551831E+02 -0.34587389698E+02  0.70338694093E+02  0.11159209864E+03  0.78697764830E+02 0.  0.
          5    1    5    5  501    0 -0.10631822212E+03  0.25063907166E+02  0.11432724769E+03  0.15819157172E+03  0.47000000000E+01 0. -1.
        -11    1    6    6    0    0  0.13829317358E+02 -0.54185645299E+01  0.79491027313E+02  0.80866768721E+02  0.00000000000E+00 0.  1.
         12    1    6    6    0    0 -0.30757655268E+01 -0.29168825168E+02 -0.91523332201E+01  0.30725329919E+02  0.00000000000E+00 0. -1.
         -5    1    3    3    0  503  0.10292890268E+03  0.35638361757E+02  0.74541876754E+02  0.13207207588E+03  0.47000000000E+01 0.  1.
         13    1    4    4    0    0  0.24010982425E+02 -0.42253289728E+02  0.49116564081E+02  0.69096343152E+02  0.00000000000E+00 0. -1.
        -14    1    4    4    0    0 -0.31375214819E+02  0.16138410503E+02  0.30828080591E+02  0.46853206415E+02  0.00000000000E+00 0.  1.
</event>
<event>
12    1  0.8356052E-002  0.1776892E+03  0.7818608E-02  0.1170188E+00
         21   -1    0    0  503  502  0.00000000000E+00  0.00000000000E+00  0.32403316805E+03  0.32403316805E+03  0.00000000000E+00 0. -1.
         21   -1    0    0  501  503 -0.00000000000E+00 -0.00000000000E+00 -0.38488073230E+03  0.38488073230E+03  0.00000000000E+00 0. -1.
          6    2    1    2  501    0  0.43292482325E+02 -0.17564713914E+02 -0.33688589186E+03  0.38062954181E+03  0.17089173698E+03 0.  0.
         24    2    3    3    0    0 -0.26626217252E+02 -0.36660443204E+02 -0.25555514718E+03  0.27158802927E+03  0.79991754906E+02 0.  0.
         -6    2    1    2    0  502 -0.43292482325E+02  0.17564713914E+02  0.27603832760E+03  0.32828435854E+03  0.17143717087E+03 0.  0.
        -24    2    5    5    0    0  0.31974106586E+02 -0.52670357060E+01  0.85562774883E+02  0.12215484978E+03  0.80936603104E+02 0.  0.
          5    1    3    3  501    0  0.69918699577E+02  0.19095729291E+02 -0.81330744679E+02  0.10904151254E+03  0.47000000000E+01 0. -1.
        -11    1    4    4    0    0 -0.26384758240E+02 -0.28489610812E+02 -0.39541271838E+02  0.55419541411E+02  0.00000000000E+00 0.  1.
         12    1    4    4    0    0 -0.24145901212E+00 -0.81708323925E+01 -0.21601387534E+03  0.21616848786E+03  0.00000000000E+00 0. -1.
         -5    1    5    5    0  502 -0.75266588911E+02  0.22831749620E+02  0.19047555272E+03  0.20612950876E+03  0.47000000000E+01 0.  1.
         11    1    6    6    0    0  0.14652656138E+02  0.26678447291E+02  0.79740399917E+02  0.85352043096E+02  0.00000000000E+00 0. -1.
        -12    1    6    6    0    0  0.17321450448E+02 -0.31945482997E+02  0.58223749660E+01  0.36802806684E+02  0.00000000000E+00 0.  1.
</event>
<event>
12    1  0.8356052E-002  0.1997373E+03  0.7818608E-02  0.1150008E+00
         21   -1    0    0  501  502  0.00000000000E+00  0.00000000000E+00  0.61099359446E+03  0.61099359446E+03  0.00000000000E+00 0. -1.
         21   -1    0    0  502  503 -0.00000000000E+00 -0.00000000000E+00 -0.89093351075E+02  0.89093351075E+02  0.00000000000E+00 0. -1.
         -6    2    1    2    0  503 -0.64007477036E+02 -0.76365981229E+02  0.79654317147E+02  0.21482777940E+03  0.17285093102E+03 0.  0.
        -24    2    3    3    0    0  0.80085472951E+01 -0.74406048768E+02  0.82197589142E+01  0.11326432531E+03  0.84621782239E+02 0.  0.
          6    2    1    2  501    0  0.64007477036E+02  0.76365981229E+02  0.44224592624E+03  0.48525916613E+03  0.17310770878E+03 0.  0.
         24    2    5    5    0    0  0.24388699931E+02  0.93854908425E+02  0.41487131269E+03  0.43381045827E+03  0.81668568577E+02 0.  0.
          5    1    5    5  501    0  0.39618777105E+02 -0.17488927195E+02  0.27374613547E+02  0.51448707862E+02  0.47000000000E+01 0. -1.
        -13    1    6    6    0    0  0.52248908971E+02  0.62855996836E+02  0.22413510526E+03  0.23857361597E+03  0.00000000000E+00 0.  1.
         14    1    6    6    0    0 -0.27860209040E+02  0.30998911589E+02  0.19073620743E+03  0.19523684231E+03  0.00000000000E+00 0. -1.
         -5    1    3    3    0  503 -0.72016024332E+02 -0.19599324612E+01  0.71434558233E+02  0.10156345409E+03  0.47000000000E+01 0.  1.
         11    1    4    4    0    0  0.38566263013E+02 -0.25678010814E+02  0.25914030802E+02  0.53087228921E+02  0.00000000000E+00 0. -1.
        -12    1    4    4    0    0 -0.30557715717E+02 -0.48728037954E+02 -0.17694271888E+02  0.60177096393E+02  0.00000000000E+00 0.  1.
</event>
<event>
12    1  0.8356052E-002  0.2031223E+03  0.7818608E-02  0.1147295E+00
         21   -1    0    0  503  502  0.00000000000E+00  0.00000000000E+00  0.15313999679E+03  0.15313999679E+03  0.00000000000E+00 0. -1.
         21   -1    0    0  501  503 -0.00000000000E+00 -0.00000000000E+00 -0.27264739112E+03  0.27264739112E+03  0.00000000000E+00 0.  1.
          6    2    1    2  501    0  0.55851767110E+02 -0.90696464464E+02 -0.86302991491E+02  0.21996904492E+03  0.17202588708E+03 0.  0.
         24    2    3    3    0    0  0.94971780147E+02 -0.19614402335E+02 -0.82127359343E+02  0.13858992671E+03  0.55298289569E+02 0.  0.
         -6    2    1    2    0  502 -0.55851767110E+02  0.90696464464E+02 -0.33204402846E+02  0.20581834299E+03  0.17295487674E+03 0.  0.
        -24    2    5    5    0    0 -0.37564192046E+02  0.10602831563E+02  0.37962476378E+02  0.97023857235E+02  0.80305608140E+02 0.  0.
          5    1    3    3  501    0 -0.39120013037E+02 -0.71082062129E+02 -0.41756321480E+01  0.81379118208E+02  0.47000000000E+01 0. -1.
        -13    1    4    4    0    0  0.14736022649E+02  0.23475828574E+01 -0.45154953888E+02  0.47556612258E+02  0.00000000000E+00 0.  1.
         14    1    4    4    0    0  0.80235757498E+02 -0.21961985192E+02 -0.36972405455E+02  0.91033314451E+02  0.00000000000E+00 0. -1.
         -5    1    5    5    0  502 -0.18287575065E+02  0.80093632901E+02 -0.71166879224E+02  0.10879448576E+03  0.47000000000E+01 0.  1.
         11    1    6    6    0    0 -0.23368435059E+02  0.13500232606E+02  0.62752916366E+02  0.68310091128E+02  0.00000000000E+00 0. -1.
        -12    1    6    6    0    0 -0.14195756987E+02 -0.28974010433E+01 -0.24790439988E+02  0.28713766107E+02  0.00000000000E+00 0.  1.
</event>
<event>
12    1  0.8356052E-002  0.1942447E+03  0.7818608E-02  0.1155104E+00
         21   -1    0    0  501  502  0.00000000000E+00  0.00000000000E+00  0.15240805403E+03  0.15240805403E+03  0.00000000000E+00 0.  1.
         21   -1    0    0  502  503 -0.00000000000E+00 -0.00000000000E+00 -0.24546198014E+03  0.24546198014E+03  0.00000000000E+00 0.  1.
         -6    2    1    2    0  503  0.57898314413E+02  0.69726621648E+02 -0.53681411369E+02  0.20152596438E+03  0.17180513327E+03 0.  0.
        -24    2    3    3    0    0  0.99736759730E+02  0.79392568494E+02 -0.44062905919E+02  0.15727111513E+03  0.80883019257E+02 0.  0.
          6    2    1    2  501    0 -0.57898314413E+02 -0.69726621648E+02 -0.39372514739E+02  0.19634406978E+03  0.16966667983E+03 0.  0.
         24    2    5    5    0    0 -0.10030794641E+03 -0.39396189491E+02 -0.39697073256E+02  0.14399230439E+03  0.86857252086E+02 0.  0.
          5    1    5    5  501    0  0.42409631998E+02 -0.30330432157E+02  0.32455851751E+00  0.52351765388E+02  0.47000000000E+01 0. -1.
        -13    1    6    6    0    0 -0.33057214869E+02  0.72197053707E+01  0.22994370696E+02  0.40910202691E+02  0.00000000000E+00 0.  1.
         14    1    6    6    0    0 -0.67250731542E+02 -0.46615894862E+02 -0.62691443952E+02  0.10308210170E+03  0.00000000000E+00 0. -1.
         -5    1    3    3    0  503 -0.41838445318E+02 -0.96659468462E+01 -0.96185054505E+01  0.44254849250E+02  0.47000000000E+01 0.  1.
         11    1    4    4    0    0  0.30148129947E+02 -0.11877299172E+02 -0.24999081622E+02  0.40925958228E+02  0.00000000000E+00 0. -1.
        -12    1    4    4    0    0  0.69588629783E+02  0.91269867666E+02 -0.19063824296E+02  0.11634515691E+03  0.00000000000E+00 0.  1.
</event>
<event>
12    1  0.8356052E-002  0.2051072E+03  0.7818608E-02  0.1146089E+00
         21   -1    0    0  501  502  0.00000000000E+00  0.00000000000E+00  0.51027166128E+03  0.51027166128E+03  0.00000000000E+00 0. -1.
         21   -1    0    0  502  503 -0.00000000000E+00 -0.00000000000E+00 -0.21791509193E+03  0.21791509193E+03  0.00000000000E+00 0. -1.
         -6    2    1    2    0  503 -0.74503235326E+02 -0.82683545866E+02  0.43484503482E+03  0.48079013808E+03  0.17228363746E+03 0.  0.
        -24    2    3    3    0    0  0.13406201276E+02 -0.76392326398E+02  0.30968823345E+03  0.32764326930E+03  0.73673578835E+02 0.  0.
          6    2    1    2  501    0  0.74503235326E+02  0.82683545866E+02 -0.14248846547E+03  0.24739661513E+03  0.16886332211E+03 0.  0.
         24    2    5    5    0    0  0.90738973691E+01  0.78233148770E+02 -0.29984107710E+02  0.11708880717E+03  0.81289488063E+02 0.  0.
          5    1    5    5  501    0  0.65429337957E+02  0.44503970957E+01 -0.11250435776E+03  0.13030780796E+03  0.47000000000E+01 0. -1.
        -11    1    6    6    0    0  0.34372781570E+02  0.11579978105E+02  0.67420106433E+01  0.36892258175E+02  0.00000000000E+00 0.  1.
         12    1    6    6    0    0 -0.25298884201E+02  0.66653170665E+02 -0.36726118353E+02  0.80196548996E+02  0.00000000000E+00 0. -1.
         -5    1    3    3    0  503 -0.87909436603E+02 -0.62912194677E+01  0.12515680137E+03  0.15314686877E+03  0.47000000000E+01 0.  1.
         13    1    4    4    0    0  0.25624408720E+02 -0.83691127357E+02  0.21896165616E+03  0.23580717119E+03  0.00000000000E+00 0. -1.
        -14    1    4    4    0    0 -0.12218207443E+02  0.72988009587E+01  0.90726577293E+02  0.91836098109E+02  0.00000000000E+00 0.  1.
</event>
<event>
12    1  0.8356052E-002  0.1988289E+03  0.7818608E-02  0.1151261E+00
         21   -1    0    0  501  502  0.00000000000E+00  0.00000000000E+00  0.51388247393E+03  0.51388247393E+03  0.00000000000E+00 0. -1.
         21   -1    0    0  502  503 -0.00000000000E+00 -0.00000000000E+00 -0.10071057736E+03  0.10071057736E+03  0.00000000000E+00 0. -1.
         -6    2    1    2    0  503 -0.67730569946E+02  0.67159763875E+02  0.53318418412E+02  0.20346355050E+03  0.17162953898E+03 0.  0.
        -24    2    3    3    0    0 -0.10530070596E+03  0.46680658382E+02  0.62962219407E+02  0.15935004033E+03  0.90337543342E+02 0.  0.
          6    2    1    2  501    0  0.67730569946E+02 -0.67159763875E+02  0.35985347816E+03  0.41112950078E+03  0.17445651803E+03 0.  0.
         24    2    5    5    0    0  0.15067604154E+02 -0.80165135436E+02  0.11470588476E+03  0.16000809547E+03  0.76103015605E+02 0.  0.
          5    1    5    5  501    0  0.52662965792E+02  0.13005371560E+02  0.24514759340E+03  0.25112140531E+03  0.47000000000E+01 0. -1.
        -13    1    6    6    0    0  0.44871452847E+02 -0.55830020993E+02  0.86466520793E+02  0.11228044239E+03  0.00000000000E+00 0.  1.
         14    1    6    6    0    0 -0.29803848693E+02 -0.24335114442E+02  0.28239363965E+02  0.47727653085E+02  0.00000000000E+00 0. -1.
         -5    1    3    3    0  503  0.37570136015E+02  0.20479105494E+02 -0.96438009947E+01  0.44113510171E+02  0.47000000000E+01 0.  1.
         11    1    4    4    0    0 -0.59337107744E+02  0.17374335883E+02 -0.15564416885E+02  0.63757438592E+02  0.00000000000E+00 0. -1.
        -12    1    4    4    0    0 -0.45963598216E+02  0.29306322499E+02  0.78526636291E+02  0.95592601736E+02  0.00000000000E+00 0.  1.
</event>
<event>
12    1  0.8356052E-002  0.1869526E+03  0.7818608E-02  0.1162150E+00
         21   -1    0    0  503  502  0.00000000000E+00  0.00000000000E+00  0.27320882454E+02  0.27320882454E+02  0.00000000000E+00 0.  1.
         21   -1    0    0  501  503 -0.00000000000E+00 -0.00000000000E+00 -0.12908196206E+04  0.12908196206E+04  0.00000000000E+00 0.  1.
          6    2    1    2  501    0 -0.63997575262E+02  0.40752188656E+01 -0.73856982042E+03  0.76091376527E+03  0.17144118960E+03 0.  0.
         24    2    3    3    0    0  0.18774752554E+01  0.11797403241E+02 -0.61797367764E+03  0.62320147800E+03  0.79661234512E+02 0.  0.
         -6    2    1    2    0  502  0.63997575262E+02 -0.40752188656E+01 -0.52492891775E+03  0.55722673781E+03  0.17561028327E+03 0.  0.
        -24    2    5    5    0    0 -0.21227529788E+02  0.35839533354E+02 -0.29847906542E+03  0.31195519116E+03  0.80568037247E+02 0.  0.
          5    1    3    3  501    0 -0.65875050518E+02 -0.77221843755E+01 -0.12059614277E+03  0.13771228727E+03  0.47000000000E+01 0. -1.
        -11    1    4    4    0    0 -0.10430449575E+02  0.39949208917E+02 -0.20679799987E+03  0.21087945922E+03  0.00000000000E+00 0.  1.
         12    1    4    4    0    0  0.12307924831E+02 -0.28151805676E+02 -0.41117567777E+03  0.41232201878E+03  0.00000000000E+00 0. -1.
         -5    1    5    5    0  502  0.85225105050E+02 -0.39914752219E+02 -0.22644985233E+03  0.24527154665E+03  0.47000000000E+01 0.  1.
         11    1    6    6    0    0  0.83074150676E+01  0.50916808009E+02 -0.12317896934E+03  0.13354622035E+03  0.00000000000E+00 0. -1.
        -12    1    6    6    0    0 -0.29534944856E+02 -0.15077274655E+02 -0.17530009608E+03  0.17840897081E+03  0.00000000000E+00 0.  1.
</event>
<event>
12    1  0.8356052E-002  0.1802350E+03  0.7818608E-02  0.1167616E+00
         21   -1    0    0  503  502  0.00000000000E+00  0.00000000000E+00  0.15891304145E+04  0.15891304145E+04  0.00000000000E+00 0.  1.
         21   -1    0    0  501  503 -0.00000000000E+00 -0.00000000000E+00 -0.23488319753E+02  0.23488319753E+02  0.00000000000E+00 0.  1.
          6    2    1    2  501    0 -0.43872805947E+02  0.29023036667E+02  0.49185515557E+03  0.52383789055E+03  0.17238759164E+03 0.  0.
         24    2    3    3    0    0 -0.78730831091E+01  0.66676644602E+02  0.18189032557E+03  0.20949085291E+03  0.79338304388E+02 0.  0.
         -6    2    1    2    0  502  0.43872805947E+02 -0.29023036667E+02  0.10737869391E+04  0.10887808437E+04  0.17221549035E+03 0.  0.
        -24    2    5    5    0    0  0.59541661064E+02 -0.71647308000E+02  0.92162004252E+03  0.92991235732E+03  0.81700326695E+02 0.  0.
          5    1    3    3  501    0 -0.35999722838E+02 -0.37653607934E+02  0.30996483000E+03  0.31434703764E+03  0.47000000000E+01 0. -1.
        -13    1    4    4    0    0 -0.74875557855E+01  0.56677860868E+02  0.18884240829E+03  0.19730661056E+03  0.00000000000E+00 0.  1.
         14    1    4    4    0    0 -0.38552732355E+00  0.99987837341E+01 -0.69520827153E+01  0.12184242347E+02  0.00000000000E+00 0. -1.
         -5    1    5    5    0  502 -0.15668855116E+02  0.42624271332E+02  0.15216689662E+03  0.15886848634E+03  0.47000000000E+01 0.  1.
         11    1    6    6    0    0 -0.20358463907E+01 -0.89025356876E+01  0.45449133386E+03  0.45458307532E+03  0.00000000000E+00 0. -1.
        -12    1    6    6    0    0  0.61577507454E+02 -0.62744772312E+02  0.46712870866E+03  0.47532928200E+03  0.00000000000E+00 0.  1.
</event>
<event>
12    1  0.8356052E-002  0.2341431E+03  0.7818608E-02  0.1124115E+00
         21   -1    0    0  503  502  0.00000000000E+00  0.00000000000E+00  0.14431388466E+04  0.14431388466E+04  0.00000000000E+00 0.  1.
         21   -1    0    0  501  503 -0.00000000000E+00 -0.00000000000E+00 -0.60547677804E+02  0.60547677804E+02  0.00000000000E+00 0.  1.
          6    2    1    2  501    0  0.53559840180E+02 -0.14993202224E+03  0.23088717900E+03  0.32883411525E+03  0.17168202629E+03 0.  0.
         24    2    3    3    0    0  0.26181643677E+02 -0.17309436687E+03  0.21618042889E+03  0.28979005871E+03  0.81222915389E+02 0.  0.
         -6    2    1    2    0  502 -0.53559840180E+02  0.14993202224E+03  0.11517039898E+04  0.11748524092E+04  0.16884263505E+03 0.  0.
        -24    2    5    5    0    0 -0.85718499462E+02  0.14316138781E+03  0.10822703299E+04  0.10978904446E+04  0.78813179821E+02 0.  0.
          5    1    3    3  501    0  0.27378196504E+02  0.23162344628E+02  0.14706750115E+02  0.39044056544E+02  0.47000000000E+01 0. -1.
        -11    1    4    4    0    0  0.11135191646E+02 -0.13330996689E+03  0.10285258050E+03  0.16874297935E+03  0.00000000000E+00 0.  1.
         12    1    4    4    0    0  0.15046452030E+02 -0.39784399982E+02  0.11332784839E+03  0.12104707936E+03  0.00000000000E+00 0. -1.
         -5    1    5    5    0  502  0.32158659282E+02  0.67706344372E+01  0.69433659915E+02  0.76961964546E+02  0.47000000000E+01 0.  1.
         13    1    6    6    0    0 -0.42770181568E+01  0.15669286750E+02  0.24749190853E+02  0.29603072128E+02  0.00000000000E+00 0. -1.
        -14    1    6    6    0    0 -0.81441481305E+02  0.12749210106E+03  0.10575211390E+04  0.10682873725E+04  0.00000000000E+00 0.  1.
</event>
<event>
12    1  0.8356052E-002  0.1961585E+03  0.7818608E-02  0.1153127E+00
         21   -1    0    0  503  502  0.00000000000E+00  0.00000000000E+00  0.28099014822E+02  0.28099014822E+02  0.00000000000E+00 0.  1.
         21   -1    0    0  501  503 -0.00000000000E+00 -0.00000000000E+00 -0.14579364628E+04  0.14579364628E+04  0.00000000000E+00 0.  1.
          6    2    1    2  501    0  0.92094810850E+02  0.11475091577E+02 -0.90236727471E+03  0.92344184664E+03  0.17281496966E+03 0.  0.
         24    2    3    3    0    0  0.46836287213E+02  0.39108119929E+02 -0.81417037165E+03  0.82042387768E+03  0.80615520577E+02 0.  0.
         -6    2    1    2    0  502 -0.92094810850E+02 -0.11475091577E+02 -0.52747017329E+03  0.56259363101E+03  0.17226049468E+03 0.  0.
        -24    2    5    5    0    0 -0.97024277945E+02 -0.40824331612E+02 -0.51263887607E+03  0.52901186641E+03  0.77295543053E+02 0.  0.
          5    1    3    3  501    0  0.45258523637E+02 -0.27633028352E+02 -0.88196903064E+02  0.10301796896E+03  0.47000000000E+01 0. -1.
        -13    1    4    4    0    0  0.55828651374E+02  0.13848283927E+02 -0.29464580439E+03  0.30020786687E+03  0.00000000000E+00 0.  1.
         14    1    4    4    0    0 -0.89923641613E+01  0.25259836002E+02 -0.51952456725E+03  0.52021601082E+03  0.00000000000E+00 0. -1.
         -5    1    5    5    0  502  0.49294670946E+01  0.29349240035E+02 -0.14831297215E+02  0.33581764598E+02  0.47000000000E+01 0.  1.
         13    1    6    6    0    0  0.55189178096E+01  0.48930981063E+01 -0.13083629808E+03  0.13104402984E+03  0.00000000000E+00 0. -1.
        -14    1    6    6    0    0 -0.10254319575E+03 -0.45717429718E+02 -0.38180257800E+03  0.39796783657E+03  0.00000000000E+00 0.  1.
</event>
<event>
12    1  0.8356052E-002  0.1959993E+03  0.7818608E-02  0.1153251E+00
         21   -1    0    0  503  502  0.00000000000E+00  0.00000000000E+00  0.16025078959E+03  0.16025078959E+03  0.00000000000E+00 0.  1.
         21   -1    0    0  501  503 -0.00000000000E+00 -0.00000000000E+00 -0.24139772907E+03  0.24139772907E+03  0.00000000000E+00 0.  1.
          6    2    1    2  501    0 -0.90449846659E+02 -0.12193912861E+02 -0.21394468596E+02  0.19674341496E+03  0.17297509004E+03 0.  0.
         24    2    3    3    0    0 -0.45705251024E+02  0.58136387257E+02 -0.30985113589E+02  0.11270473087E+03  0.79205237206E+02 0.  0.
         -6    2    1    2    0  502  0.90449846659E+02  0.12193912861E+02 -0.59752470877E+02  0.20490510370E+03  0.17345281051E+03 0.  0.
        -24    2    5    5    0    0 -0.17776785698E+02 -0.11548417659E+02 -0.97801744438E+01  0.83266201119E+02  0.79926393490E+02 0.  0.
          5    1    3    3  501    0 -0.44744595635E+02 -0.70330300118E+02  0.95906449929E+01  0.84038684096E+02  0.47000000000E+01 0. -1.
        -13    1    4    4    0    0  0.67190605708E+01 -0.11740041909E+02  0.93932467919E+01  0.16468377099E+02  0.00000000000E+00 0.  1.
         14    1    4    4    0    0 -0.52424311595E+02  0.69876429166E+02 -0.40378360381E+02  0.96236353767E+02  0.00000000000E+00 0. -1.
         -5    1    5    5    0  502  0.10822663236E+03  0.23742330520E+02 -0.49972296434E+02  0.12163890258E+03  0.47000000000E+01 0.  1.
         13    1    6    6    0    0 -0.12092715604E+02 -0.39139830700E+02 -0.28087227273E+02  0.49669431784E+02  0.00000000000E+00 0. -1.
        -14    1    6    6    0    0 -0.56840700941E+01  0.27591413041E+02  0.18307052829E+02  0.33596769334E+02  0.00000000000E+00 0.  1.
</event>
<event>
12    1  0.8356052E-002  0.2351283E+03  0.7818608E-02  0.1123364E+00
         21   -1    0    0  503  502  0.00000000000E+00  0.00000000000E+00  0.30309098348E+02  0.30309098348E+02  0.00000000000E+00 0.  1.
         21   -1    0    0  501  503 -0.00000000000E+00 -0.00000000000E+00 -0.19955979322E+04  0.19955979322E+04  0.00000000000E+00 0. -1.
          6    2    1    2  501    0  0.14864920781E+03  0.53875868921E+02 -0.12873361348E+04  0.13083380883E+04  0.17179939734E+03 0.  0.
         24    2    3    3    0    0  0.10157457561E+02  0.24016163665E+02 -0.62410440752E+03  0.63012722062E+03  0.82909906605E+02 0.  0.
         -6    2    1    2    0  502 -0.14864920781E+03 -0.53875868921E+02 -0.67795269902E+03  0.71756894228E+03  0.17402910269E+03 0.  0.
        -24    2    5    5    0    0 -0.20958748144E+02 -0.67467159317E+02 -0.33373092821E+03  0.35014508055E+03  0.78956686123E+02 0.  0.
          5    1    3    3  501    0  0.13849175025E+03  0.29859705255E+02 -0.66323172731E+03  0.67821086765E+03  0.47000000000E+01 0. -1.
        -13    1    4    4    0    0  0.22288878555E+02  0.74318047235E+01 -0.58887375660E+03  0.58934228343E+03  0.00000000000E+00 0.  1.
         14    1    4    4    0    0 -0.12131420994E+02  0.16584358942E+02 -0.35230650925E+02  0.40784937188E+02  0.00000000000E+00 0. -1.
         -5    1    5    5    0  502 -0.12769045967E+03  0.13591290396E+02 -0.34422177081E+03  0.36742386173E+03  0.47000000000E+01 0.  1.
         11    1    6    6    0    0 -0.70366212719E+01 -0.68410897280E+02 -0.14067496286E+03  0.15658547213E+03  0.00000000000E+00 0. -1.
        -12    1    6    6    0    0 -0.13922126872E+02  0.94373796296E+00 -0.19305596535E+03  0.19355960843E+03  0.00000000000E+00 0.  1.
</event>
<event>
12    1  0.8356052E-002  0.2091428E+03  0.7818608E-02  0.1142678E+00
         21   -1    0    0  501  502  0.00000000000E+00  0.00000000000E+00  0.84075402658E+03  0.84075402658E+03  0.00000000000E+00 0.  1.
         21   -1    0    0  502  503 -0.00000000000E+00 -0.00000000000E+00 -0.63879194858E+02  0.63879194858E+02  0.00000000000E+00 0. -1.
         -6    2    1    2    0  503  0.11566141810E+03  0.18284032394E+02  0.19087107152E+03  0.28314746001E+03  0.17328833973E+03 0.  0.
        -24    2    3    3    0    0  0.88148283086E+02  0.28343953399E+02  0.21323382231E+03  0.24599430090E+03  0.80442734865E+02 0.  0.
          6    2    1    2  501    0 -0.11566141810E+03 -0.18284032394E+02  0.58600376020E+03  0.62148576143E+03  0.17068179521E+03 0.  0.
         24    2    5    5    0    0 -0.17483432219E+02 -0.56961645861E+02  0.24061415252E+03  0.26030582595E+03  0.79458499437E+02 0.  0.
          5    1    5    5  501    0 -0.98177985883E+02  0.38677613467E+02  0.34538960768E+03  0.36117993547E+03  0.47000000000E+01 0. -1.
        -13    1    6    6    0    0  0.24558941721E+02 -0.50802770607E+02  0.14865817678E+03  0.15900728488E+03  0.00000000000E+00 0.  1.
         14    1    6    6    0    0 -0.42042373940E+02 -0.61588752536E+01  0.91955975735E+02  0.10129854108E+03  0.00000000000E+00 0. -1.
         -5    1    3    3    0  503  0.27513135016E+02 -0.10059921004E+02 -0.22362750787E+02  0.37153159109E+02  0.47000000000E+01 0.  1.
         13    1    4    4    0    0  0.46410964592E+02  0.21627112852E+02  0.33107889711E+02  0.60974109307E+02  0.00000000000E+00 0. -1.
        -14    1    4    4    0    0  0.41737318494E+02  0.67168405463E+01  0.18012593260E+03  0.18502019159E+03  0.00000000000E+00 0.  1.
</event>
<event>
12    1  0.8356052E-002  0.2474240E+03  0.7818608E-02  0.1114995E+00
         21   -1    0    0  501  502  0.00000000000E+00  0.00000000000E+00  0.22995847300E+03  0.22995847300E+03  0.00000000000E+00 0.  1.
         21   -1    0    0  502  503 -0.00000000000E+00 -0.00000000000E+00 -0.36236511100E+03  0.36236511100E+03  0.00000000000E+00 0.  1.
         -6    2    1    2    0  503  0.23460252388E+02 -0.17600375191E+03 -0.21906204384E+03  0.33046455307E+03  0.17231058487E+03 0.  0.
        -24    2    3    3    0    0  0.64325071971E+02 -0.52187579547E+02 -0.83226556253E+02  0.14211979550E+03  0.80063214174E+02 0.  0.
          6    2    1    2  501    0 -0.23460252388E+02  0.17600375191E+03  0.86655405836E+02  0.26185903092E+03  0.17185251988E+03 0.  0.
         24    2    5    5    0    0 -0.10544905551E+02  0.18278483780E+03  0.11447061404E+03  0.23010111668E+03  0.79507927011E+02 0.  0.
          5    1    5    5  501    0 -0.12915346837E+02 -0.67810858907E+01 -0.27815208202E+02  0.31757914243E+02  0.47000000000E+01 0. -1.
        -11    1    6    6    0    0 -0.28072857357E+02  0.11684599738E+03  0.10799233903E+03  0.16156552142E+03  0.00000000000E+00 0.  1.
         12    1    6    6    0    0  0.17527951806E+02  0.65938840422E+02  0.64782750106E+01  0.68535595261E+02  0.00000000000E+00 0. -1.
         -5    1    3    3    0  503 -0.40864819583E+02 -0.12381617236E+03 -0.13583548759E+03  0.18834475757E+03  0.47000000000E+01 0.  1.
         13    1    4    4    0    0  0.57899879442E+02 -0.60136839429E+02 -0.31232875037E+02  0.89130959711E+02  0.00000000000E+00 0. -1.
        -14    1    4    4    0    0  0.64251925291E+01  0.79492598823E+01 -0.51993681217E+02  0.52988835788E+02  0.00000000000E+00 0.  1.
</event>
<event>
12    1  0.8356052E-002  0.2585083E+03  0.7818608E-02  0.1108076E+00
         21   -1    0    0  503  502  0.00000000000E+00  0.00000000000E+00  0.40451554517E+02  0.40451554517E+02  0.00000000000E+00 0.  1.
         21   -1    0    0  501  503 -0.00000000000E+00 -0.00000000000E+00 -0.17260676898E+04  0.17260676898E+04  0.00000000000E+00 0. -1.
          6    2    1    2  501    0 -0.19052097606E+03 -0.30609362309E+02 -0.10271191480E+04  0.10590980011E+04  0.17169640734E+03 0.  0.
         24    2    3    3    0    0 -0.82106111151E+02 -0.46745087697E+02 -0.76400002342E+03  0.77402273331E+03  0.80552089868E+02 0.  0.
         -6    2    1    2    0  502  0.19052097606E+03  0.30609362309E+02 -0.65849698732E+03  0.70742124329E+03  0.17202138753E+03 0.  0.
        -24    2    5    5    0    0  0.21167698231E+03  0.32088638229E+02 -0.63786356199E+03  0.67746138517E+03  0.79039098760E+02 0.  0.
          5    1    3    3  501    0 -0.10841486491E+03  0.16135725388E+02 -0.26311912457E+03  0.28507526775E+03  0.47000000000E+01 0. -1.
        -11    1    4    4    0    0 -0.55754388076E+02 -0.58623548972E+01 -0.19362829786E+03  0.20158084415E+03  0.00000000000E+00 0.  1.
         12    1    4    4    0    0 -0.26351723075E+02 -0.40882732800E+02 -0.57037172556E+03  0.57244188916E+03  0.00000000000E+00 0. -1.
         -5    1    5    5    0  502 -0.21156006253E+02 -0.14792759196E+01 -0.20633425325E+02  0.29959858118E+02  0.47000000000E+01 0.  1.
         13    1    6    6    0    0  0.12925811084E+03  0.56917188175E+02 -0.42498312756E+03  0.44783689469E+03  0.00000000000E+00 0. -1.
        -14    1    6    6    0    0  0.82418871471E+02 -0.24828549946E+02 -0.21288043443E+03  0.22962449048E+03  0.00000000000E+00 0.  1.
</event>
<event>
12    1  0.8356052E-002  0.1897864E+03  0.7818608E-02  0.1159608E+00
         21   -1    0    0  503  502  0.00000000000E+00  0.00000000000E+00  0.25650057204E+03  0.25650057204E+03  0.00000000000E+00 0.  1.
         21   -1    0    0  501  503 -0.00000000000E+00 -0.00000000000E+00 -0.14788602179E+03  0.14788602179E+03  0.00000000000E+00 0. -1.
          6    2    1    2  501    0  0.73673200282E+02  0.18179457346E+02 -0.21501738857E+00  0.18561102161E+03  0.16939059006E+03 0.  0.
         24    2    3    3    0    0  0.13760076166E+02 -0.14564713569E+02  0.52732543392E+02  0.99081851022E+02  0.81455641253E+02 0.  0.
         -6    2    1    2    0  502 -0.73673200282E+02 -0.18179457346E+02  0.10882956763E+03  0.21877557222E+03  0.17395586537E+03 0.  0.
        -24    2    5    5    0    0 -0.20482598036E+02  0.11851233755E+02  0.12966266099E+03  0.15406706926E+03  0.79776359986E+02 0.  0.
          5    1    3    3  501    0  0.59913124116E+02  0.32744170915E+02 -0.52947560780E+02  0.86529170589E+02  0.47000000000E+01 0. -1.
        -11    1    4    4    0    0  0.36405565875E+02 -0.16963168203E+02  0.62508844136E+02  0.74299864720E+02  0.00000000000E+00 0.  1.
         12    1    4    4    0    0 -0.22645489709E+02  0.23984546332E+01 -0.97763007448E+01  0.24781986302E+02  0.00000000000E+00 0. -1.
         -5    1    5    5    0  502 -0.53190602246E+02 -0.30030691100E+02 -0.20833093358E+02  0.64708502951E+02  0.47000000000E+01 0.  1.
         11    1    6    6    0    0 -0.27484666773E+02 -0.26575265625E+02  0.35694433898E+02  0.52304342668E+02  0.00000000000E+00 0. -1.
        -12    1    6    6    0    0  0.70020687372E+01  0.38426499380E+02  0.93968227094E+02  0.10176272660E+03  0.00000000000E+00 0.  1.
</event>
<event>
12    1  0.8356052E-002  0.1928403E+03  0.7818608E-02  0.1156190E+00
         21   -1    0    0  503  502  0.00000000000E+00  0.00000000000E+00  0.52888534063E+02  0.52888534063E+02  0.00000000000E+00 0. -1.
         21   -1    0    0  501  503 -0.00000000000E+00 -0.00000000000E+00 -0.98232521042E+03  0.98232521042E+03  0.00000000000E+00 0. -1.
          6    2    1    2  501    0 -0.84919217099E+02 -0.10698355280E+02 -0.74384198043E+03  0.76843235356E+03  0.17280527166E+03 0.  0.
         24    2    3    3    0    0 -0.75278863070E+02 -0.71216619326E+02 -0.53667779626E+03  0.55234328417E+03  0.79506807727E+02 0.  0.
         -6    2    1    2    0  502  0.84919217099E+02  0.10698355280E+02 -0.18559469592E+03  0.26678139092E+03  0.17146775541E+03 0.  0.
        -24    2    5    5    0    0  0.90940974675E+02  0.48100014556E+02 -0.76396484306E+02  0.15110302171E+03  0.80073891385E+02 0.  0.
          5    1    3    3  501    0 -0.96403540292E+01  0.60518264046E+02 -0.20716418417E+03  0.21608906939E+03  0.47000000000E+01 0. -1.
        -11    1    4    4    0    0 -0.21913414937E+02 -0.74525700162E+00 -0.25729594065E+02  0.33804809909E+02  0.00000000000E+00 0.  1.
         12    1    4    4    0    0 -0.53365448133E+02 -0.70471362324E+02 -0.51094820220E+03  0.51853847426E+03  0.00000000000E+00 0. -1.
         -5    1    5    5    0  502 -0.60217575754E+01 -0.37401659276E+02 -0.10919821162E+03  0.11567836920E+03  0.47000000000E+01 0.  1.
         13    1    6    6    0    0  0.26223672502E+01  0.38898624594E+02 -0.37725282704E+02  0.54251053081E+02  0.00000000000E+00 0. -1.
        -14    1    6    6    0    0  0.88318607424E+02  0.92013899626E+01 -0.38671201602E+02  0.96851968632E+02  0.00000000000E+00 0.  1.
</event>
<event>
12    1  0.8356052E-002  0.2239192E+03  0.7818608E-02  0.1131137E+00
         21   -1    0    0  501  502  0.00000000000E+00  0.00000000000E+00  0.19273096726E+03  0.19273096726E+03  0.00000000000E+00 0.  1.
         21   -1    0    0  502  503 -0.00000000000E+00 -0.00000000000E+00 -0.32188417647E+03  0.32188417647E+03  0.00000000000E+00 0.  1.
         -6    2    1    2    0  503 -0.12884083797E+03  0.66592972567E+02 -0.17799093445E+03  0.28543191680E+03  0.16957600318E+03 0.  0.
        -24    2    3    3    0    0 -0.41942932287E+01  0.50724258802E+02 -0.61309172299E+02  0.11389387200E+03  0.81378479619E+02 0.  0.
          6    2    1    2  501    0  0.12884083797E+03 -0.66592972567E+02  0.48837725247E+02  0.22918322694E+03  0.17060258668E+03 0.  0.
         24    2    5    5    0    0  0.89192353664E+02  0.79076482193E+01  0.74275314753E+02  0.14091372052E+03  0.79511303569E+02 0.  0.
          5    1    5    5  501    0  0.39648484302E+02 -0.74500620786E+02 -0.25437589506E+02  0.88269506427E+02  0.47000000000E+01 0. -1.
        -11    1    6    6    0    0  0.42915592194E+02 -0.23971595149E+02  0.68655185249E+02  0.84438852958E+02  0.00000000000E+00 0.  1.
         12    1    6    6    0    0  0.46276761470E+02  0.31879243368E+02  0.56201295044E+01  0.56474867557E+02  0.00000000000E+00 0. -1.
         -5    1    3    3    0  503 -0.12464654474E+03  0.15868713765E+02 -0.11668176216E+03  0.17153804479E+03  0.47000000000E+01 0.  1.
         13    1    4    4    0    0 -0.24954490011E+02  0.62252004368E+02 -0.27290637039E+02  0.72407302736E+02  0.00000000000E+00 0. -1.
        -14    1    4    4    0    0  0.20760196783E+02 -0.11527745566E+02 -0.34018535260E+02  0.41486569267E+02  0.00000000000E+00 0.  1.
</event>
<event>
12    1  0.8356052E-002  0.3839991E+03  0.7818608E-02  0.1049536E+00
         21   -1    0    0  501  502  0.00000000000E+00  0.00000000000E+00  0.17975501846E+04  0.17975501846E+04  0.00000000000E+00 0.  1.
         21   -1    0    0  502  503 -0.00000000000E+00 -0.00000000000E+00 -0.19494966557E+03  0.19494966557E+03  0.00000000000E+00 0.  1.
         -6    2    1    2    0  503  0.21098097804E+03 -0.27070231235E+03  0.42874365372E+02  0.38638523761E+03  0.17222841120E+03 0.  0.
        -24    2    3    3    0    0  0.25038015871E+02 -0.64610865926E+02  0.31158224413E+02  0.10852227241E+03  0.77490531197E+02 0.  0.
          6    2    1    2  501    0 -0.21098097804E+03  0.27070231235E+03  0.15597261537E+04  0.16061146126E+04  0.17048683024E+03 0.  0.
         24    2    5    5    0    0 -0.21914561893E+03  0.25616444966E+03  0.15450932703E+04  0.15834381471E+04  0.79486628365E+02 0.  0.
          5    1    5    5  501    0  0.81646408843E+01  0.14537862692E+02  0.14632883369E+02  0.22676465512E+02  0.47000000000E+01 0. -1.
        -11    1    6    6    0    0 -0.16444378941E+03  0.15778593256E+03  0.88829200893E+03  0.91706098680E+03  0.00000000000E+00 0.  1.
         12    1    6    6    0    0 -0.54701829517E+02  0.98378517104E+02  0.65680126139E+03  0.66637716028E+03  0.00000000000E+00 0. -1.
         -5    1    3    3    0  503  0.18594296217E+03 -0.20609144643E+03  0.11716140960E+02  0.27786296520E+03  0.47000000000E+01 0.  1.
         13    1    4    4    0    0  0.30309304221E+02 -0.63899467027E+02  0.51505886635E+02  0.87490869048E+02  0.00000000000E+00 0. -1.
        -14    1    4    4    0    0 -0.52712883501E+01 -0.71139889879E+00 -0.20347662223E+02  0.21031403358E+02  0.00000000000E+00 0.  1.
</event>
<event>
12    1  0.8356052E-002  0.1963161E+03  0.7818608E-02  0.1152994E+00
         21   -1    0    0  503  502  0.00000000000E+00  0.00000000000E+00  0.52958135937E+03  0.52958135937E+03  0.00000000000E+00 0.  1.
         21   -1    0    0  501  503 -0.00000000000E+00 -0.00000000000E+00 -0.16043235901E+03  0.16043235901E+03  0.00000000000E+00 0.  1.
          6    2    1    2  501    0  0.43380510032E+01 -0.94192786784E+02 -0.70825249329E+02  0.20822813927E+03  0.17161480784E+03 0.  0.
         24    2    3    3    0    0  0.84338331356E+01 -0.34685325056E+02 -0.10722695395E+03  0.13819180918E+03  0.79530844055E+02 0.  0.
         -6    2    1    2    0  502 -0.43380510032E+01  0.94192786784E+02  0.43997424969E+03  0.48178557912E+03  0.17218857128E+03 0.  0.
        -24    2    5    5    0    0 -0.14665974628E+02  0.24942448025E+02  0.38164265407E+03  0.39053350806E+03  0.77640768815E+02 0.  0.
          5    1    3    3  501    0 -0.40957821324E+01 -0.59507461728E+02  0.36401704619E+02  0.70036330085E+02  0.47000000000E+01 0. -1.
        -11    1    4    4    0    0  0.29037944549E+02 -0.70051192841E+01 -0.49853402915E+01  0.30284113618E+02  0.00000000000E+00 0.  1.
         12    1    4    4    0    0 -0.20604111413E+02 -0.27680205772E+02 -0.10224161366E+03  0.10790769556E+03  0.00000000000E+00 0. -1.
         -5    1    5    5    0  502  0.10327923624E+02  0.69250338759E+02  0.58331595622E+02  0.91252071058E+02  0.47000000000E+01 0.  1.
         11    1    6    6    0    0  0.17937341832E+02  0.10619954590E+02  0.30828868913E+03  0.30899263342E+03  0.00000000000E+00 0. -1.
        -12    1    6    6    0    0 -0.32603316460E+02  0.14322493435E+02  0.73353964947E+02  0.81540874633E+02  0.00000000000E+00 0.  1.
</event>
<event>
12    1  0.8356052E-002  0.2552831E+03  0.7818608E-02  0.1111843E+00
         21   -1    0    0  503  502  0.00000000000E+00  0.00000000000E+00  0.17233104045E+03  0.17233104045E+03  0.00000000000E+00 0. -1.
         21   -1    0    0  501  503 -0.00000000000E+00 -0.00000000000E+00 -0.49130714218E+03  0.49130714218E+03  0.00000000000E+00 0.  1.
          6    2    1    2  501    0 -0.10028634838E+03 -0.14199378212E+03 -0.33297342347E+03  0.41957213433E+03  0.18694889498E+03 0.  0.
         24    2    3    3    0    0 -0.63077802172E+02 -0.17008183350E+03 -0.30817411078E+03  0.36655788671E+03  0.80540440392E+02 0.  0.
         -6    2    1    2    0  502  0.10028634838E+03  0.14199378212E+03  0.13997321743E+02  0.24406604831E+03  0.17074169113E+03 0.  0.
        -24    2    5    5    0    0  0.47013202104E+02  0.14130743588E+03 -0.34458431172E+02  0.17189576928E+03  0.78630397481E+02 0.  0.
          5    1    3    3  501    0 -0.37208546203E+02  0.28088051378E+02 -0.24799312692E+02  0.53014247620E+02  0.47000000000E+01 0. -1.
        -13    1    4    4    0    0 -0.45672672881E+02 -0.40348711552E+02 -0.57604052524E+02  0.83858442862E+02  0.00000000000E+00 0.  1.
         14    1    4    4    0    0 -0.17405129291E+02 -0.12973312195E+03 -0.25057005825E+03  0.28269944384E+03  0.00000000000E+00 0. -1.
         -5    1    5    5    0  502  0.53273146271E+02  0.68634623614E+00  0.48455752915E+02  0.72170279031E+02  0.47000000000E+01 0.  1.
         13    1    6    6    0    0 -0.30397692112E+01  0.80053412052E+02  0.10679878415E+02  0.80819853879E+02  0.00000000000E+00 0. -1.
        -14    1    6    6    0    0  0.50052971315E+02  0.61254023832E+02 -0.45138309587E+02  0.91075915397E+02  0.00000000000E+00 0.  1.
</event>
<event>
12    1  0.8356052E-002  0.2185588E+03  0.7818608E-02  0.1135304E+00
         21   -1    0    0  501  502  0.00000000000E+00  0.00000000000E+00  0.19765103182E+03  0.19765103182E+03  0.00000000000E+00 0. -1.
         21   -1    0    0  502  503 -0.00000000000E+00 -0.00000000000E+00 -0.24738149890E+03  0.24738149890E+03  0.00000000000E+00 0. -1.
         -6    2    1    2    0  503  0.10691749144E+02  0.13070459199E+03 -0.64030600949E+02  0.22600636034E+03  0.17257158860E+03 0.  0.
        -24    2    3    3    0    0  0.28522226416E+02  0.94334491520E+00 -0.21800867695E+02  0.88306151437E+02  0.80673981246E+02 0.  0.
          6    2    1    2  501    0 -0.10691749144E+02 -0.13070459199E+03  0.14300133870E+02  0.21902617037E+03  0.17484268818E+03 0.  0.
         24    2    5    5    0    0 -0.11172173812E+02 -0.76956160159E+02 -0.60714552376E+02  0.12662261045E+03  0.79372290842E+02 0.  0.
          5    1    5    5  501    0  0.48042466866E+00 -0.53748431832E+02  0.75014686246E+02  0.92403559915E+02  0.47000000000E+01 0. -1.
        -13    1    6    6    0    0  0.19783369384E+02 -0.28932347467E+01  0.74268894191E+01  0.21328647353E+02  0.00000000000E+00 0.  1.
         14    1    6    6    0    0 -0.30955543196E+02 -0.74062925412E+02 -0.68141441795E+02  0.10529396310E+03  0.00000000000E+00 0. -1.
         -5    1    3    3    0  503 -0.17830477272E+02  0.12976124708E+03 -0.42229733254E+02  0.13770020891E+03  0.47000000000E+01 0.  1.
         11    1    4    4    0    0  0.18447433028E+02  0.36356812725E+02  0.72472379006E+01  0.41408309239E+02  0.00000000000E+00 0. -1.
        -12    1    4    4    0    0  0.10074793387E+02 -0.35413467810E+02 -0.29048105596E+02  0.46897842198E+02  0.00000000000E+00 0.  1.
</event>
<event>
12    1  0.8356052E-002  0.2263336E+03  0.7818608E-02  0.1129261E+00
         21   -1    0    0  501  502  0.00000000000E+00  0.00000000000E+00  0.91637980302E+03  0.91637980302E+03  0.00000000000E+00 0. -1.
         21   -1    0    0  502  503 -0.00000000000E+00 -0.00000000000E+00 -0.19826105261E+03  0.19826105261E+03  0.00000000000E+00 0.  1.
         -6    2    1    2    0  503 -0.52986843321E+02  0.13681332609E+03 -0.11324641227E+03  0.25301743153E+03  0.17224279087E+03 0.  0.
        -24    2    3    3    0    0 -0.59151029655E+02  0.11659015182E+03 -0.18207659408E+02  0.15554216023E+03  0.82278411129E+02 0.  0.
          6    2    1    2  501    0  0.52986843321E+02 -0.13681332609E+03  0.83136516268E+03  0.86162342410E+03  0.17234093963E+03 0.  0.
         24    2    5    5    0    0  0.97177893201E+02 -0.12575929845E+03  0.68787703690E+03  0.71100479093E+03  0.84226188088E+02 0.  0.
          5    1    5    5  501    0 -0.44191049879E+02 -0.11054027637E+02  0.14348812578E+03  0.15061863316E+03  0.47000000000E+01 0. -1.
        -11    1    6    6    0    0 -0.62262999614E+01 -0.30118443805E+02  0.22730136448E+03  0.22937261773E+03  0.00000000000E+00 0.  1.
         12    1    6    6    0    0  0.10340419316E+03 -0.95640854643E+02  0.46057567242E+03  0.48163217320E+03  0.00000000000E+00 0. -1.
         -5    1    3    3    0  503  0.61641863336E+01  0.20223174270E+02 -0.95038752859E+02  0.97475271303E+02  0.47000000000E+01 0.  1.
         11    1    4    4    0    0  0.14070565596E+01  0.56532866601E+02  0.22717523616E+02  0.60942847764E+02  0.00000000000E+00 0. -1.
        -12    1    4    4    0    0 -0.60558086215E+02  0.60057285216E+02 -0.40925183024E+02  0.94599312466E+02  0.00000000000E+00 0.  1.
</event>
<event>
12    1  0.8356052E-002  0.2092451E+03  0.7818608E-02  0.1143553E+00
         21   -1    0    0  503  502  0.00000000000E+00  0.00000000000E+00  0.68205186893E+03  0.68205186893E+03  0.00000000000E+00 0. -1.
         21   -1    0    0  501  503 -0.00000000000E+00 -0.00000000000E+00 -0.12699591922E+03  0.12699591922E+03  0.00000000000E+00 0. -1.
          6    2    1    2  501    0  0.53089686731E+02  0.10091044672E+03 -0.93466375087E+01  0.20945374004E+03  0.17544821598E+03 0.  0.
         24    2    3    3    0    0 -0.30596187741E+02  0.89679683069E+02 -0.11257156689E+02  0.12486535005E+03  0.80536077671E+02 0.  0.
         -6    2    1    2    0  502 -0.53089686731E+02 -0.10091044672E+03  0.56440258722E+03  0.59959404811E+03  0.16721635379E+03 0.  0.
        -24    2    5    5    0    0 -0.68848774261E+02 -0.28967297649E+02  0.21427760662E+03  0.24177599717E+03  0.83435496400E+02 0.  0.
          5    1    3    3  501    0  0.83685874471E+02  0.11230763648E+02  0.19105191801E+01  0.84588389993E+02  0.47000000000E+01 0. -1.
        -13    1    4    4    0    0 -0.12938839575E+02  0.60303307594E+02  0.32154326386E+02  0.69554318211E+02  0.00000000000E+00 0.  1.
         14    1    4    4    0    0 -0.17657348166E+02  0.29376375475E+02 -0.43411483075E+02  0.55311031839E+02  0.00000000000E+00 0. -1.
         -5    1    5    5    0  502  0.15759087531E+02 -0.71943149067E+02  0.35012498060E+03  0.35781805094E+03  0.47000000000E+01 0.  1.
         11    1    6    6    0    0 -0.51276711269E+02 -0.32506869231E+02  0.21542263546E+03  0.22381445336E+03  0.00000000000E+00 0. -1.
        -12    1    6    6    0    0 -0.17572062992E+02  0.35395715816E+01 -0.11450288451E+01  0.17961543804E+02  0.00000000000E+00 0.  1.
</event>
<event>
12    1  0.8356052E-002  0.2046301E+03  0.7818608E-02  0.1145902E+00
         21   -1    0    0  501  502  0.00000000000E+00  0.00000000000E+00  0.61997180657E+03  0.61997180657E+03  0.00000000000E+00 0.  1.
         21   -1    0    0  502  503 -0.00000000000E+00 -0.00000000000E+00 -0.77067744633E+02  0.77067744633E+02  0.00000000000E+00 0.  1.
         -6    2    1    2    0  503  0.45528689800E+02 -0.99898314865E+02  0.39407924442E+03  0.44401324345E+03  0.17261742254E+03 0.  0.
        -24    2    3    3    0    0  0.46401599408E+02 -0.12665176170E+03  0.38439681317E+03  0.41516279521E+03  0.80034113847E+02 0.  0.
          6    2    1    2  501    0 -0.45528689800E+02  0.99898314865E+02  0.14882481751E+03  0.25302630775E+03  0.17268743787E+03 0.  0.
         24    2    5    5    0    0  0.50170616669E+01  0.77130293007E+02  0.21412963905E+02  0.11399707971E+03  0.81009667026E+02 0.  0.
          5    1    5    5  501    0 -0.50545751466E+02  0.22768021857E+02  0.12741185360E+03  0.13902922804E+03  0.47000000000E+01 0. -1.
        -13    1    6    6    0    0 -0.19701610312E+02  0.66384971155E+02  0.41185620094E+02  0.80569058246E+02  0.00000000000E+00 0.  1.
         14    1    6    6    0    0  0.24718671979E+02  0.10745321853E+02 -0.19772656189E+02  0.33428021462E+02  0.00000000000E+00 0. -1.
         -5    1    3    3    0  503 -0.87290960831E+00  0.26753446839E+02  0.96824312574E+01  0.28850448246E+02  0.47000000000E+01 0.  1.
         13    1    4    4    0    0 -0.11833892318E+02 -0.19751718172E+02  0.18468057162E+02  0.29516783590E+02  0.00000000000E+00 0. -1.
        -14    1    4    4    0    0  0.58235491726E+02 -0.10690004353E+03  0.36592875601E+03  0.38564601162E+03  0.00000000000E+00 0.  1.
</event>
<event>
12    1  0.8356052E-002  0.1744299E+03  0.7818608E-02  0.1173813E+00
         21   -1    0    0  503  502  0.00000000000E+00  0.00000000000E+00  0.12958917494E+03  0.12958917494E+03  0.00000000000E+00 0.  1.
         21   -1    0    0  501  503 -0.00000000000E+00 -0.00000000000E+00 -0.10871934762E+04  0.10871934762E+04  0.00000000000E+00 0.  1.
          6    2    1    2  501    0  0.22857496290E+02  0.10036234856E+02 -0.10177659678E+04  0.10322691827E+04  0.17061333202E+03 0.  0.
         24    2    3    3    0    0  0.61615892141E+00  0.69287208679E+02 -0.56044451677E+03  0.57056543069E+03  0.81521514868E+02 0.  0.
         -6    2    1    2    0  502 -0.22857496290E+02 -0.10036234856E+02  0.60161666603E+02  0.18451346844E+03  0.17263430355E+03 0.  0.
        -24    2    5    5    0    0 -0.67520554332E+02  0.31966972978E+01 -0.37764096480E+01  0.10526659569E+03  0.80607386551E+02 0.  0.
          5    1    3    3  501    0  0.22241337368E+02 -0.59250973823E+02 -0.45732145107E+03  0.46170375199E+03  0.47000000000E+01 0. -1.
        -13    1    4    4    0    0  0.30829063348E+02  0.50032730601E+02 -0.46353404621E+03  0.46724460112E+03  0.00000000000E+00 0.  1.
         14    1    4    4    0    0 -0.30212904427E+02  0.19254478078E+02 -0.96910470562E+02  0.10332082958E+03  0.00000000000E+00 0. -1.
         -5    1    5    5    0  502  0.44663058042E+02 -0.13232932154E+02  0.63938076251E+02  0.79246872757E+02  0.47000000000E+01 0.  1.
         11    1    6    6    0    0 -0.10226867940E+02  0.13790490720E+02 -0.35130284435E+02  0.39101193673E+02  0.00000000000E+00 0. -1.
        -12    1    6    6    0    0 -0.57293686392E+02 -0.10593793422E+02  0.31353874787E+02  0.66165402013E+02  0.00000000000E+00 0.  1.
</event>
<event>
12    1  0.8356052E-002  0.2084487E+03  0.7818608E-02  0.1142881E+00
         21   -1    0    0  501  502  0.00000000000E+00  0.00000000000E+00  0.14227977723E+03  0.14227977723E+03  0.00000000000E+00 0. -1.
         21   -1    0    0  502  503 -0.00000000000E+00 -0.00000000000E+00 -0.10112405731E+04  0.10112405731E+04  0.00000000000E+00 0. -1.
         -6    2    1    2    0  503  0.77393718189E+02 -0.87600221222E+02 -0.91667332224E+03  0.94007491240E+03  0.17258990370E+03 0.  0.
        -24    2    3    3    0    0  0.11406772315E+03 -0.82422133111E+02 -0.83075755482E+03  0.84639778431E+03  0.80163837927E+02 0.  0.
          6    2    1    2  501    0 -0.77393718189E+02  0.87600221222E+02  0.47712526384E+02  0.21344543791E+03  0.17210137541E+03 0.  0.
         24    2    5    5    0    0 -0.19187600928E+02  0.41672776327E+02  0.89335941663E+02  0.12828746130E+03  0.79824669983E+02 0.  0.
          5    1    5    5  501    0 -0.58206117261E+02  0.45927444895E+02 -0.41623415278E+02  0.85157976612E+02  0.47000000000E+01 0. -1.
        -13    1    6    6    0    0 -0.24214807616E+02 -0.19167325880E+02  0.26724808811E+02  0.40840650035E+02  0.00000000000E+00 0.  1.
         14    1    6    6    0    0  0.50272066877E+01  0.60840102207E+02  0.62611132852E+02  0.87446811266E+02  0.00000000000E+00 0. -1.
         -5    1    3    3    0  503 -0.36674004962E+02 -0.51780881111E+01 -0.85915767420E+02  0.93677128093E+02  0.47000000000E+01 0.  1.
         11    1    4    4    0    0  0.84786441553E+02 -0.30938576303E+02 -0.32895255691E+03  0.34110954380E+03  0.00000000000E+00 0. -1.
        -12    1    4    4    0    0  0.29281281599E+02 -0.51483556807E+02 -0.50180499791E+03  0.50528824051E+03  0.00000000000E+00 0.  1.
</event>
<event>
12    1  0.8356052E-002  0.3221218E+03  0.7818608E-02  0.1074774E+00
         21   -1    0    0  501  502  0.00000000000E+00  0.00000000000E+00  0.15649145050E+03  0.15649145050E+03  0.00000000000E+00 0. -1.
         21   -1    0    0  502  503 -0.00000000000E+00 -0.00000000000E+00 -0.69564619714E+03  0.69564619714E+03  0.00000000000E+00 0.  1.
         -6    2    1    2    0  503 -0.25335452812E+03 -0.10068382117E+03 -0.36390601837E+03  0.48542993512E+03  0.16996729961E+03 0.  0.
        -24    2    3    3    0    0 -0.15178531904E+03 -0.12202792759E+03 -0.19396141593E+03  0.28624375836E+03  0.79905319866E+02 0.  0.
          6    2    1    2  501    0  0.25335452812E+03  0.10068382117E+03 -0.17524872827E+03  0.36670771251E+03  0.17157121230E+03 0.  0.
         24    2    5    5    0    0  0.10483968803E+03  0.12296790891E+02 -0.13503745498E+03  0.18920289188E+03  0.80125206993E+02 0.  0.
          5    1    5    5  501    0  0.14851484009E+03  0.88387030277E+02 -0.40211273294E+02  0.17750482063E+03  0.47000000000E+01 0. -1.
        -13    1    6    6    0    0  0.11159818418E+03  0.35132005548E+01 -0.91737163667E+02  0.14450676278E+03  0.00000000000E+00 0.  1.
         14    1    6    6    0    0 -0.67584961456E+01  0.87835903365E+01 -0.43300291310E+02  0.44696129104E+02  0.00000000000E+00 0. -1.
         -5    1    3    3    0  503 -0.10156920909E+03  0.21344106422E+02 -0.16994460244E+03  0.19918617676E+03  0.47000000000E+01 0.  1.
         13    1    4    4    0    0  0.76356537088E+01  0.26841277402E+01 -0.69188206218E+01  0.10647902520E+02  0.00000000000E+00 0. -1.
        -14    1    4    4    0    0 -0.15942097275E+03 -0.12471205533E+03 -0.18704259531E+03  0.27559585584E+03  0.00000000000E+00 0.  1.
</event>
<event>
12    1  0.8356052E-002  0.2535493E+03  0.7818608E-02  0.1112989E+00
         21   -1    0    0  501  502  0.00000000000E+00  0.00000000000E+00  0.21793590832E+04  0.21793590832E+04  0.00000000000E+00 0. -1.
         21   -1    0    0  502  503 -0.00000000000E+00 -0.00000000000E+00 -0.33421759363E+02  0.33421759363E+02  0.00000000000E+00 0.  1.
         -6    2    1    2    0  503 -0.12978814847E+03  0.10969697642E+03  0.65429853997E+03  0.70170778067E+03  0.18817236758E+03 0.  0.
        -24    2    3    3    0    0 -0.15500459345E+03  0.40650315179E+02  0.43896206010E+03  0.47412219217E+03  0.80157911586E+02 0.  0.
          6    2    1    2  501    0  0.12978814847E+03 -0.10969697642E+03  0.14916387839E+04  0.15110730619E+04  0.17168909907E+03 0.  0.
         24    2    5    5    0    0  0.10411157108E+03 -0.10025234138E+03  0.71189385508E+03  0.73083416788E+03  0.80224490441E+02 0.  0.
          5    1    5    5  501    0  0.25676577387E+02 -0.94446350393E+01  0.77974492882E+03  0.78023889404E+03  0.47000000000E+01 0. -1.
        -13    1    6    6    0    0  0.10435221243E+03 -0.51916308430E+02  0.52603639554E+03  0.53879400215E+03  0.00000000000E+00 0.  1.
         14    1    6    6    0    0 -0.24064135319E+00 -0.48336032952E+02  0.18585745954E+03  0.19204016574E+03  0.00000000000E+00 0. -1.
         -5    1    3    3    0  503  0.25216444982E+02  0.69046661242E+02  0.21533647987E+03  0.22758558849E+03  0.47000000000E+01 0.  1.
         13    1    4    4    0    0 -0.10111930677E+03  0.59615910199E+01  0.35078205719E+03  0.36511464832E+03  0.00000000000E+00 0. -1.
        -14    1    4    4    0    0 -0.53885286680E+02  0.34688724160E+02  0.88180002908E+02  0.10900754385E+03  0.00000000000E+00 0.  1.
</event>
<event>
12    1  0.8356052E-002  0.2234053E+03  0.7818608E-02  0.1131778E+00
         21   -1    0    0  501  502  0.00000000000E+00  0.00000000000E+00  0.20754932283E+03  0.20754932283E+03  0.00000000000E+00 0.  1.
         21   -1    0    0  502  503 -0.00000000000E+00 -0.00000000000E+00 -0.31905116556E+03  0.31905116556E+03  0.00000000000E+00 0.  1.
         -6    2    1    2    0  503  0.89637533740E+02  0.11105584936E+03  0.77098167840E+02  0.23423106611E+03  0.16897270701E+03 0.  0.
        -24    2    3    3    0    0 -0.11299754670E+02  0.41774330230E+02  0.50177500297E+01  0.92083460724E+02  0.81125870115E+02 0.  0.
          6    2    1    2  501    0 -0.89637533740E+02 -0.11105584936E+03 -0.18860001057E+03  0.29236942229E+03  0.17187677555E+03 0.  0.
         24    2    5    5    0    0 -0.12565534223E+03 -0.11370938054E+03 -0.15698101045E+03  0.24413898662E+03  0.79004549824E+02 0.  0.
          5    1    5    5  501    0  0.36017808492E+02  0.26535311855E+01 -0.31619000115E+02  0.48230435667E+02  0.47000000000E+01 0. -1.
        -13    1    6    6    0    0 -0.12490537236E+03 -0.75668095431E+02 -0.14057967392E+03  0.20270583966E+03  0.00000000000E+00 0.  1.
         14    1    6    6    0    0 -0.74996986865E+00 -0.38041285110E+02 -0.16401336533E+02  0.41433146968E+02  0.00000000000E+00 0. -1.
         -5    1    3    3    0  503  0.10093728841E+03  0.69281519126E+02  0.72080417810E+02  0.14214760538E+03  0.47000000000E+01 0.  1.
         13    1    4    4    0    0 -0.18349907545E+01  0.21497992548E+02 -0.37940625432E+02  0.43646556942E+02  0.00000000000E+00 0. -1.
        -14    1    4    4    0    0 -0.94647639152E+01  0.20276337681E+02  0.42958375462E+02  0.48436903783E+02  0.00000000000E+00 0.  1.
</event>
<event>
12    1  0.8356052E-002  0.2648098E+03  0.7818608E-02  0.1104644E+00
         21   -1    0    0  501  502  0.00000000000E+00  0.00000000000E+00  0.47569984115E+03  0.47569984115E+03  0.00000000000E+00 0. -1.
         21   -1    0    0  502  503 -0.00000000000E+00 -0.00000000000E+00 -0.14895121104E+03  0.14895121104E+03  0.00000000000E+00 0. -1.
         -6    2    1    2    0  503 -0.13843721882E+03  0.14225463493E+03  0.11919254917E+03  0.28819340807E+03  0.17160224930E+03 0.  0.
        -24    2    3    3    0    0 -0.95839954745E+02  0.16622768270E+03  0.11728209814E+03  0.23905102566E+03  0.81076278294E+02 0.  0.
          6    2    1    2  501    0  0.13843721882E+03 -0.14225463493E+03  0.20755608093E+03  0.33645764412E+03  0.17527970458E+03 0.  0.
         24    2    5    5    0    0  0.40701838263E+02 -0.14342816405E+01  0.43384472605E+02  0.99061385735E+02  0.79197530762E+02 0.  0.
          5    1    5    5  501    0  0.97735380557E+02 -0.14082035329E+03  0.16417160833E+03  0.23739625838E+03  0.47000000000E+01 0. -1.
        -11    1    6    6    0    0  0.61859533715E+02  0.13191040531E+02  0.28863680626E+02  0.69524941719E+02  0.00000000000E+00 0.  1.
         12    1    6    6    0    0 -0.21157695452E+02 -0.14625322171E+02  0.14520791979E+02  0.29536444017E+02  0.00000000000E+00 0. -1.
         -5    1    3    3    0  503 -0.42597264075E+02 -0.23973047774E+02  0.19104510285E+01  0.49142382414E+02  0.47000000000E+01 0.  1.
         13    1    4    4    0    0 -0.10863611997E+03  0.16117743530E+03  0.11189122306E+03  0.22427576331E+03  0.00000000000E+00 0. -1.
        -14    1    4    4    0    0  0.12796165224E+02  0.50502474008E+01  0.53908750857E+01  0.14775262347E+02  0.00000000000E+00 0.  1.
</event>
<event>
12    1  0.8356052E-002  0.2117828E+03  0.7818608E-02  0.1140597E+00
         21   -1    0    0  501  502  0.00000000000E+00  0.00000000000E+00  0.14595609507E+04  0.14595609507E+04  0.00000000000E+00 0.  1.
         21   -1    0    0  502  503 -0.00000000000E+00 -0.00000000000E+00 -0.77277924172E+02  0.77277924172E+02  0.00000000000E+00 0.  1.
         -6    2    1    2    0  503 -0.10066817502E+03 -0.64251396411E+02  0.91296286311E+02  0.22859626556E+03  0.17221764524E+03 0.  0.
        -24    2    3    3    0    0 -0.57597493454E+02 -0.38874279812E+02 -0.31697101065E+02  0.95748439098E+02  0.57744060220E+02 0.  0.
          6    2    1    2  501    0  0.10066817502E+03  0.64251396411E+02  0.12909867402E+04  0.13082426093E+04  0.17489893654E+03 0.  0.
         24    2    5    5    0    0  0.27923908489E+02  0.89360087131E+02  0.66599553437E+03  0.67851388037E+03  0.89811270029E+02 0.  0.
          5    1    5    5  501    0  0.72744266529E+02 -0.25108690721E+02  0.62499120584E+03  0.62972872893E+03  0.47000000000E+01 0. -1.
        -11    1    6    6    0    0  0.56933128562E+02  0.39401272816E+02  0.43072916639E+03  0.43625847408E+03  0.00000000000E+00 0.  1.
         12    1    6    6    0    0 -0.29009220073E+02  0.49958814315E+02  0.23526636798E+03  0.24225540629E+03  0.00000000000E+00 0. -1.
         -5    1    3    3    0  503 -0.43070681564E+02 -0.25377116599E+02  0.12299338738E+03  0.13284782646E+03  0.47000000000E+01 0.  1.
         11    1    4    4    0    0  0.35724041661E+01 -0.84063877015E+01  0.11664092937E+02  0.14814873936E+02  0.00000000000E+00 0. -1.
        -12    1    4    4    0    0 -0.61169897620E+02 -0.30467892110E+02 -0.43361194002E+02  0.80933565161E+02  0.00000000000E+00 0.  1.
</event>
<event>
12    1  0.8356052E-002  0.2070812E+03  0.7818608E-02  0.1144030E+00
         21   -1    0    0  503  502  0.00000000000E+00  0.00000000000E+00  0.50626837230E+03  0.50626837230E+03  0.00000000000E+00 0.  1.
         21   -1    0    0  501  503 -0.00000000000E+00 -0.00000000000E+00 -0.33028663115E+03  0.33028663115E+03  0.00000000000E+00 0.  1.
          6    2    1    2  501    0 -0.27294442185E+02 -0.10978676479E+03 -0.27291611190E+03  0.34219492666E+03  0.17267322721E+03 0.  0.
         24    2    3    3    0    0 -0.47139080652E+02 -0.82923981034E+02 -0.81600452529E+02  0.14792915420E+03  0.78268264668E+02 0.  0.
         -6    2    1    2    0  502  0.27294442185E+02  0.10978676479E+03  0.44889785306E+03  0.49436007679E+03  0.17344878999E+03 0.  0.
        -24    2    5    5    0    0  0.47338699076E+02  0.12940898343E+03  0.27206021624E+03  0.31524993332E+03  0.79863144037E+02 0.  0.
          5    1    3    3  501    0  0.19844638467E+02 -0.26862783755E+02 -0.19131565937E+03  0.19426577246E+03  0.47000000000E+01 0. -1.
        -11    1    4    4    0    0  0.37673058805E+01 -0.70786787340E+02 -0.50729764002E+02  0.87169207930E+02  0.00000000000E+00 0.  1.
         12    1    4    4    0    0 -0.50906386532E+02 -0.12137193694E+02 -0.30870688527E+02  0.60759946269E+02  0.00000000000E+00 0. -1.
         -5    1    5    5    0  502 -0.20044256892E+02 -0.19622218639E+02  0.17683763682E+03  0.17911014347E+03  0.47000000000E+01 0.  1.
         11    1    6    6    0    0 -0.18613872081E+02  0.26164833126E+02  0.29959000852E+02  0.43916015967E+02  0.00000000000E+00 0. -1.
        -12    1    6    6    0    0  0.65952571157E+02  0.10324415030E+03  0.24210121539E+03  0.27133391735E+03  0.00000000000E+00 0.  1.
</event>
<event>
12    1  0.8356052E-002  0.1756518E+03  0.7818608E-02  0.1172855E+00
         21   -1    0    0  501  502  0.00000000000E+00  0.00000000000E+00  0.12533847949E+04  0.12533847949E+04  0.00000000000E+00 0. -1.
         21   -1    0    0  502  503 -0.00000000000E+00 -0.00000000000E+00 -0.29580571705E+02  0.29580571705E+02  0.00000000000E+00 0. -1.
         -6    2    1    2    0  503 -0.52033915430E+00  0.17907715826E+02  0.88139218103E+03  0.89812832440E+03  0.17164309850E+03 0.  0.
        -24    2    3    3    0    0 -0.14835546621E+02  0.63640021938E+02  0.73756045483E+03  0.74645095479E+03  0.94464054280E+02 0.  0.
          6    2    1    2  501    0  0.52033915430E+00 -0.17907715826E+02  0.34241204212E+03  0.38483704216E+03  0.17473575877E+03 0.  0.
         24    2    5    5    0    0 -0.40869217002E+02 -0.28052724974E+02  0.32519260404E+03  0.33863514158E+03  0.80413189931E+02 0.  0.
          5    1    5    5  501    0  0.41389556156E+02  0.10145009148E+02  0.17219438078E+02  0.46201900579E+02  0.47000000000E+01 0. -1.
        -11    1    6    6    0    0  0.80472759299E+01 -0.40097885482E+02  0.19023431281E+03  0.19458081314E+03  0.00000000000E+00 0.  1.
         12    1    6    6    0    0 -0.48916492932E+02  0.12045160508E+02  0.13495829123E+03  0.14405432844E+03  0.00000000000E+00 0. -1.
         -5    1    3    3    0  503  0.14315207467E+02 -0.45732306112E+02  0.14383172620E+03  0.15167736960E+03  0.47000000000E+01 0.  1.
         13    1    4    4    0    0 -0.11087878649E+02  0.77688297896E+02  0.71692775696E+03  0.72120997039E+03  0.00000000000E+00 0. -1.
        -14    1    4    4    0    0 -0.37476679727E+01 -0.14048275958E+02  0.20632697867E+02  0.25240984408E+02  0.00000000000E+00 0.  1.
</event>
<event>
12    1  0.8356052E-002  0.1810202E+03  0.7818608E-02  0.1167021E+00
         21   -1    0    0  503  502  0.00000000000E+00  0.00000000000E+00  0.34543396681E+03  0.34543396681E+03  0.00000000000E+00 0. -1.
         21   -1    0    0  501  503 -0.00000000000E+00 -0.00000000000E+00 -0.15109257822E+03  0.15109257822E+03  0.00000000000E+00 0. -1.
          6    2    1    2  501    0 -0.55354435359E+02  0.10227249813E+02 -0.54732264923E+02  0.18911350509E+03  0.17204530459E+03 0.  0.
         24    2    3    3    0    0 -0.74800117111E+02 -0.31805440140E+02 -0.74783158539E+02  0.13842810385E+03  0.83445644539E+02 0.  0.
         -6    2    1    2    0  502  0.55354435359E+02 -0.10227249813E+02  0.24907365351E+03  0.30741303994E+03  0.17116185935E+03 0.  0.
        -24    2    5    5    0    0  0.10042404742E+03 -0.25892342471E+02  0.16287676422E+03  0.20877907630E+03  0.79400627690E+02 0.  0.
          5    1    3    3  501    0  0.19445681752E+02  0.42032689953E+02  0.20050893617E+02  0.50685401235E+02  0.47000000000E+01 0. -1.
        -13    1    4    4    0    0 -0.66850917941E+02 -0.41739487629E+02 -0.18807069671E+02  0.81024292201E+02  0.00000000000E+00 0.  1.
         14    1    4    4    0    0 -0.79491991697E+01  0.99340474893E+01 -0.55976088868E+02  0.57403811650E+02  0.00000000000E+00 0. -1.
         -5    1    5    5    0  502 -0.45069612060E+02  0.15665092658E+02  0.86196889290E+02  0.98633963636E+02  0.47000000000E+01 0.  1.
         13    1    6    6    0    0  0.44611257788E+02 -0.82661235898E+01  0.13784742102E+03  0.14512203349E+03  0.00000000000E+00 0. -1.
        -14    1    6    6    0    0  0.55812789631E+02 -0.17626218881E+02  0.25029343200E+02  0.63657042811E+02  0.00000000000E+00 0.  1.
</event>
<event>
12    1  0.8356052E-002  0.1826048E+03  0.7818608E-02  0.1165375E+00
         21   -1    0    0  501  502  0.00000000000E+00  0.00000000000E+00  0.18447017080E+03  0.18447017080E+03  0.00000000000E+00 0. -1.
         21   -1    0    0  502  503 -0.00000000000E+00 -0.00000000000E+00 -0.19414041794E+03  0.19414041794E+03  0.00000000000E+00 0.  1.
         -6    2    1    2    0  503  0.61636890573E+02 -0.62059233293E+00 -0.55076748065E+02  0.19073008991E+03  0.17188667082E+03 0.  0.
        -24    2    3    3    0    0  0.54254237599E+02  0.62578856005E+02 -0.24433117185E+02  0.11995017787E+03  0.83255224697E+02 0.  0.
          6    2    1    2  501    0 -0.61636890573E+02  0.62059233293E+00  0.45406500927E+02  0.18788049883E+03  0.17157459048E+03 0.  0.
         24    2    5    5    0    0 -0.10368684385E+03 -0.22051109829E+02  0.24904239740E+02  0.13568243983E+03  0.80946218492E+02 0.  0.
          5    1    5    5  501    0  0.42049953278E+02  0.22671702162E+02  0.20502261187E+02  0.52198059001E+02  0.47000000000E+01 0. -1.
        -11    1    6    6    0    0 -0.71074291425E+02  0.25487861127E+02  0.17985148125E+02  0.77618628688E+02  0.00000000000E+00 0.  1.
         12    1    6    6    0    0 -0.32612552426E+02 -0.47538970956E+02  0.69190916149E+01  0.58063811140E+02  0.00000000000E+00 0. -1.
         -5    1    3    3    0  503  0.73826529737E+01 -0.63199448338E+02 -0.30643630880E+02  0.70779912042E+02  0.47000000000E+01 0.  1.
         13    1    4    4    0    0  0.27388123558E+02 -0.16655120504E+02 -0.16101604649E+02  0.35871493185E+02  0.00000000000E+00 0. -1.
        -14    1    4    4    0    0  0.26866114041E+02  0.79233976509E+02 -0.83315125352E+01  0.84078684684E+02  0.00000000000E+00 0.  1.
</event>
<event>
12    1  0.8356052E-002  0.6272600E+03  0.7818608E-02  0.9850587E-01
         21   -1    0    0  503  502  0.00000000000E+00  0.00000000000E+00  0.62081021737E+03  0.62081021737E+03  0.00000000000E+00 0. -1.
         21   -1    0    0  501  503 -0.00000000000E+00 -0.00000000000E+00 -0.63438707615E+03  0.63438707615E+03  0.00000000000E+00 0.  1.
          6    2    1    2  501    0 -0.49805466313E+03  0.33998477289E+03 -0.31391611156E+02  0.62804501336E+03  0.17264707438E+03 0.  0.
         24    2    3    3    0    0 -0.12609273302E+03  0.76736140288E+02  0.18344008823E+02  0.16962245511E+03  0.81531969623E+02 0.  0.
         -6    2    1    2    0  502  0.49805466313E+03 -0.33998477289E+03  0.17814752378E+02  0.62715228015E+03  0.17133161950E+03 0.  0.
        -24    2    5    5    0    0  0.17021296309E+03 -0.10054017108E+03 -0.40790133671E+02  0.21694438129E+03  0.79500004806E+02 0.  0.
          5    1    3    3  501    0 -0.37196193011E+03  0.26324863260E+03 -0.49735619979E+02  0.45842255825E+03  0.47000000000E+01 0. -1.
        -13    1    4    4    0    0 -0.58658923585E+02  0.33757764150E+01 -0.21135540715E+02  0.62441782997E+02  0.00000000000E+00 0.  1.
         14    1    4    4    0    0 -0.67433809431E+02  0.73360363873E+02  0.39479549538E+02  0.10718067211E+03  0.00000000000E+00 0. -1.
         -5    1    5    5    0  502  0.32784170004E+03 -0.23944460182E+03  0.58604886049E+02  0.41020789887E+03  0.47000000000E+01 0.  1.
         11    1    6    6    0    0  0.92556435960E+00 -0.19695866445E+02  0.10662257578E+02  0.22415788210E+02  0.00000000000E+00 0. -1.
        -12    1    6    6    0    0  0.16928739873E+03 -0.80844304630E+02 -0.51452391249E+02  0.19452859308E+03  0.00000000000E+00 0.  1.
</event>
<event>
12    1  0.8356052E-002  0.1757330E+03  0.7818608E-02  0.1172060E+00
         21   -1    0    0  501  502  0.00000000000E+00  0.00000000000E+00  0.22553590988E+03  0.22553590988E+03  0.00000000000E+00 0.  1.
         21   -1    0    0  502  503 -0.00000000000E+00 -0.00000000000E+00 -0.14952105978E+03  0.14952105978E+03  0.00000000000E+00 0.  1.
         -6    2    1    2    0  503 -0.14780166646E+02  0.32715357212E+02  0.92824189057E+02  0.19852184327E+03  0.17177265282E+03 0.  0.
        -24    2    3    3    0    0 -0.42306077195E+02 -0.35278587455E+02  0.72956829941E+02  0.12237951456E+03  0.81361315427E+02 0.  0.
          6    2    1    2  501    0  0.14780166646E+02 -0.32715357212E+02 -0.16809338960E+02  0.17653512639E+03  0.17202717532E+03 0.  0.
         24    2    5    5    0    0  0.10192402753E+02  0.28193479573E+02 -0.57135739025E+02  0.10319180687E+03  0.80531353938E+02 0.  0.
          5    1    5    5  501    0  0.45877638925E+01 -0.60908836785E+02  0.40326400065E+02  0.73343319520E+02  0.47000000000E+01 0. -1.
        -13    1    6    6    0    0 -0.11530768584E+02 -0.18111437360E+02 -0.46118560924E+02  0.50871450236E+02  0.00000000000E+00 0.  1.
         14    1    6    6    0    0  0.21723171338E+02  0.46304916933E+02 -0.11017178101E+02  0.52320356635E+02  0.00000000000E+00 0. -1.
         -5    1    3    3    0  503  0.27525910550E+02  0.67993944667E+02  0.19867359116E+02  0.76142328709E+02  0.47000000000E+01 0.  1.
         13    1    4    4    0    0 -0.33779071140E+02  0.21945570879E+02  0.32899990557E+02  0.52010028907E+02  0.00000000000E+00 0. -1.
        -14    1    4    4    0    0 -0.85270060551E+01 -0.57224158334E+02  0.40056839384E+02  0.70369485651E+02  0.00000000000E+00 0.  1.
</event>
<event>
12    1  0.8356052E-002  0.2889526E+03  0.7818608E-02  0.1092088E+00
         21   -1    0    0  503  502  0.00000000000E+00  0.00000000000E+00  0.10538053759E+04  0.10538053759E+04  0.00000000000E+00 0. -1.
         21   -1    0    0  501  503 -0.00000000000E+00 -0.00000000000E+00 -0.87728224896E+02  0.87728224896E+02  0.00000000000E+00 0.  1.
          6    2    1    2  501    0  0.13711254764E+03  0.17388858868E+03  0.27499293370E+03  0.39247354104E+03  0.17139800127E+03 0.  0.
         24    2    3    3    0    0  0.13007423770E+03  0.18213646134E+03  0.18343178638E+03  0.30015291003E+03  0.79696620292E+02 0.  0.
         -6    2    1    2    0  502 -0.13711254764E+03 -0.17388858868E+03  0.69108421732E+03  0.74906005977E+03  0.18562458275E+03 0.  0.
        -24    2    5    5    0    0 -0.12146872896E+03 -0.92654569134E+02  0.60528160782E+03  0.62977941259E+03  0.83167075609E+02 0.  0.
          5    1    3    3  501    0  0.70383099467E+01 -0.82478726665E+01  0.91561147326E+02  0.92320631010E+02  0.47000000000E+01 0. -1.
        -11    1    4    4    0    0  0.91903986324E+02  0.15493352177E+03  0.17751741781E+03  0.25290941559E+03  0.00000000000E+00 0.  1.
         12    1    4    4    0    0  0.38170251372E+02  0.27202939575E+02  0.59143685640E+01  0.47243494440E+02  0.00000000000E+00 0. -1.
         -5    1    5    5    0  502 -0.15643818680E+02 -0.81234019541E+02  0.85802609501E+02  0.11928064718E+03  0.47000000000E+01 0.  1.
         13    1    6    6    0    0 -0.23572809438E+02 -0.34094086527E+02  0.31780725281E+03  0.32049888303E+03  0.00000000000E+00 0. -1.
        -14    1    6    6    0    0 -0.97895919526E+02 -0.58560482607E+02  0.28747435501E+03  0.30928052957E+03  0.00000000000E+00 0.  1.
</event>
<event>
12    1  0.8356052E-002  0.1742707E+03  0.7818608E-02  0.1173951E+00
         21   -1    0    0  503  502  0.00000000000E+00  0.00000000000E+00  0.75371608604E+02  0.75371608604E+02  0.00000000000E+00 0.  1.
         21   -1    0    0  501  503 -0.00000000000E+00 -0.00000000000E+00 -0.60782802728E+03  0.60782802728E+03  0.00000000000E+00 0.  1.
          6    2    1    2  501    0 -0.17199331585E+02  0.47554032635E+01 -0.46571322852E+03  0.49658522293E+03  0.17143407346E+03 0.  0.
         24    2    3    3    0    0  0.19348525981E+02 -0.22691118396E+02 -0.11653846318E+03  0.14440037914E+03  0.79881185418E+02 0.  0.
         -6    2    1    2    0  502  0.17199331585E+02 -0.47554032635E+01 -0.66743190159E+02  0.18661441296E+03  0.17335470811E+03 0.  0.
        -24    2    5    5    0    0  0.30177430934E+02 -0.54451575665E+02  0.14524529197E+01  0.10111075018E+03  0.79659417222E+02 0.  0.
          5    1    3    3  501    0 -0.36547857566E+02  0.27446521659E+02 -0.34917476534E+03  0.35218484378E+03  0.47000000000E+01 0. -1.
        -11    1    4    4    0    0 -0.16044926087E+02  0.20720483925E+02 -0.56554364175E+02  0.62331165675E+02  0.00000000000E+00 0.  1.
         12    1    4    4    0    0  0.35393452068E+02 -0.43411602321E+02 -0.59984099008E+02  0.82069213467E+02  0.00000000000E+00 0. -1.
         -5    1    5    5    0  502 -0.12978099349E+02  0.49696172401E+02 -0.68195643079E+02  0.85503662781E+02  0.47000000000E+01 0.  1.
         11    1    6    6    0    0  0.77401592808E+01  0.18490999224E+02 -0.12367837282E+02  0.23553991531E+02  0.00000000000E+00 0. -1.
        -12    1    6    6    0    0  0.22437271653E+02 -0.72942574889E+02  0.13820290202E+02  0.77556758648E+02  0.00000000000E+00 0.  1.
</event>
<event>
12    1  0.8356052E-002  0.2050540E+03  0.7818608E-02  0.1145632E+00
         21   -1    0    0  501  502  0.00000000000E+00  0.00000000000E+00  0.30914946788E+04  0.30914946788E+04  0.00000000000E+00 0.  1.
         21   -1    0    0  502  503 -0.00000000000E+00 -0.00000000000E+00 -0.22830524059E+02  0.22830524059E+02  0.00000000000E+00 0.  1.
         -6    2    1    2    0  503  0.15684305365E+02  0.10970146960E+03  0.54368242795E+03  0.58106602498E+03  0.17253038301E+03 0.  0.
        -24    2    3    3    0    0 -0.62714306148E+01  0.13290877180E+02  0.11738380778E+03  0.14342500745E+03  0.81091282971E+02 0.  0.
          6    2    1    2  501    0 -0.15684305365E+02 -0.10970146960E+03  0.25249817268E+04  0.25332591779E+04  0.17201433601E+03 0.  0.
         24    2    5    5    0    0  0.22745895783E+02 -0.49434404204E+02  0.56220058488E+03  0.56917137420E+03  0.70181332758E+02 0.  0.
          5    1    5    5  501    0 -0.38430201148E+02 -0.60267065394E+02  0.19627811419E+04  0.19640878037E+04  0.47000000000E+01 0. -1.
        -13    1    6    6    0    0 -0.64403046678E+01 -0.57719040893E+02  0.34321205699E+03  0.34809119677E+03  0.00000000000E+00 0.  1.
         14    1    6    6    0    0  0.29186200451E+02  0.82846366892E+01  0.21898852789E+03  0.22108017742E+03  0.00000000000E+00 0. -1.
         -5    1    3    3    0  503  0.21955735979E+02  0.96410592418E+02  0.42629862017E+03  0.43764101753E+03  0.47000000000E+01 0.  1.
         11    1    4    4    0    0 -0.73400811853E+01 -0.91476650010E+01  0.12021281436E+03  0.12078359699E+03  0.00000000000E+00 0. -1.
        -12    1    4    4    0    0  0.10686505706E+01  0.22438542181E+02 -0.28290065742E+01  0.22641410456E+02  0.00000000000E+00 0.  1.
</event>
<event>
12    1  0.8356052E-002  0.1802732E+03  0.7818608E-02  0.1169077E+00
         21   -1    0    0  503  502  0.00000000000E+00  0.00000000000E+00  0.13678374434E+03  0.13678374434E+03  0.00000000000E+00 0. -1.
         21   -1    0    0  501  503 -0.00000000000E+00 -0.00000000000E+00 -0.27729984855E+03  0.27729984855E+03  0.00000000000E+00 0. -1.
          6    2    1    2  501    0  0.26215596443E+02  0.89581224509E+01 -0.15730349057E+03  0.23925472342E+03  0.17813177448E+03 0.  0.
         24    2    3    3    0    0 -0.13382168992E+02  0.66048789525E+02 -0.12280330986E+03  0.16153934680E+03  0.80453605304E+02 0.  0.
         -6    2    1    2    0  502 -0.26215596443E+02 -0.89581224509E+01  0.16787386360E+02  0.17482886947E+03  0.17180166415E+03 0.  0.
        -24    2    5    5    0    0 -0.23582624511E+02  0.32340816082E+02  0.65565242073E+02  0.11068914641E+03  0.79694526802E+02 0.  0.
          5    1    3    3  501    0  0.39597765436E+02 -0.57090667074E+02 -0.34500180709E+02  0.77715376621E+02  0.47000000000E+01 0. -1.
        -13    1    4    4    0    0 -0.73398781692E+01 -0.11461538706E+02 -0.60207091872E+02  0.61726287696E+02  0.00000000000E+00 0.  1.
         14    1    4    4    0    0 -0.60422908232E+01  0.77510328231E+02 -0.62596217991E+02  0.99813059104E+02  0.00000000000E+00 0. -1.
         -5    1    5    5    0  502 -0.26329719327E+01 -0.41298938533E+02 -0.48777855714E+02  0.64139723052E+02  0.47000000000E+01 0.  1.
         13    1    6    6    0    0 -0.43188543204E+02  0.24147142148E+02  0.90371747375E+01  0.50299157699E+02  0.00000000000E+00 0. -1.
        -14    1    6    6    0    0  0.19605918693E+02  0.81936739343E+01  0.56528067336E+02  0.60389988716E+02  0.00000000000E+00 0.  1.
</event>
<event>
12    1  0.8356052E-002  0.1755388E+03  0.7818608E-02  0.1172339E+00
         21   -1    0    0  503  502  0.00000000000E+00  0.00000000000E+00  0.10828638457E+03  0.10828638457E+03  0.00000000000E+00 0. -1.
         21   -1    0    0  501  503 -0.00000000000E+00 -0.00000000000E+00 -0.50073513846E+03  0.50073513846E+03  0.00000000000E+00 0. -1.
          6    2    1    2  501    0 -0.33345641447E+02  0.45993524735E+01 -0.39692818731E+03  0.43401135342E+03  0.17228111670E+03 0.  0.
         24    2    3    3    0    0 -0.83708611623E+02  0.17053862787E+02 -0.21746781390E+03  0.24714332722E+03  0.80558104561E+02 0.  0.
         -6    2    1    2    0  502  0.33345641447E+02 -0.45993524735E+01  0.44794334248E+01  0.17501016961E+03  0.17168403623E+03 0.  0.
        -24    2    5    5    0    0 -0.56340092640E+01  0.39348866170E+02 -0.44168375910E+02  0.98593165977E+02  0.78674593215E+02 0.  0.
          5    1    3    3  501    0  0.50362970176E+02 -0.12454510314E+02 -0.17946037341E+03  0.18686802620E+03  0.47000000000E+01 0. -1.
        -13    1    4    4    0    0 -0.45265506285E+01 -0.22874946163E+02 -0.20167595170E+02  0.30829932168E+02  0.00000000000E+00 0.  1.
         14    1    4    4    0    0 -0.79182060995E+02  0.39928808950E+02 -0.19730021873E+03  0.21631339505E+03  0.00000000000E+00 0. -1.
         -5    1    5    5    0  502  0.38979650711E+02 -0.43948218644E+02  0.48647809335E+02  0.76417003635E+02  0.47000000000E+01 0.  1.
         13    1    6    6    0    0 -0.25261879188E+02  0.10705780249E+02  0.14035797662E+02  0.30818499101E+02  0.00000000000E+00 0. -1.
        -14    1    6    6    0    0  0.19627869924E+02  0.28643085921E+02 -0.58204173572E+02  0.67774666875E+02  0.00000000000E+00 0.  1.
</event>
<event>
12    1  0.8356052E-002  0.2986040E+03  0.7818608E-02  0.1086349E+00
         21   -1    0    0  501  502  0.00000000000E+00  0.00000000000E+00  0.77749289362E+03  0.77749289362E+03  0.00000000000E+00 0.  1.
         21   -1    0    0  502  503 -0.00000000000E+00 -0.00000000000E+00 -0.27639687044E+03  0.27639687044E+03  0.00000000000E+00 0.  1.
         -6    2    1    2    0  503 -0.40049880660E+02 -0.24089726398E+03 -0.15460913421E+03  0.33339438231E+03  0.16616962731E+03 0.  0.
        -24    2    3    3    0    0  0.39082232348E+02 -0.11691639060E+03 -0.63686176256E+02  0.16041397140E+03  0.80497514864E+02 0.  0.
          6    2    1    2  501    0  0.40049880660E+02  0.24089726398E+03  0.65570515740E+03  0.72049538175E+03  0.17183962569E+03 0.  0.
         24    2    5    5    0    0  0.32536962934E+02  0.84278730533E+02  0.15797959097E+03  0.19863463555E+03  0.79602819671E+02 0.  0.
          5    1    5    5  501    0  0.75129177257E+01  0.15661853345E+03  0.49772556643E+03  0.52186074621E+03  0.47000000000E+01 0. -1.
        -11    1    6    6    0    0  0.12137925343E+02  0.58029157396E+02  0.15416650716E+03  0.16517271043E+03  0.00000000000E+00 0.  1.
         12    1    6    6    0    0  0.20399037592E+02  0.26249573136E+02  0.38130838043E+01  0.33461925118E+02  0.00000000000E+00 0. -1.
         -5    1    3    3    0  503 -0.79132113008E+02 -0.12398087338E+03 -0.90922957955E+02  0.17298041090E+03  0.47000000000E+01 0.  1.
         11    1    4    4    0    0  0.61448718199E+01 -0.17406799257E+02  0.19310881057E+02  0.26714532324E+02  0.00000000000E+00 0. -1.
        -12    1    4    4    0    0  0.32937360528E+02 -0.99509591343E+02 -0.82997057314E+02  0.13369943908E+03  0.00000000000E+00 0.  1.
</event>
<event>
12    1  0.8356052E-002  0.1925704E+03  0.7818608E-02  0.1158564E+00
         21   -1    0    0  501  502  0.00000000000E+00  0.00000000000E+00  0.52704936357E+03  0.52704936357E+03  0.00000000000E+00 0. -1.
         21   -1    0    0  502  503 -0.00000000000E+00 -0.00000000000E+00 -0.16166644911E+03  0.16166644911E+03  0.00000000000E+00 0.  1.
         -6    2    1    2    0  503 -0.74222215495E+02 -0.37755378242E+02 -0.83485350858E+02  0.20028355160E+03  0.16189283917E+03 0.  0.
        -24    2    3    3    0    0  0.12173264084E+02  0.11671765841E+02 -0.51624743146E+02  0.95668018399E+02  0.78758092684E+02 0.  0.
          6    2    1    2  501    0  0.74222215495E+02  0.37755378242E+02  0.44886826532E+03  0.48843226108E+03  0.17363452479E+03 0.  0.
         24    2    5    5    0    0 -0.11831609100E+01  0.66919445863E+02  0.17374572680E+03  0.20163788381E+03  0.77399266822E+02 0.  0.
          5    1    5    5  501    0  0.75405376405E+02 -0.29164067621E+02  0.27512253852E+03  0.28679437727E+03  0.47000000000E+01 0. -1.
        -11    1    6    6    0    0 -0.32302670125E+02  0.39430849218E+02  0.13705870276E+03  0.14623044269E+03  0.00000000000E+00 0.  1.
         12    1    6    6    0    0  0.31119509215E+02  0.27488596644E+02  0.36687024039E+02  0.55407441125E+02  0.00000000000E+00 0. -1.
         -5    1    3    3    0  503 -0.86395479578E+02 -0.49427144083E+02 -0.31860607712E+02  0.10461553320E+03  0.47000000000E+01 0.  1.
         11    1    4    4    0    0  0.16130881733E+02  0.96825749215E+01  0.17919989218E+02  0.25982371258E+02  0.00000000000E+00 0. -1.
        -12    1    4    4    0    0 -0.39576176491E+01  0.19891909198E+01 -0.69544732364E+02  0.69685647142E+02  0.00000000000E+00 0.  1.
</event>
<event>
12    1  0.8356052E-002  0.1769532E+03  0.7818608E-02  0.1171044E+00
         21   -1    0    0  503  502  0.00000000000E+00  0.00000000000E+00  0.18097355505E+03  0.18097355505E+03  0.00000000000E+00 0.  1.
         21   -1    0    0  501  503 -0.00000000000E+00 -0.00000000000E+00 -0.58508631472E+03  0.58508631472E+03  0.00000000000E+00 0.  1.
          6    2    1    2  501    0  0.40586460653E+02  0.19362722807E+02 -0.52407313780E+03  0.55314112687E+03  0.17114402313E+03 0.  0.
         24    2    3    3    0    0  0.80019076557E+02  0.13741260828E+02 -0.47996709172E+03  0.49352598339E+03  0.81287220917E+02 0.  0.
         -6    2    1    2    0  502 -0.40586460653E+02 -0.19362722807E+02  0.11996037813E+03  0.21291874290E+03  0.17006387898E+03 0.  0.
        -24    2    5    5    0    0 -0.24211389227E+02  0.49752117020E+02  0.98268414639E+02  0.13850345328E+03  0.80405601417E+02 0.  0.
          5    1    3    3  501    0 -0.39432615904E+02  0.56214619786E+01 -0.44106046082E+02  0.59615143486E+02  0.47000000000E+01 0. -1.
        -11    1    4    4    0    0  0.26759991889E+02 -0.23318745904E+02 -0.30239305175E+03  0.30446907695E+03  0.00000000000E+00 0.  1.
         12    1    4    4    0    0  0.53259084668E+02  0.37060006732E+02 -0.17757403997E+03  0.18905690643E+03  0.00000000000E+00 0. -1.
         -5    1    5    5    0  502 -0.16375071427E+02 -0.69114839827E+02  0.21691963488E+02  0.74415289615E+02  0.47000000000E+01 0.  1.
         11    1    6    6    0    0 -0.42110979328E+02  0.40993674480E+02  0.27318764726E+02  0.64808416378E+02  0.00000000000E+00 0. -1.
        -12    1    6    6    0    0  0.17899590101E+02  0.87584425400E+01  0.70949649912E+02  0.73695036904E+02  0.00000000000E+00 0.  1.
</event>
<event>
12    1  0.8356052E-002  0.2562256E+03  0.7818608E-02  0.1110594E+00
         21   -1    0    0  503  502  0.00000000000E+00  0.00000000000E+00  0.42379840424E+03  0.42379840424E+03  0.00000000000E+00 0. -1.
         21   -1    0    0  501  503 -0.00000000000E+00 -0.00000000000E+00 -0.17462513609E+03  0.17462513609E+03  0.00000000000E+00 0. -1.
          6    2    1    2  501    0  0.16019879622E+03 -0.81388344681E+02  0.11635124170E+02  0.24902984682E+03  0.17202549675E+03 0.  0.
         24    2    3    3    0    0  0.79079136094E+02 -0.11307223202E+03 -0.98324149700E+01  0.15921218033E+03  0.78822601843E+02 0.  0.
         -6    2    1    2    0  502 -0.16019879622E+03  0.81388344681E+02  0.23753814399E+03  0.34939369351E+03  0.18265778454E+03 0.  0.
        -24    2    5    5    0    0 -0.19207232465E+03  0.71584332132E+02  0.18434545153E+03  0.28643662077E+03  0.77759872149E+02 0.  0.
          5    1    3    3  501    0  0.81119660128E+02  0.31683887343E+02  0.21467539140E+02  0.89817666487E+02  0.47000000000E+01 0. -1.
        -11    1    4    4    0    0 -0.13158244365E+02 -0.54827491417E+01 -0.10145353090E+02  0.17496517431E+02  0.00000000000E+00 0.  1.
         12    1    4    4    0    0  0.92237380458E+02 -0.10758948288E+03  0.31293811975E+00  0.14171566290E+03  0.00000000000E+00 0. -1.
         -5    1    5    5    0  502  0.31873528429E+02  0.98040125495E+01  0.53192692462E+02  0.62957072740E+02  0.47000000000E+01 0.  1.
         11    1    6    6    0    0 -0.16324823951E+03  0.26028975106E+02  0.13764711826E+03  0.21511444492E+03  0.00000000000E+00 0. -1.
        -12    1    6    6    0    0 -0.28824085137E+02  0.45555357026E+02  0.46698333264E+02  0.71322175846E+02  0.00000000000E+00 0.  1.
</event>
<event>
12    1  0.8356052E-002  0.2433114E+03  0.7818608E-02  0.1117842E+00
         21   -1    0    0  503  502  0.00000000000E+00  0.00000000000E+00  0.12532338974E+03  0.12532338974E+03  0.00000000000E+00 0.  1.
         21   -1    0    0  501  503 -0.00000000000E+00 -0.00000000000E+00 -0.47402015202E+03  0.47402015202E+03  0.00000000000E+00 0. -1.
          6    2    1    2  501    0 -0.16845415382E+03  0.31491478412E+02 -0.14592772795E+03  0.28371698211E+03  0.17271916223E+03 0.  0.
         24    2    3    3    0    0 -0.11850507607E+03  0.26030921853E+02 -0.17322456311E+03  0.22634159317E+03  0.80639355080E+02 0.  0.
         -6    2    1    2    0  502  0.16845415382E+03 -0.31491478412E+02 -0.20276903433E+03  0.31562655964E+03  0.17069366923E+03 0.  0.
        -24    2    5    5    0    0  0.17251462761E+03 -0.24504097665E+02 -0.10723825613E+03  0.21963942237E+03  0.79872928719E+02 0.  0.
          5    1    3    3  501    0 -0.49949077752E+02  0.54605565591E+01  0.27296835160E+02  0.57375388939E+02  0.47000000000E+01 0. -1.
        -11    1    4    4    0    0 -0.94150550655E+01 -0.68012802964E+01  0.66808230346E+01  0.13399032502E+02  0.00000000000E+00 0.  1.
         12    1    4    4    0    0 -0.10909002101E+03  0.32832202149E+02 -0.17990538614E+03  0.21294256067E+03  0.00000000000E+00 0. -1.
         -5    1    5    5    0  502 -0.40604737852E+01 -0.69873807467E+01 -0.95530778205E+02  0.95987137271E+02  0.47000000000E+01 0.  1.
         13    1    6    6    0    0  0.16043404826E+03 -0.34708035849E+02 -0.11652548662E+03  0.20130057284E+03  0.00000000000E+00 0. -1.
        -14    1    6    6    0    0  0.12080579348E+02  0.10203938184E+02  0.92872304966E+01  0.18338849531E+02  0.00000000000E+00 0.  1.
</event>
<event>
12    1  0.8356052E-002  0.1963640E+03  0.7818608E-02  0.1153101E+00
         21   -1    0    0  503  502  0.00000000000E+00  0.00000000000E+00  0.61311653578E+02  0.61311653578E+02  0.00000000000E+00 0. -1.
         21   -1    0    0  501  503 -0.00000000000E+00 -0.00000000000E+00 -0.13642156081E+04  0.13642156081E+04  0.00000000000E+00 0.  1.
          6    2    1    2  501    0  0.95051055824E+02 -0.12443226771E+01 -0.11769965185E+04  0.11932642787E+04  0.17182136835E+03 0.  0.
         24    2    3    3    0    0  0.10710330855E+03 -0.23286177021E+02 -0.11423212659E+04  0.11501880290E+04  0.77596796897E+02 0.  0.
         -6    2    1    2    0  502 -0.95051055824E+02  0.12443226771E+01 -0.12590743603E+03  0.23226298302E+03  0.17046160648E+03 0.  0.
        -24    2    5    5    0    0 -0.10942892936E+03 -0.17062202530E+02 -0.38622318984E+02  0.14180507143E+03  0.79694324915E+02 0.  0.
          5    1    3    3  501    0 -0.12052252727E+02  0.22041854344E+02 -0.34675252628E+02  0.43076249646E+02  0.47000000000E+01 0. -1.
        -13    1    4    4    0    0  0.50340556647E+02 -0.45005501369E+02 -0.76823369258E+03  0.77119561280E+03  0.00000000000E+00 0.  1.
         14    1    4    4    0    0  0.56762751904E+02  0.21719324347E+02 -0.37408757329E+03  0.37899241621E+03  0.00000000000E+00 0. -1.
         -5    1    5    5    0  502  0.14377873533E+02  0.18306525207E+02 -0.87285117043E+02  0.90457911593E+02  0.47000000000E+01 0.  1.
         11    1    6    6    0    0 -0.36518325822E+02 -0.28671490561E+02  0.16920472528E+02  0.49416038717E+02  0.00000000000E+00 0. -1.
        -12    1    6    6    0    0 -0.72910603534E+02  0.11609288031E+02 -0.55542791513E+02  0.92389032711E+02  0.00000000000E+00 0.  1.
</event>
<event>
12    1  0.8356052E-002  0.2055674E+03  0.7818608E-02  0.1146705E+00
         21   -1    0    0  503  502  0.00000000000E+00  0.00000000000E+00  0.28542481044E+03  0.28542481044E+03  0.00000000000E+00 0. -1.
         21   -1    0    0  501  503 -0.00000000000E+00 -0.00000000000E+00 -0.14746267583E+03  0.14746267583E+03  0.00000000000E+00 0. -1.
          6    2    1    2  501    0 -0.57829649081E+02  0.94376149553E+02  0.28519638794E+02  0.20000204028E+03  0.16412288201E+03 0.  0.
         24    2    3    3    0    0 -0.70789535923E+02  0.14014219075E+02  0.41374195254E+02  0.11745915349E+03  0.82929319144E+02 0.  0.
         -6    2    1    2    0  502  0.57829649081E+02 -0.94376149553E+02  0.10944249582E+03  0.23288544599E+03  0.17322483987E+03 0.  0.
        -24    2    5    5    0    0  0.56485529995E+02 -0.89868620370E+01  0.36793028958E+01  0.96866770598E+02  0.78091325947E+02 0.  0.
          5    1    3    3  501    0  0.12959886841E+02  0.80361930478E+02 -0.12854556460E+02  0.82542886785E+02  0.47000000000E+01 0. -1.
        -11    1    4    4    0    0 -0.26777142480E+02 -0.60466720726E+01 -0.23776337502E+02  0.36316550326E+02  0.00000000000E+00 0.  1.
         12    1    4    4    0    0 -0.44012393443E+02  0.20060891147E+02  0.65150532756E+02  0.81142603166E+02  0.00000000000E+00 0. -1.
         -5    1    5    5    0  502  0.13441190861E+01 -0.85389287516E+02  0.10576319293E+03  0.13601867540E+03  0.47000000000E+01 0.  1.
         13    1    6    6    0    0 -0.12041261018E-01 -0.24057456928E+02  0.24936631338E+02  0.34649631474E+02  0.00000000000E+00 0. -1.
        -14    1    6    6    0    0  0.56497571256E+02  0.15070594891E+02 -0.21257328442E+02  0.62217139123E+02  0.00000000000E+00 0.  1.
</event>
<event>
12    1  0.8356052E-002  0.1949093E+03  0.7818608E-02  0.1154314E+00
         21   -1    0    0  501  502  0.00000000000E+00  0.00000000000E+00  0.46578091549E+03  0.46578091549E+03  0.00000000000E+00 0.  1.
         21   -1    0    0  502  503 -0.00000000000E+00 -0.00000000000E+00 -0.81786038497E+02  0.81786038497E+02  0.00000000000E+00 0.  1.
         -6    2    1    2    0  503 -0.89131152087E+02 -0.34664780043E+01  0.16765005076E+03  0.25637161259E+03  0.17223090745E+03 0.  0.
        -24    2    3    3    0    0 -0.55350039416E+02  0.61968412306E+02  0.12065073737E+03  0.16888496274E+03  0.84034631104E+02 0.  0.
          6    2    1    2  501    0  0.89131152087E+02  0.34664780043E+01  0.21634482623E+03  0.29119534139E+03  0.17330107983E+03 0.  0.
         24    2    5    5    0    0  0.31586796859E+02 -0.22313314602E+01  0.21569555353E+03  0.23317526378E+03  0.82725009803E+02 0.  0.
          5    1    5    5  501    0  0.57544355228E+02  0.56978094645E+01  0.64927269459E+00  0.58020077614E+02  0.47000000000E+01 0. -1.
        -11    1    6    6    0    0  0.51655204171E+02 -0.22198487498E+02  0.17333953429E+03  0.18222959999E+03  0.00000000000E+00 0.  1.
         12    1    6    6    0    0 -0.20068407313E+02  0.19967156038E+02  0.42356019248E+02  0.50945663789E+02  0.00000000000E+00 0. -1.
         -5    1    3    3    0  503 -0.33781112671E+02 -0.65434890311E+02  0.46999313391E+02  0.87486649853E+02  0.47000000000E+01 0.  1.
         13    1    4    4    0    0 -0.63861892777E+02  0.10480608750E+02  0.78943843031E+02  0.10207994348E+03  0.00000000000E+00 0. -1.
        -14    1    4    4    0    0  0.85118533610E+01  0.51487803556E+02  0.41706894336E+02  0.66805019257E+02  0.00000000000E+00 0.  1.
</event>
<event>
12    1  0.8356052E-002  0.2331664E+03  0.7818608E-02  0.1126278E+00
         21   -1    0    0  503  502  0.00000000000E+00  0.00000000000E+00  0.24852230175E+03  0.24852230175E+03  0.00000000000E+00 0.  1.
         21   -1    0    0  501  503 -0.00000000000E+00 -0.00000000000E+00 -0.21271839602E+03  0.21271839602E+03  0.00000000000E+00 0.  1.
          6    2    1    2  501    0 -0.90953300727E+02  0.12745966022E+03  0.48442436827E+02  0.23814540306E+03  0.17276601348E+03 0.  0.
         24    2    3    3    0    0 -0.27830263084E+02  0.56259309205E+02 -0.39179169478E+02  0.10870953570E+03  0.79643721761E+02 0.  0.
         -6    2    1    2    0  502  0.90953300727E+02 -0.12745966022E+03 -0.12638531095E+02  0.22309529471E+03  0.15840868081E+03 0.  0.
        -24    2    5    5    0    0  0.11701594055E+03 -0.75895731805E+02  0.36710407388E+01  0.16287742326E+03  0.84039788316E+02 0.  0.
          5    1    3    3  501    0 -0.63123037643E+02  0.71200351018E+02  0.87621606305E+02  0.12943586735E+03  0.47000000000E+01 0. -1.
        -11    1    4    4    0    0 -0.16839477562E+02  0.58531363107E+02  0.68890301980E+01  0.61293941045E+02  0.00000000000E+00 0.  1.
         12    1    4    4    0    0 -0.10990785522E+02 -0.22720539013E+01 -0.46068199676E+02  0.47415594657E+02  0.00000000000E+00 0. -1.
         -5    1    5    5    0  502 -0.26062639821E+02 -0.51563928418E+02 -0.16309571833E+02  0.60217871448E+02  0.47000000000E+01 0.  1.
         11    1    6    6    0    0 -0.44903613500E+01  0.56458582959E+01  0.14449173866E+02  0.16149850971E+02  0.00000000000E+00 0. -1.
        -12    1    6    6    0    0  0.12150630190E+03 -0.81541590101E+02 -0.10778133128E+02  0.14672757229E+03  0.00000000000E+00 0.  1.
</event>
<event>
12    1  0.8356052E-002  0.2522359E+03  0.7818608E-02  0.1112261E+00
         21   -1    0    0  503  502  0.00000000000E+00  0.00000000000E+00  0.23102295582E+03  0.23102295582E+03  0.00000000000E+00 0. -1.
         21   -1    0    0  501  503 -0.00000000000E+00 -0.00000000000E+00 -0.40316869446E+03  0.40316869446E+03  0.00000000000E+00 0.  1.
          6    2    1    2  501    0 -0.15461932969E+03 -0.10144251051E+03  0.94446394986E+02  0.26718439763E+03  0.16813584019E+03 0.  0.
         24    2    3    3    0    0 -0.12011996595E+03 -0.10780690984E+03  0.15429403909E+02  0.18060214450E+03  0.79548300191E+02 0.  0.
         -6    2    1    2    0  502  0.15461932969E+03  0.10144251051E+03 -0.26659213362E+03  0.36700725266E+03  0.17153786095E+03 0.  0.
        -24    2    5    5    0    0  0.15735294631E+03  0.35554777004E+02 -0.15574389968E+03  0.23794104076E+03  0.79597014443E+02 0.  0.
          5    1    3    3  501    0 -0.34499363749E+02  0.63643993359E+01  0.79016991077E+02  0.86582253128E+02  0.47000000000E+01 0. -1.
        -11    1    4    4    0    0 -0.14037354332E+02 -0.13217963939E+02 -0.26174385183E+02  0.32509388291E+02  0.00000000000E+00 0.  1.
         12    1    4    4    0    0 -0.10608261161E+03 -0.94588945903E+02  0.41603789092E+02  0.14809275621E+03  0.00000000000E+00 0. -1.
         -5    1    5    5    0  502 -0.27336166169E+01  0.65887733502E+02 -0.11084823394E+03  0.12906621189E+03  0.47000000000E+01 0.  1.
         13    1    6    6    0    0  0.51745981203E+02  0.37431787810E+02 -0.22064816389E+02  0.67569530349E+02  0.00000000000E+00 0. -1.
        -14    1    6    6    0    0  0.10560696511E+03 -0.18770108057E+01 -0.13367908330E+03  0.17037151041E+03  0.00000000000E+00 0.  1.
</event>
<event>
12    1  0.8356052E-002  0.1777170E+03  0.7818608E-02  0.1170167E+00
         21   -1    0    0  503  502  0.00000000000E+00  0.00000000000E+00  0.75604494778E+02  0.75604494778E+02  0.00000000000E+00 0.  1.
         21   -1    0    0  501  503 -0.00000000000E+00 -0.00000000000E+00 -0.43607601749E+03  0.43607601749E+03  0.00000000000E+00 0.  1.
          6    2    1    2  501    0  0.41303550885E+02  0.71332803982E+01 -0.23424665665E+03  0.29369872044E+03  0.17213533987E+03 0.  0.
         24    2    3    3    0    0 -0.31124267829E+02 -0.13796389424E+01 -0.59008427723E+02  0.10383354302E+03  0.79553671588E+02 0.  0.
         -6    2    1    2    0  502 -0.41303550885E+02 -0.71332803982E+01 -0.12622486606E+03  0.21798179182E+03  0.17270343873E+03 0.  0.
        -24    2    5    5    0    0 -0.86140901772E+02  0.27971209700E+02 -0.91215076478E+02  0.15097068359E+03  0.79178997197E+02 0.  0.
          5    1    3    3  501    0  0.72427818713E+02  0.85129193406E+01 -0.17523822893E+03  0.18986517742E+03  0.47000000000E+01 0. -1.
        -13    1    4    4    0    0 -0.25422401470E+02  0.37240775975E+02 -0.22539198138E+02  0.50410210716E+02  0.00000000000E+00 0.  1.
         14    1    4    4    0    0 -0.57018663588E+01 -0.38620414918E+02 -0.36469229584E+02  0.53423332308E+02  0.00000000000E+00 0. -1.
         -5    1    5    5    0  502  0.44837350888E+02 -0.35104490098E+02 -0.35009789585E+02  0.67011108232E+02  0.47000000000E+01 0.  1.
         13    1    6    6    0    0 -0.38955734136E+02 -0.23246375854E+02 -0.15116068330E+02  0.47816720236E+02  0.00000000000E+00 0. -1.
        -14    1    6    6    0    0 -0.47185167637E+02  0.51217585554E+02 -0.76099008148E+02  0.10315396336E+03  0.00000000000E+00 0.  1.
</event>
<event>
12    1  0.8356052E-002  0.1806341E+03  0.7818608E-02  0.1167519E+00
         21   -1    0    0  503  502  0.00000000000E+00  0.00000000000E+00  0.16419930094E+03  0.16419930094E+03  0.00000000000E+00 0. -1.
         21   -1    0    0  501  503 -0.00000000000E+00 -0.00000000000E+00 -0.82667014685E+03  0.82667014685E+03  0.00000000000E+00 0. -1.
          6    2    1    2  501    0  0.35258625255E+02 -0.36849034832E+02 -0.76384771542E+03  0.78491527997E+03  0.17328485902E+03 0.  0.
         24    2    3    3    0    0  0.36773522260E+02  0.42275559642E+02 -0.32246779638E+03  0.33647206250E+03  0.78028547742E+02 0.  0.
         -6    2    1    2    0  502 -0.35258625255E+02  0.36849034832E+02  0.10137686951E+03  0.20595416781E+03  0.17186863456E+03 0.  0.
        -24    2    5    5    0    0 -0.10143421369E+02  0.20419481258E+02  0.13633364530E+03  0.15964250761E+03  0.79868787278E+02 0.  0.
          5    1    3    3  501    0 -0.15148970043E+01 -0.79124594474E+02 -0.44137991904E+03  0.44844321747E+03  0.47000000000E+01 0. -1.
        -13    1    4    4    0    0 -0.26456864094E+01 -0.30197909224E+01  0.33120890669E+01  0.52046832544E+01  0.00000000000E+00 0.  1.
         14    1    4    4    0    0  0.39419208669E+02  0.45295350564E+02 -0.32577988544E+03  0.33126737925E+03  0.00000000000E+00 0. -1.
         -5    1    5    5    0  502 -0.25115203887E+02  0.16429553574E+02 -0.34956775797E+02  0.46311660206E+02  0.47000000000E+01 0.  1.
         13    1    6    6    0    0  0.29210311503E+02 -0.12243218353E+02  0.46285891011E+02  0.56084956989E+02  0.00000000000E+00 0. -1.
        -14    1    6    6    0    0 -0.39353732872E+02  0.32662699611E+02  0.90047754292E+02  0.10355755062E+03  0.00000000000E+00 0.  1.
</event>
<event>
12    1  0.8356052E-002  0.1960290E+03  0.7818608E-02  0.1153330E+00
         21   -1    0    0  503  502  0.00000000000E+00  0.00000000000E+00  0.63632154207E+02  0.63632154207E+02  0.00000000000E+00 0. -1.
         21   -1    0    0  501  503 -0.00000000000E+00 -0.00000000000E+00 -0.86167865070E+03  0.86167865070E+03  0.00000000000E+00 0. -1.
          6    2    1    2  501    0 -0.17075352298E+02  0.94491643676E+02 -0.65279542215E+03  0.68133286427E+03  0.16985985508E+03 0.  0.
         24    2    3    3    0    0 -0.67911270013E+02  0.22245299714E+02 -0.34947152845E+03  0.36537195017E+03  0.79117120914E+02 0.  0.
         -6    2    1    2    0  502  0.17075352298E+02 -0.94491643676E+02 -0.14525107434E+03  0.24397794064E+03  0.17090091439E+03 0.  0.
        -24    2    5    5    0    0 -0.54157216240E+02 -0.72652833946E+02 -0.56185666720E+02  0.12776370199E+03  0.70393863718E+02 0.  0.
          5    1    3    3  501    0  0.50835917715E+02  0.72246343963E+02 -0.30332389370E+03  0.31596091409E+03  0.47000000000E+01 0. -1.
        -13    1    4    4    0    0  0.13976470500E+02  0.54255137059E+01 -0.17536219905E+02  0.23071561177E+02  0.00000000000E+00 0.  1.
         14    1    4    4    0    0 -0.81887740513E+02  0.16819786008E+02 -0.33193530855E+03  0.34230038900E+03  0.00000000000E+00 0. -1.
         -5    1    5    5    0  502  0.71232568538E+02 -0.21838809730E+02 -0.89065407622E+02  0.11621423865E+03  0.47000000000E+01 0.  1.
         11    1    6    6    0    0  0.35163504586E+01 -0.53834927934E+02 -0.29494793565E+02  0.61485827909E+02  0.00000000000E+00 0. -1.
        -12    1    6    6    0    0 -0.57673566698E+02 -0.18817906012E+02 -0.26690873155E+02  0.66277874077E+02  0.00000000000E+00 0.  1.
</event>
<event>
12    1  0.8356052E-002  0.1896368E+03  0.7818608E-02  0.1158862E+00
         21   -1    0    0  503  502  0.00000000000E+00  0.00000000000E+00  0.20508557835E+03  0.20508557835E+03  0.00000000000E+00 0.  1.
         21   -1    0    0  501  503 -0.00000000000E+00 -0.00000000000E+00 -0.18196680098E+03  0.18196680098E+03  0.00000000000E+00 0.  1.
          6    2    1    2  501    0  0.78525434911E+02 -0.13768884215E+02  0.49287377928E+02  0.19593709113E+03  0.17206473188E+03 0.  0.
         24    2    3    3    0    0  0.48988091519E+02 -0.42610630500E+02  0.91065647136E+02  0.13701498355E+03  0.79149571611E+02 0.  0.
         -6    2    1    2    0  502 -0.78525434911E+02  0.13768884215E+02 -0.26168600560E+02  0.19111528821E+03  0.17171031312E+03 0.  0.
        -24    2    5    5    0    0 -0.10335983662E+03 -0.14037288106E+02 -0.54900320564E+02  0.14381272525E+03  0.82387823504E+02 0.  0.
          5    1    3    3  501    0  0.29537343392E+02  0.28841746285E+02 -0.41778269208E+02  0.58922107578E+02  0.47000000000E+01 0. -1.
        -13    1    4    4    0    0  0.48286470464E+02 -0.41668776020E+02  0.21304531862E+02  0.67243982651E+02  0.00000000000E+00 0.  1.
         14    1    4    4    0    0  0.70162105505E+00 -0.94185447947E+00  0.69761115274E+02  0.69771000897E+02  0.00000000000E+00 0. -1.
         -5    1    5    5    0  502  0.24834401714E+02  0.27806172321E+02  0.28731720005E+02  0.47302562954E+02  0.47000000000E+01 0.  1.
         11    1    6    6    0    0 -0.44878514333E+01 -0.22889218017E+02  0.98229308850E+01  0.25309031651E+02  0.00000000000E+00 0. -1.
        -12    1    6    6    0    0 -0.98871985191E+02  0.88519299113E+01 -0.64723251449E+02  0.11850369360E+03  0.00000000000E+00 0.  1.
</event>
<event>
12    1  0.8356052E-002  0.2529670E+03  0.7818608E-02  0.1111560E+00
         21   -1    0    0  503  502  0.00000000000E+00  0.00000000000E+00  0.13566409125E+03  0.13566409125E+03  0.00000000000E+00 0. -1.
         21   -1    0    0  501  503 -0.00000000000E+00 -0.00000000000E+00 -0.12036929461E+04  0.12036929461E+04  0.00000000000E+00 0.  1.
          6    2    1    2  501    0 -0.17579229315E+03 -0.56435118324E+02 -0.10564321243E+04  0.10861243944E+04  0.17184153715E+03 0.  0.
         24    2    3    3    0    0 -0.13186883098E+03  0.28819608634E+02 -0.65592913207E+03  0.67427202302E+03  0.78611553323E+02 0.  0.
         -6    2    1    2    0  502  0.17579229315E+03  0.56435118324E+02 -0.11596730547E+02  0.25323264297E+03  0.17292898657E+03 0.  0.
        -24    2    5    5    0    0  0.12309912873E+03  0.10468787728E+03 -0.26546124141E+02  0.18008571759E+03  0.74921437725E+02 0.  0.
          5    1    3    3  501    0 -0.43923462166E+02 -0.85254726957E+02 -0.40050299225E+03  0.41185237136E+03  0.47000000000E+01 0. -1.
        -11    1    4    4    0    0 -0.58806776289E+02  0.23009393225E+02 -0.47315312102E+03  0.47734845244E+03  0.00000000000E+00 0.  1.
         12    1    4    4    0    0 -0.73062054692E+02  0.58102154092E+01 -0.18277601104E+03  0.19692357058E+03  0.00000000000E+00 0. -1.
         -5    1    5    5    0  502  0.52693164418E+02 -0.48252758955E+02  0.14949393594E+02  0.73146925376E+02  0.47000000000E+01 0.  1.
         13    1    6    6    0    0  0.11011354414E+03  0.55314315858E+02 -0.15349733899E+01  0.12323563724E+03  0.00000000000E+00 0. -1.
        -14    1    6    6    0    0  0.12985584589E+02  0.49373561421E+02 -0.25011150751E+02  0.56850080355E+02  0.00000000000E+00 0.  1.
</event>
<event>
12    1  0.8356052E-002  0.1918614E+03  0.7818608E-02  0.1156924E+00
         21   -1    0    0  503  502  0.00000000000E+00  0.00000000000E+00  0.25623471019E+03  0.25623471019E+03  0.00000000000E+00 0.  1.
         21   -1    0    0  501  503 -0.00000000000E+00 -0.00000000000E+00 -0.19165623855E+03  0.19165623855E+03  0.00000000000E+00 0.  1.
          6    2    1    2  501    0 -0.53755436973E+01  0.83410543315E+02 -0.80254033401E+02  0.20797000391E+03  0.17269799491E+03 0.  0.
         24    2    3    3    0    0 -0.38119830292E+02  0.97351963754E+02 -0.10184706966E+03  0.16607846869E+03  0.79238285287E+02 0.  0.
         -6    2    1    2    0  502  0.53755436973E+01 -0.83410543315E+02  0.14483250504E+03  0.23992094482E+03  0.17204473267E+03 0.  0.
        -24    2    5    5    0    0 -0.41575758502E+02 -0.33551589191E+02  0.20570043997E+02  0.97957606914E+02  0.79487817998E+02 0.  0.
          5    1    3    3  501    0  0.32744286595E+02 -0.13941420438E+02  0.21593036261E+02  0.41891535224E+02  0.47000000000E+01 0. -1.
        -13    1    4    4    0    0 -0.29509708423E+02  0.10863455861E+03 -0.10196501673E+03  0.15188533455E+03  0.00000000000E+00 0.  1.
         14    1    4    4    0    0 -0.86101218693E+01 -0.11282594854E+02  0.11794706330E+00  0.14193134141E+02  0.00000000000E+00 0. -1.
         -5    1    5    5    0  502  0.46951302199E+02 -0.49858954125E+02  0.12426246105E+03  0.14196333791E+03  0.47000000000E+01 0.  1.
         11    1    6    6    0    0 -0.36171549828E+02 -0.56714295446E+02  0.28257286471E+02  0.72961404616E+02  0.00000000000E+00 0. -1.
        -12    1    6    6    0    0 -0.54042086742E+01  0.23162706255E+02 -0.76872424742E+01  0.24996202298E+02  0.00000000000E+00 0.  1.
</event>
<event>
12    1  0.8356052E-002  0.2049553E+03  0.7818608E-02  0.1148140E+00
         21   -1    0    0  501  502  0.00000000000E+00  0.00000000000E+00  0.56562151278E+02  0.56562151278E+02  0.00000000000E+00 0. -1.
         21   -1    0    0  502  503 -0.00000000000E+00 -0.00000000000E+00 -0.11838664390E+04  0.11838664390E+04  0.00000000000E+00 0. -1.
         -6    2    1    2    0  503 -0.85857714174E+02  0.28519780905E+02 -0.97000693814E+03  0.99142329365E+03  0.18390693889E+03 0.  0.
        -24    2    3    3    0    0 -0.67895004563E+02  0.46116570041E+02 -0.30150990102E+03  0.32243698246E+03  0.79504198434E+02 0.  0.
          6    2    1    2  501    0  0.85857714174E+02 -0.28519780905E+02 -0.15729734955E+03  0.24900529659E+03  0.17051761366E+03 0.  0.
         24    2    5    5    0    0 -0.12817137342E+02 -0.15059115230E+02 -0.11465935585E+03  0.14057096463E+03  0.78882014748E+02 0.  0.
          5    1    5    5  501    0  0.98674851516E+02 -0.13460665676E+02 -0.42637993698E+02  0.10843433197E+03  0.47000000000E+01 0. -1.
        -13    1    6    6    0    0 -0.12130165878E+02  0.28408771766E+02 -0.77324608028E+02  0.83266405256E+02  0.00000000000E+00 0.  1.
         14    1    6    6    0    0 -0.68697146480E+00 -0.43467886996E+02 -0.37334747821E+02  0.57304559370E+02  0.00000000000E+00 0. -1.
         -5    1    3    3    0  503 -0.17962709611E+02 -0.17596789136E+02 -0.66849703712E+03  0.66898631119E+03  0.47000000000E+01 0.  1.
         11    1    4    4    0    0 -0.37240630542E+02  0.14691454838E+02 -0.25634446006E+03  0.25945170188E+03  0.00000000000E+00 0. -1.
        -12    1    4    4    0    0 -0.30654374021E+02  0.31425115204E+02 -0.45165440966E+02  0.62985280581E+02  0.00000000000E+00 0.  1.
</event>
<event>
12    1  0.8356052E-002  0.2065488E+03  0.7818608E-02  0.1144489E+00
         21   -1    0    0  503  502  0.00000000000E+00  0.00000000000E+00  0.14782955959E+03  0.14782955959E+03  0.00000000000E+00 0.  1.
         21   -1    0    0  501  503 -0.00000000000E+00 -0.00000000000E+00 -0.52657604638E+03  0.52657604638E+03  0.00000000000E+00 0.  1.
          6    2    1    2  501    0  0.67476656195E+02 -0.90566611597E+02 -0.41678993934E+03  0.46516260884E+03  0.17293637227E+03 0.  0.
         24    2    3    3    0    0  0.45013936249E+02 -0.33086735920E+02 -0.38222700430E+03  0.39427398934E+03  0.78952576302E+02 0.  0.
         -6    2    1    2    0  502 -0.67476656195E+02  0.90566611597E+02  0.38043452549E+02  0.20924299713E+03  0.17198813127E+03 0.  0.
        -24    2    5    5    0    0 -0.10463666668E+03  0.31905679309E+02  0.31609182055E+02  0.13934692290E+03  0.80321977973E+02 0.  0.
          5    1    3    3  501    0  0.22462719946E+02 -0.57479875677E+02 -0.34562935048E+02  0.70888619499E+02  0.47000000000E+01 0. -1.
        -13    1    4    4    0    0  0.28964042151E+02 -0.27809763314E+02 -0.63700646012E+02  0.75299873676E+02  0.00000000000E+00 0.  1.
         14    1    4    4    0    0  0.16049894098E+02 -0.52769726060E+01 -0.31852635828E+03  0.31897411566E+03  0.00000000000E+00 0. -1.
         -5    1    5    5    0  502  0.37160010484E+02  0.58660932288E+02  0.64342704935E+01  0.69896074231E+02  0.47000000000E+01 0.  1.
         13    1    6    6    0    0 -0.20052626724E+02 -0.24713398486E+02 -0.26883933433E+01  0.31938806522E+02  0.00000000000E+00 0. -1.
        -14    1    6    6    0    0 -0.84584039955E+02  0.56619077795E+02  0.34297575399E+02  0.10740811638E+03  0.00000000000E+00 0.  1.
</event>
<event>
12    1  0.8356052E-002  0.1768234E+03  0.7818608E-02  0.1171255E+00
         21   -1    0    0  501  502  0.00000000000E+00  0.00000000000E+00  0.14405406410E+03  0.14405406410E+03  0.00000000000E+00 0.  1.
         21   -1    0    0  502  503 -0.00000000000E+00 -0.00000000000E+00 -0.29733309870E+03  0.29733309870E+03  0.00000000000E+00 0.  1.
         -6    2    1    2    0  503 -0.52274314454E+01  0.39666051035E+02 -0.19273065195E+03  0.26155614389E+03  0.17223759915E+03 0.  0.
        -24    2    3    3    0    0 -0.32335021108E+02  0.65214446758E+00 -0.19164538708E+03  0.21380497508E+03  0.89099012877E+02 0.  0.
          6    2    1    2  501    0  0.52274314454E+01 -0.39666051035E+02  0.39451617346E+02  0.17983101891E+03  0.17082752590E+03 0.  0.
         24    2    5    5    0    0 -0.18165005178E+02 -0.88346443538E+02  0.34300569927E+02  0.12537360440E+03  0.80043426238E+02 0.  0.
          5    1    5    5  501    0  0.23392436623E+02  0.48680392503E+02  0.51510474189E+01  0.54457414508E+02  0.47000000000E+01 0. -1.
        -11    1    6    6    0    0  0.13192946351E+02 -0.86107462262E+02  0.35119593897E+02  0.93925155130E+02  0.00000000000E+00 0.  1.
         12    1    6    6    0    0 -0.31357951528E+02 -0.22389812756E+01 -0.81902397069E+00  0.31448449270E+02  0.00000000000E+00 0. -1.
         -5    1    3    3    0  503  0.27107589663E+02  0.39013906567E+02 -0.10852648662E+01  0.47751168811E+02  0.47000000000E+01 0.  1.
         11    1    4    4    0    0 -0.61888453313E+02  0.39414659166E+01 -0.10216636802E+03  0.11951436132E+03  0.00000000000E+00 0. -1.
        -12    1    4    4    0    0  0.29553432205E+02 -0.32893214490E+01 -0.89479019063E+02  0.94290613759E+02  0.00000000000E+00 0.  1.
</event>
<event>
12    1  0.8356052E-002  0.2089655E+03  0.7818608E-02  0.1142554E+00
         21   -1    0    0  503  502  0.00000000000E+00  0.00000000000E+00  0.21299945661E+03  0.21299945661E+03  0.00000000000E+00 0.  1.
         21   -1    0    0  501  503 -0.00000000000E+00 -0.00000000000E+00 -0.21051174295E+03  0.21051174295E+03  0.00000000000E+00 0.  1.
          6    2    1    2  501    0  0.65239714972E+02  0.97366459467E+02  0.37928610294E+02  0.21156159950E+03  0.17199791588E+03 0.  0.
         24    2    3    3    0    0  0.68913333896E+02  0.20352716887E+02  0.69630782923E+02  0.12806471470E+03  0.79930248010E+02 0.  0.
         -6    2    1    2    0  502 -0.65239714972E+02 -0.97366459467E+02 -0.35440896634E+02  0.21194960007E+03  0.17300326001E+03 0.  0.
        -24    2    5    5    0    0 -0.10369053984E+03 -0.46986669521E+02 -0.48163957411E+02  0.14713790788E+03  0.79814296822E+02 0.  0.
          5    1    3    3  501    0 -0.36736189239E+01  0.77013742580E+02 -0.31702172629E+02  0.83496884802E+02  0.47000000000E+01 0. -1.
        -13    1    4    4    0    0  0.77164775585E+02  0.19887532167E+02  0.26242413997E+02  0.83896250328E+02  0.00000000000E+00 0.  1.
         14    1    4    4    0    0 -0.82514416883E+01  0.46518471967E+00  0.43388368926E+02  0.44168464370E+02  0.00000000000E+00 0. -1.
         -5    1    5    5    0  502  0.38450824870E+02 -0.50379789946E+02  0.12723060777E+02  0.64811692184E+02  0.47000000000E+01 0.  1.
         13    1    6    6    0    0 -0.44543896474E+02  0.12237460525E+02 -0.43269290168E+02  0.63294119986E+02  0.00000000000E+00 0. -1.
        -14    1    6    6    0    0 -0.59146643369E+02 -0.59224130046E+02 -0.48946672429E+01  0.83843787897E+02  0.00000000000E+00 0.  1.
</event>
<event>
12    1  0.8356052E-002  0.3152883E+03  0.7818608E-02  0.1078003E+00
         21   -1    0    0  503  502  0.00000000000E+00  0.00000000000E+00  0.12369852452E+04  0.12369852452E+04  0.00000000000E+00 0. -1.
         21   -1    0    0  501  503 -0.00000000000E+00 -0.00000000000E+00 -0.92073335544E+02  0.92073335544E+02  0.00000000000E+00 0. -1.
          6    2    1    2  501    0 -0.15245115555E+03 -0.21355218327E+03  0.33078276357E+03  0.45601049804E+03  0.17228594788E+03 0.  0.
         24    2    3    3    0    0 -0.52359255093E+02 -0.18706201670E+02  0.94846817845E+02  0.13403036578E+03  0.76660332123E+02 0.  0.
         -6    2    1    2    0  502  0.15245115555E+03  0.21355218327E+03  0.81412914605E+03  0.87304808268E+03  0.17481647062E+03 0.  0.
        -24    2    5    5    0    0  0.10181118303E+03  0.18950858988E+03  0.76343361846E+03  0.79732075790E+03  0.81304849490E+02 0.  0.
          5    1    3    3  501    0 -0.10009190046E+03 -0.19484598160E+03  0.23593594573E+03  0.32198013226E+03  0.47000000000E+01 0. -1.
        -11    1    4    4    0    0  0.20021182177E+02 -0.65037269172E+01  0.25313664074E+02  0.32923058613E+02  0.00000000000E+00 0.  1.
         12    1    4    4    0    0 -0.72380437270E+02 -0.12202474753E+02  0.69533153771E+02  0.10110730717E+03  0.00000000000E+00 0. -1.
         -5    1    5    5    0  502  0.50639972519E+02  0.24043593393E+02  0.50695527590E+02  0.75727324775E+02  0.47000000000E+01 0.  1.
         11    1    6    6    0    0  0.36305976105E+02  0.17881394719E+02  0.80351593874E+02  0.89968032190E+02  0.00000000000E+00 0. -1.
        -12    1    6    6    0    0  0.65505206925E+02  0.17162719516E+03  0.68308202459E+03  0.70735272571E+03  0.00000000000E+00 0.  1.
</event>
<event>
12    1  0.8356052E-002  0.2017606E+03  0.7818608E-02  0.1148886E+00
         21   -1    0    0  503  502  0.00000000000E+00  0.00000000000E+00  0.38051556651E+02  0.38051556651E+02  0.00000000000E+00 0. -1.
         21   -1    0    0  501  503 -0.00000000000E+00 -0.00000000000E+00 -0.11601949182E+04  0.11601949182E+04  0.00000000000E+00 0. -1.
          6    2    1    2  501    0  0.55701641667E+02 -0.89340622378E+02 -0.73844641162E+03  0.76473673413E+03  0.16862606562E+03 0.  0.
         24    2    3    3    0    0  0.88505842181E+01  0.27354008877E+02 -0.20674910497E+03  0.21835154542E+03  0.64075192844E+02 0.  0.
         -6    2    1    2    0  502 -0.55701641667E+02  0.89340622378E+02 -0.38369694990E+03  0.43350974069E+03  0.17211312041E+03 0.  0.
        -24    2    5    5    0    0 -0.26743642185E+02 -0.14942724150E+02 -0.21715293087E+03  0.23483266005E+03  0.83979017842E+02 0.  0.
          5    1    3    3  501    0  0.46851057449E+02 -0.11669463126E+03 -0.53169730665E+03  0.54638518871E+03  0.47000000000E+01 0. -1.
        -13    1    4    4    0    0  0.46652870100E+01  0.21236443712E+02 -0.20936520081E+03  0.21049118451E+03  0.00000000000E+00 0.  1.
         14    1    4    4    0    0  0.41852972082E+01  0.61175651649E+01  0.26160958382E+01  0.78603609143E+01  0.00000000000E+00 0. -1.
         -5    1    5    5    0  502 -0.28957999482E+02  0.10428334653E+03 -0.16654401904E+03  0.19867708064E+03  0.47000000000E+01 0.  1.
         11    1    6    6    0    0 -0.55768275722E+02 -0.18516833312E+02 -0.16331711254E+03  0.17356685438E+03  0.00000000000E+00 0. -1.
        -12    1    6    6    0    0  0.29024633537E+02  0.35741091626E+01 -0.53835818332E+02  0.61265805665E+02  0.00000000000E+00 0.  1.
</event>
<event>
12    1  0.8356052E-002  0.1988243E+03  0.7818608E-02  0.1150751E+00
         21   -1    0    0  501  502  0.00000000000E+00  0.00000000000E+00  0.89407148995E+02  0.89407148995E+02  0.00000000000E+00 0. -1.
         21   -1    0    0  502  503 -0.00000000000E+00 -0.00000000000E+00 -0.96819772520E+03  0.96819772520E+03  0.00000000000E+00 0. -1.
         -6    2    1    2    0  503 -0.60920148273E+02  0.79353132038E+02 -0.82928016166E+03  0.85278173626E+03  0.17182234766E+03 0.  0.
        -24    2    3    3    0    0 -0.37207718331E+01  0.93693971457E+02 -0.69351252028E+03  0.70468592003E+03  0.82645179380E+02 0.  0.
          6    2    1    2  501    0  0.60920148273E+02 -0.79353132038E+02 -0.49510414552E+02  0.20482313793E+03  0.17173541468E+03 0.  0.
         24    2    5    5    0    0 -0.10888772654E+02 -0.51318279022E+02 -0.80921823507E+02  0.12144903691E+03  0.73820023815E+02 0.  0.
          5    1    5    5  501    0  0.71808920928E+02 -0.28034853016E+02  0.31411408955E+02  0.83374101020E+02  0.47000000000E+01 0. -1.
        -11    1    6    6    0    0 -0.24206186947E+02  0.58295730131E+01 -0.48348286460E+01  0.25363339214E+02  0.00000000000E+00 0.  1.
         12    1    6    6    0    0  0.13317414293E+02 -0.57147852035E+02 -0.76086994861E+02  0.96085697700E+02  0.00000000000E+00 0. -1.
         -5    1    3    3    0  503 -0.57199376440E+02 -0.14340839419E+02 -0.13576764138E+03  0.14809581624E+03  0.47000000000E+01 0.  1.
         13    1    4    4    0    0  0.10391227389E+01  0.42397158643E+02 -0.55961455938E+03  0.56121925653E+03  0.00000000000E+00 0. -1.
        -14    1    4    4    0    0 -0.47598945721E+01  0.51296812814E+02 -0.13389796090E+03  0.14346666349E+03  0.00000000000E+00 0.  1.
</event>
<event>
12    1  0.8356052E-002  0.2369907E+03  0.7818608E-02  0.1122110E+00
         21   -1    0    0  501  502  0.00000000000E+00  0.00000000000E+00  0.38218300302E+03  0.38218300302E+03  0.00000000000E+00 0. -1.
         21   -1    0    0  502  503 -0.00000000000E+00 -0.00000000000E+00 -0.18824614517E+03  0.18824614517E+03  0.00000000000E+00 0. -1.
         -6    2    1    2    0  503 -0.86977187243E+02  0.13705538087E+03 -0.38059745998E+02  0.24002731810E+03  0.17267125019E+03 0.  0.
        -24    2    3    3    0    0 -0.10730633584E+03  0.14783030618E+03 -0.59813439225E+02  0.20801659385E+03  0.79528653131E+02 0.  0.
          6    2    1    2  501    0  0.86977187243E+02 -0.13705538087E+03  0.23199660384E+03  0.33040183009E+03  0.17027547270E+03 0.  0.
         24    2    5    5    0    0  0.12039327552E+03 -0.91751196135E+02  0.13250980630E+03  0.21599546228E+03  0.78628036840E+02 0.  0.
          5    1    5    5  501    0 -0.33416088272E+02 -0.45304184734E+02  0.99486797543E+02  0.11440636781E+03  0.47000000000E+01 0. -1.
        -11    1    6    6    0    0  0.11748119742E+03 -0.51076374921E+02  0.86810332255E+02  0.15474708917E+03  0.00000000000E+00 0.  1.
         12    1    6    6    0    0  0.29120780963E+01 -0.40674821214E+02  0.45699474047E+02  0.61248373103E+02  0.00000000000E+00 0. -1.
         -5    1    3    3    0  503  0.20329148594E+02 -0.10774925312E+02  0.21753693227E+02  0.32010724251E+02  0.47000000000E+01 0.  1.
         11    1    4    4    0    0 -0.99479459075E+02  0.76140442761E+02 -0.51411428581E+02  0.13541294174E+03  0.00000000000E+00 0. -1.
        -12    1    4    4    0    0 -0.78268767619E+01  0.71689863420E+02 -0.84020106442E+01  0.72603652112E+02  0.00000000000E+00 0.  1.
</event>
<event>
12    1  0.8356052E-002  0.1804701E+03  0.7818608E-02  0.1167977E+00
         21   -1    0    0  503  502  0.00000000000E+00  0.00000000000E+00  0.62834864705E+02  0.62834864705E+02  0.00000000000E+00 0. -1.
         21   -1    0    0  501  503 -0.00000000000E+00 -0.00000000000E+00 -0.67877346188E+03  0.67877346188E+03  0.00000000000E+00 0. -1.
          6    2    1    2  501    0  0.27734387776E+02  0.40270572594E+02 -0.49068014910E+03  0.52192870936E+03  0.17103114820E+03 0.  0.
         24    2    3    3    0    0  0.21627701690E+02  0.86587578482E+02 -0.40994552920E+03  0.42853317682E+03  0.87293645202E+02 0.  0.
         -6    2    1    2    0  502 -0.27734387776E+02 -0.40270572594E+02 -0.12525844808E+03  0.21967961722E+03  0.17371971715E+03 0.  0.
        -24    2    5    5    0    0 -0.63688442528E+02 -0.71704715117E+02 -0.11685814525E+03  0.17096150502E+03  0.79838751272E+02 0.  0.
          5    1    3    3  501    0  0.61066860857E+01 -0.46317005888E+02 -0.80734619901E+02  0.93395532548E+02  0.47000000000E+01 0. -1.
        -11    1    4    4    0    0 -0.27524653089E+02  0.14068747983E+02 -0.56619677026E+02  0.64508325230E+02  0.00000000000E+00 0.  1.
         12    1    4    4    0    0  0.49152354779E+02  0.72518830500E+02 -0.35332585217E+03  0.36402485158E+03  0.00000000000E+00 0. -1.
         -5    1    5    5    0  502  0.35954054753E+02  0.31434142522E+02 -0.84003028244E+01  0.48718112205E+02  0.47000000000E+01 0.  1.
         13    1    6    6    0    0 -0.59761146337E+02 -0.88892291399E+02 -0.10189669305E+03  0.14783832432E+03  0.00000000000E+00 0. -1.
        -14    1    6    6    0    0 -0.39272961909E+01  0.17187576282E+02 -0.14961452199E+02  0.23123180701E+02  0.00000000000E+00 0.  1.
</event>
<event>
12    1  0.8356052E-002  0.2010352E+03  0.7818608E-02  0.1149197E+00
         21   -1    0    0  501  502  0.00000000000E+00  0.00000000000E+00  0.73764702929E+02  0.73764702929E+02  0.00000000000E+00 0.  1.
         21   -1    0    0  502  503 -0.00000000000E+00 -0.00000000000E+00 -0.58752763464E+03  0.58752763464E+03  0.00000000000E+00 0.  1.
         -6    2    1    2    0  503 -0.90013100533E+02  0.49613283029E+02 -0.34631815067E+03  0.39965730001E+03  0.17095572483E+03 0.  0.
        -24    2    3    3    0    0 -0.10503252751E+03 -0.12152916549E+02 -0.20309825545E+03  0.24289418260E+03  0.81050338400E+02 0.  0.
          6    2    1    2  501    0  0.90013100533E+02 -0.49613283029E+02 -0.16744478105E+03  0.26163503756E+03  0.17277529354E+03 0.  0.
         24    2    5    5    0    0  0.35372614982E+02 -0.88731141438E+02 -0.14342789520E+03  0.19011797447E+03  0.80304705598E+02 0.  0.
          5    1    5    5  501    0  0.54640485551E+02  0.39117858409E+02 -0.24016885843E+02  0.71517063092E+02  0.47000000000E+01 0. -1.
        -11    1    6    6    0    0  0.24694580184E+02 -0.66759427912E+02 -0.35654980414E+02  0.79611061630E+02  0.00000000000E+00 0.  1.
         12    1    6    6    0    0  0.10678034798E+02 -0.21971713526E+02 -0.10777291479E+03  0.11050691284E+03  0.00000000000E+00 0. -1.
         -5    1    3    3    0  503  0.15019426980E+02  0.61766199578E+02 -0.14321989521E+03  0.15676311742E+03  0.47000000000E+01 0.  1.
         13    1    4    4    0    0 -0.50170642641E+02 -0.10010806773E+02 -0.17273932425E+03  0.18015599845E+03  0.00000000000E+00 0. -1.
        -14    1    4    4    0    0 -0.54861884872E+02 -0.21421097758E+01 -0.30358931200E+02  0.62738184143E+02  0.00000000000E+00 0.  1.
</event>
<event>
12    1  0.8356052E-002  0.1807253E+03  0.7818608E-02  0.1168968E+00
         21   -1    0    0  501  502  0.00000000000E+00  0.00000000000E+00  0.18780088693E+02  0.18780088693E+02  0.00000000000E+00 0. -1.
         21   -1    0    0  502  503 -0.00000000000E+00 -0.00000000000E+00 -0.17453370927E+04  0.17453370927E+04  0.00000000000E+00 0.  1.
         -6    2    1    2    0  503 -0.10814115947E+02  0.54074262846E+02 -0.10677028999E+04  0.10828901723E+04  0.17210657088E+03 0.  0.
        -24    2    3    3    0    0  0.56828258707E+02  0.31049218341E+02 -0.73963867747E+03  0.74710174548E+03  0.83079118636E+02 0.  0.
          6    2    1    2  501    0  0.10814115947E+02 -0.54074262846E+02 -0.65885410414E+03  0.68122700916E+03  0.16413572571E+03 0.  0.
         24    2    5    5    0    0 -0.37034557825E+02 -0.45904679889E+02 -0.22253572569E+03  0.24219164038E+03  0.75205341232E+02 0.  0.
          5    1    5    5  501    0  0.47848673772E+02 -0.81695829572E+01 -0.43631837845E+03  0.43903536878E+03  0.47000000000E+01 0. -1.
        -13    1    6    6    0    0 -0.54428796387E+02 -0.96222827359E+01 -0.12431504960E+03  0.13604893883E+03  0.00000000000E+00 0.  1.
         14    1    6    6    0    0  0.17394238563E+02 -0.36282397153E+02 -0.98220676096E+02  0.10614270154E+03  0.00000000000E+00 0. -1.
         -5    1    3    3    0  503 -0.67642374654E+02  0.23025044505E+02 -0.32806422243E+03  0.33578842678E+03  0.47000000000E+01 0.  1.
         13    1    4    4    0    0  0.75245345755E+02  0.12621055474E+02 -0.46359784247E+03  0.46983413312E+03  0.00000000000E+00 0. -1.
        -14    1    4    4    0    0 -0.18417087048E+02  0.18428162867E+02 -0.27604083499E+03  0.27726761236E+03  0.00000000000E+00 0.  1.
</event>
<event>
12    1  0.8356052E-002  0.2509903E+03  0.7818608E-02  0.1113017E+00
         21   -1    0    0  501  502  0.00000000000E+00  0.00000000000E+00  0.20915896863E+03  0.20915896863E+03  0.00000000000E+00 0.  1.
         21   -1    0    0  502  503 -0.00000000000E+00 -0.00000000000E+00 -0.34161175947E+03  0.34161175947E+03  0.00000000000E+00 0. -1.
         -6    2    1    2    0  503 -0.59654909513E+02  0.17179252945E+03 -0.16414396741E+03  0.29989893593E+03  0.17298771150E+03 0.  0.
        -24    2    3    3    0    0 -0.87492174491E+02  0.92689385992E+02 -0.15758012852E+03  0.21565289978E+03  0.73678174557E+02 0.  0.
          6    2    1    2  501    0  0.59654909513E+02 -0.17179252945E+03  0.31691176567E+02  0.25087179217E+03  0.16988509067E+03 0.  0.
         24    2    5    5    0    0  0.40169740409E+02 -0.15730772268E+03 -0.31249911081E+02  0.18324670839E+03  0.79015641065E+02 0.  0.
          5    1    5    5  501    0  0.19485169104E+02 -0.14484806769E+02  0.62941087649E+02  0.67625083782E+02  0.47000000000E+01 0. -1.
        -13    1    6    6    0    0 -0.16610385014E+02 -0.74710173772E+02  0.49109805165E+01  0.76691803245E+02  0.00000000000E+00 0.  1.
         14    1    6    6    0    0  0.56780125423E+02 -0.82597548906E+02 -0.36160891598E+02  0.10655490514E+03  0.00000000000E+00 0. -1.
         -5    1    3    3    0  503  0.27837264978E+02  0.79103143456E+02 -0.65638388901E+01  0.84246036150E+02  0.47000000000E+01 0.  1.
         13    1    4    4    0    0 -0.80817505917E+02  0.76047593341E+02 -0.82015363391E+02  0.13798994727E+03  0.00000000000E+00 0. -1.
        -14    1    4    4    0    0 -0.66746685738E+01  0.16641792651E+02 -0.75564765132E+02  0.77662952511E+02  0.00000000000E+00 0.  1.
</event>
<event>
12    1  0.8356052E-002  0.1736021E+03  0.7818608E-02  0.1174160E+00
         21   -1    0    0  501  502  0.00000000000E+00  0.00000000000E+00  0.40736148628E+02  0.40736148628E+02  0.00000000000E+00 0. -1.
         21   -1    0    0  502  503 -0.00000000000E+00 -0.00000000000E+00 -0.96378356835E+03  0.96378356835E+03  0.00000000000E+00 0. -1.
         -6    2    1    2    0  503 -0.20367815647E+02 -0.31796603380E+01 -0.70372439502E+03  0.72480508020E+03  0.17230618675E+03 0.  0.
        -24    2    3    3    0    0  0.50797262631E+02  0.18732248423E+02 -0.35519035884E+03  0.36837463189E+03  0.81292185258E+02 0.  0.
          6    2    1    2  501    0  0.20367815647E+02  0.31796603380E+01 -0.21932302470E+03  0.27971463677E+03  0.17237381096E+03 0.  0.
         24    2    5    5    0    0  0.69321590565E+02 -0.34224568283E+02 -0.15169765057E+03  0.18811316504E+03  0.79984884069E+02 0.  0.
          5    1    5    5  501    0 -0.48953774918E+02  0.37404228621E+02 -0.67625374135E+02  0.91601471737E+02  0.47000000000E+01 0. -1.
        -11    1    6    6    0    0 -0.50322638450E+01 -0.36434125594E+02 -0.53441678777E+02  0.64875127882E+02  0.00000000000E+00 0.  1.
         12    1    6    6    0    0  0.74353854410E+02  0.22095573107E+01 -0.98255971791E+02  0.12323803715E+03  0.00000000000E+00 0. -1.
         -5    1    3    3    0  503 -0.71165078278E+02 -0.21911908761E+02 -0.34853403617E+03  0.35643044831E+03  0.47000000000E+01 0.  1.
         13    1    4    4    0    0 -0.12442081381E+02 -0.13064471492E+02 -0.15485263445E+03  0.15590004554E+03  0.00000000000E+00 0. -1.
        -14    1    4    4    0    0  0.63239344012E+02  0.31796719915E+02 -0.20033772439E+03  0.21247458635E+03  0.00000000000E+00 0.  1.
</event>
<event>
12    1  0.8356052E-002  0.2084463E+03  0.7818608E-02  0.1142894E+00
         21   -1    0    0  503  502  0.00000000000E+00  0.00000000000E+00  0.42630044720E+03  0.42630044720E+03  0.00000000000E+00 0.  1.
         21   -1    0    0  501  503 -0.00000000000E+00 -0.00000000000E+00 -0.16130726335E+03  0.16130726335E+03  0.00000000000E+00 0.  1.
          6    2    1    2  501    0 -0.10081877012E+03  0.58078951728E+02 -0.46196966784E+02  0.21305576083E+03  0.17239782029E+03 0.  0.
         24    2    3    3    0    0 -0.13965378490E+03  0.35818545749E+02 -0.32750527578E+02  0.16608150432E+03  0.75659243738E+02 0.  0.
         -6    2    1    2    0  502  0.10081877012E+03 -0.58078951728E+02  0.31119015064E+03  0.37455194972E+03  0.17295162372E+03 0.  0.
        -24    2    5    5    0    0  0.10141414052E+03  0.21491657351E+01  0.13971102936E+03  0.19274172000E+03  0.85678189122E+02 0.  0.
          5    1    3    3  501    0  0.38835014784E+02  0.22260405979E+02 -0.13446439205E+02  0.46974256512E+02  0.47000000000E+01 0. -1.
        -13    1    4    4    0    0 -0.38018822677E+02  0.22371273247E+02 -0.44779111381E+02  0.62857565658E+02  0.00000000000E+00 0.  1.
         14    1    4    4    0    0 -0.10163496222E+03  0.13447272502E+02  0.12028583803E+02  0.10322393866E+03  0.00000000000E+00 0. -1.
         -5    1    5    5    0  502 -0.59537040817E+00 -0.60228117463E+02  0.17147912128E+03  0.18181022973E+03  0.47000000000E+01 0.  1.
         13    1    6    6    0    0  0.77628593519E+01  0.32902442979E+02  0.29347402447E+02  0.44767206409E+02  0.00000000000E+00 0. -1.
        -14    1    6    6    0    0  0.93651281173E+02 -0.30753277244E+02  0.11036362691E+03  0.14797451359E+03  0.00000000000E+00 0.  1.
</event>
<event>
12    1  0.8356052E-002  0.2239605E+03  0.7818608E-02  0.1131047E+00
         21   -1    0    0  501  502  0.00000000000E+00  0.00000000000E+00  0.12579635143E+03  0.12579635143E+03  0.00000000000E+00 0.  1.
         21   -1    0    0  502  503 -0.00000000000E+00 -0.00000000000E+00 -0.40060834155E+03  0.40060834155E+03  0.00000000000E+00 0.  1.
         -6    2    1    2    0  503  0.14209496974E+03 -0.18452380786E+02 -0.11570881237E+03  0.25168282508E+03  0.17153496552E+03 0.  0.
        -24    2    3    3    0    0  0.13784614010E+03  0.25199928681E+02 -0.41542589050E+02  0.16539090566E+03  0.77406525718E+02 0.  0.
          6    2    1    2  501    0 -0.14209496974E+03  0.18452380786E+02 -0.15910317775E+03  0.27472186791E+03  0.17212441068E+03 0.  0.
         24    2    5    5    0    0 -0.12955001561E+03 -0.12177391223E+02 -0.17898863811E+03  0.23582353451E+03  0.81512645992E+02 0.  0.
          5    1    5    5  501    0 -0.12544954134E+02  0.30629772008E+02  0.19885460355E+02  0.38898333397E+02  0.47000000000E+01 0. -1.
        -11    1    6    6    0    0 -0.95393248334E+02 -0.29810815588E+02 -0.74990038101E+02  0.12494823876E+03  0.00000000000E+00 0.  1.
         12    1    6    6    0    0 -0.34156767273E+02  0.17633424365E+02 -0.10399860001E+03  0.11087529576E+03  0.00000000000E+00 0. -1.
         -5    1    3    3    0  503  0.42488296373E+01 -0.43652309467E+02 -0.74166223318E+02  0.86291919415E+02  0.47000000000E+01 0.  1.
         11    1    4    4    0    0  0.62811581487E+02 -0.17053065559E+02  0.87440126679E+01  0.65670081250E+02  0.00000000000E+00 0. -1.
        -12    1    4    4    0    0  0.75034558616E+02  0.42252994240E+02 -0.50286601718E+02  0.99720824411E+02  0.00000000000E+00 0.  1.
</event>
<event>
12    1  0.8356052E-002  0.2633742E+03  0.7818608E-02  0.1105169E+00
         21   -1    0    0  501  502  0.00000000000E+00  0.00000000000E+00  0.24154083825E+03  0.24154083825E+03  0.00000000000E+00 0. -1.
         21   -1    0    0  502  503 -0.00000000000E+00 -0.00000000000E+00 -0.28970131630E+03  0.28970131630E+03  0.00000000000E+00 0.  1.
         -6    2    1    2    0  503 -0.90704411068E+02  0.17693077926E+03  0.19744377402E+01  0.26313867348E+03  0.17235507605E+03 0.  0.
        -24    2    3    3    0    0 -0.67337030783E+02  0.43851111605E+02 -0.43558893607E+02  0.12047961605E+03  0.78490540621E+02 0.  0.
          6    2    1    2  501    0  0.90704411068E+02 -0.17693077926E+03 -0.50134915798E+02  0.26810348107E+03  0.17272572462E+03 0.  0.
         24    2    5    5    0    0  0.70599246970E+02 -0.13605073171E+03 -0.99225987393E+02  0.20096616491E+03  0.83949672986E+02 0.  0.
          5    1    5    5  501    0  0.20105164098E+02 -0.40880047545E+02  0.49091071594E+02  0.67137316159E+02  0.47000000000E+01 0. -1.
        -11    1    6    6    0    0  0.41305628139E+02 -0.20792190609E+02 -0.59975713908E+02  0.75733456048E+02  0.00000000000E+00 0.  1.
         12    1    6    6    0    0  0.29293618831E+02 -0.11525854110E+03 -0.39250273485E+02  0.12523270887E+03  0.00000000000E+00 0. -1.
         -5    1    3    3    0  503 -0.23367380285E+02  0.13307966765E+03  0.45533331347E+02  0.14265905743E+03  0.47000000000E+01 0.  1.
         13    1    4    4    0    0  0.17133416721E+02  0.15846415792E+02 -0.90562222628E+01  0.25033537977E+02  0.00000000000E+00 0. -1.
        -14    1    4    4    0    0 -0.84470447504E+02  0.28004695813E+02 -0.34502671344E+02  0.95446078070E+02  0.00000000000E+00 0.  1.
</event>
<event>
12    1  0.8356052E-002  0.1768277E+03  0.7818608E-02  0.1171078E+00
         21   -1    0    0  501  502  0.00000000000E+00  0.00000000000E+00  0.57279721808E+02  0.57279721808E+02  0.00000000000E+00 0.  1.
         21   -1    0    0  502  503 -0.00000000000E+00 -0.00000000000E+00 -0.56099402348E+03  0.56099402348E+03  0.00000000000E+00 0.  1.
         -6    2    1    2    0  503 -0.35596129987E+02 -0.25795644962E+02 -0.30646566133E+03  0.35382089725E+03  0.17127616877E+03 0.  0.
        -24    2    3    3    0    0 -0.66122093946E+02 -0.34937322396E+02 -0.11633537208E+03  0.16098152982E+03  0.82391664271E+02 0.  0.
          6    2    1    2  501    0  0.35596129987E+02  0.25795644962E+02 -0.19724864034E+03  0.26445284804E+03  0.17057486025E+03 0.  0.
         24    2    5    5    0    0  0.70429629616E+02 -0.24277926039E+02 -0.15897849494E+03  0.19229032842E+03  0.78432506834E+02 0.  0.
          5    1    5    5  501    0 -0.34833499629E+02  0.50073571001E+02 -0.38270145404E+02  0.72162519624E+02  0.47000000000E+01 0. -1.
        -13    1    6    6    0    0  0.42430331727E+02 -0.49431068915E+02 -0.12768152202E+03  0.14333992706E+03  0.00000000000E+00 0.  1.
         14    1    6    6    0    0  0.27999297889E+02  0.25153142876E+02 -0.31296972919E+02  0.48950401354E+02  0.00000000000E+00 0. -1.
         -5    1    3    3    0  503  0.30525963959E+02  0.91416774343E+01 -0.19013028925E+03  0.19283936743E+03  0.47000000000E+01 0.  1.
         11    1    4    4    0    0  0.68040716547E+01 -0.21257062369E+02 -0.70074882500E+02  0.73543505825E+02  0.00000000000E+00 0. -1.
        -12    1    4    4    0    0 -0.72926165601E+02 -0.13680260027E+02 -0.46260489582E+02  0.87438023994E+02  0.00000000000E+00 0.  1.
</event>
<event>
12    1  0.8356052E-002  0.2515274E+03  0.7818608E-02  0.1113439E+00
         21   -1    0    0  503  502  0.00000000000E+00  0.00000000000E+00  0.22512037490E+03  0.22512037490E+03  0.00000000000E+00 0.  1.
         21   -1    0    0  501  503 -0.00000000000E+00 -0.00000000000E+00 -0.35010059244E+03  0.35010059244E+03  0.00000000000E+00 0.  1.
          6    2    1    2  501    0 -0.53184058584E+02 -0.16748578527E+03  0.71449770396E+02  0.26147866228E+03  0.17996107575E+03 0.  0.
         24    2    3    3    0    0 -0.87663224432E+02 -0.96967602095E+02 -0.36011532472E+01  0.15277558884E+03  0.78992755789E+02 0.  0.
         -6    2    1    2    0  502  0.53184058584E+02  0.16748578527E+03 -0.19642998794E+03  0.31374230506E+03  0.17020417582E+03 0.  0.
        -24    2    5    5    0    0  0.37214249204E+02  0.19214567428E+03 -0.18201152692E+03  0.28067983455E+03  0.85721135711E+02 0.  0.
          5    1    3    3  501    0  0.34479165848E+02 -0.70518183174E+02  0.75050923643E+02  0.10870307344E+03  0.47000000000E+01 0. -1.
        -13    1    4    4    0    0 -0.34344247863E+02  0.40035952290E+01  0.13883845949E+02  0.37260130359E+02  0.00000000000E+00 0.  1.
         14    1    4    4    0    0 -0.53318976569E+02 -0.10097119732E+03 -0.17484999196E+02  0.11551545848E+03  0.00000000000E+00 0. -1.
         -5    1    5    5    0  502  0.15969809379E+02 -0.24659889009E+02 -0.14418461023E+02  0.33062470504E+02  0.47000000000E+01 0.  1.
         13    1    6    6    0    0  0.64728541286E+01  0.23086145241E+02  0.72524013364E+01  0.25049256832E+02  0.00000000000E+00 0. -1.
        -14    1    6    6    0    0  0.30741395076E+02  0.16905952904E+03 -0.18926392825E+03  0.25563057772E+03  0.00000000000E+00 0.  1.
</event>
<event>
12    1  0.8356052E-002  0.2461149E+03  0.7818608E-02  0.1115851E+00
         21   -1    0    0  503  502  0.00000000000E+00  0.00000000000E+00  0.85854521269E+02  0.85854521269E+02  0.00000000000E+00 0.  1.
         21   -1    0    0  501  503 -0.00000000000E+00 -0.00000000000E+00 -0.12668983231E+04  0.12668983231E+04  0.00000000000E+00 0. -1.
          6    2    1    2  501    0  0.21165444287E+02 -0.17473100385E+03 -0.14008742292E+03  0.28319078845E+03  0.17202801186E+03 0.  0.
         24    2    3    3    0    0  0.12079425868E+00 -0.15862766059E+03 -0.16799381506E+03  0.24442157797E+03  0.79732280683E+02 0.  0.
         -6    2    1    2    0  502 -0.21165444287E+02  0.17473100385E+03 -0.10409563789E+04  0.10695620559E+04  0.17144651915E+03 0.  0.
        -24    2    5    5    0    0 -0.14156048713E+02  0.17250922383E+03 -0.61553790537E+03  0.64405408236E+03  0.77194054414E+02 0.  0.
          5    1    3    3  501    0  0.21044650028E+02 -0.16103343259E+02  0.27906392142E+02  0.38769210481E+02  0.47000000000E+01 0. -1.
        -13    1    4    4    0    0  0.22583468414E+02 -0.15101912226E+03 -0.13519933640E+03  0.20395011374E+03  0.00000000000E+00 0.  1.
         14    1    4    4    0    0 -0.22462674155E+02 -0.76085383274E+01 -0.32794478661E+02  0.40471464223E+02  0.00000000000E+00 0. -1.
         -5    1    5    5    0  502 -0.70093955736E+01  0.22217800173E+01 -0.42541847350E+03  0.42550797352E+03  0.47000000000E+01 0.  1.
         11    1    6    6    0    0 -0.33389678887E+01  0.92982463853E+02 -0.45680660618E+03  0.46618575991E+03  0.00000000000E+00 0. -1.
        -12    1    6    6    0    0 -0.10817080825E+02  0.79526759975E+02 -0.15873129919E+03  0.17786832245E+03  0.00000000000E+00 0.  1.
</event>
<event>
12    1  0.8356052E-002  0.1883410E+03  0.7818608E-02  0.1163472E+00
         21   -1    0    0  501  502  0.00000000000E+00  0.00000000000E+00  0.18803419855E+04  0.18803419855E+04  0.00000000000E+00 0.  1.
         21   -1    0    0  502  503 -0.00000000000E+00 -0.00000000000E+00 -0.20759572269E+02  0.20759572269E+02  0.00000000000E+00 0. -1.
         -6    2    1    2    0  503  0.39363526640E+02  0.49478501596E+02  0.12790810164E+04  0.12908112973E+04  0.16170327579E+03 0.  0.
        -24    2    3    3    0    0  0.27618578132E+02  0.17079664333E+02  0.30838536020E+03  0.31949272164E+03  0.76938728907E+02 0.  0.
          6    2    1    2  501    0 -0.39363526640E+02 -0.49478501596E+02  0.58050139690E+03  0.61029026052E+03  0.17741116352E+03 0.  0.
         24    2    5    5    0    0 -0.85948433438E+02 -0.70034318622E+02  0.42869402807E+03  0.45010205127E+03  0.80754862741E+02 0.  0.
          5    1    5    5  501    0  0.46584906797E+02  0.20555817026E+02  0.15180736882E+03  0.16018820925E+03  0.47000000000E+01 0. -1.
        -13    1    6    6    0    0  0.15291314150E+02 -0.64288480654E+01  0.72632927309E+02  0.74502996620E+02  0.00000000000E+00 0.  1.
         14    1    6    6    0    0 -0.10123974759E+03 -0.63605470557E+02  0.35606110076E+03  0.37559905465E+03  0.00000000000E+00 0. -1.
         -5    1    3    3    0  503  0.11744948509E+02  0.32398837263E+02  0.97069565616E+03  0.97131857563E+03  0.47000000000E+01 0.  1.
         11    1    4    4    0    0  0.52990478138E+02  0.13130586209E+02  0.16416845515E+03  0.17300775917E+03  0.00000000000E+00 0. -1.
        -12    1    4    4    0    0 -0.25371900007E+02  0.39490781243E+01  0.14421690505E+03  0.14648496247E+03  0.00000000000E+00 0.  1.
</event>
<event>
12    1  0.8356052E-002  0.1998224E+03  0.7818608E-02  0.1150078E+00
         21   -1    0    0  503  502  0.00000000000E+00  0.00000000000E+00  0.46733438746E+03  0.46733438746E+03  0.00000000000E+00 0.  1.
         21   -1    0    0  501  503 -0.00000000000E+00 -0.00000000000E+00 -0.85299180911E+02  0.85299180911E+02  0.00000000000E+00 0.  1.
          6    2    1    2  501    0 -0.86744816153E+02  0.51819632072E+02  0.17678518108E+03  0.26679953592E+03  0.17239215388E+03 0.  0.
         24    2    3    3    0    0 -0.66970831488E+02 -0.21585535160E+01  0.18097165724E+03  0.20896985866E+03  0.80174244497E+02 0.  0.
         -6    2    1    2    0  502  0.86744816153E+02 -0.51819632072E+02  0.20525002547E+03  0.28583403245E+03  0.17135805716E+03 0.  0.
        -24    2    5    5    0    0  0.54770680998E+02  0.25280589201E+02  0.16432758560E+03  0.19275597100E+03  0.80699276819E+02 0.  0.
          5    1    3    3  501    0 -0.19773984665E+02  0.53978185588E+02 -0.41864761632E+01  0.57829677256E+02  0.47000000000E+01 0. -1.
        -13    1    4    4    0    0 -0.15402063297E+02  0.21244415908E+02  0.87252285349E+01  0.27652818555E+02  0.00000000000E+00 0.  1.
         14    1    4    4    0    0 -0.51568768191E+02 -0.23402969424E+02  0.17224642870E+03  0.18131704010E+03  0.00000000000E+00 0. -1.
         -5    1    5    5    0  502  0.31974135155E+02 -0.77100221273E+02  0.40922439870E+02  0.93078061455E+02  0.47000000000E+01 0.  1.
         13    1    6    6    0    0  0.80848506225E+01  0.24135455398E+02  0.40005621525E+01  0.25766053528E+02  0.00000000000E+00 0. -1.
        -14    1    6    6    0    0  0.46685830375E+02  0.11451338021E+01  0.16032702345E+03  0.16698991747E+03  0.00000000000E+00 0.  1.
</event>
<event>
12    1  0.8356052E-002  0.2210231E+03  0.7818608E-02  0.1133938E+00
         21   -1    0    0  501  502  0.00000000000E+00  0.00000000000E+00  0.79912051469E+03  0.79912051469E+03  0.00000000000E+00 0.  1.
         21   -1    0    0  502  503 -0.00000000000E+00 -0.00000000000E+00 -0.59946054080E+02  0.59946054080E+02  0.00000000000E+00 0. -1.
         -6    2    1    2    0  503  0.52970714193E+02 -0.12657299444E+03  0.37223509559E+03  0.43070255759E+03  0.16768752857E+03 0.  0.
        -24    2    3    3    0    0  0.88347620198E+02 -0.91021983583E+02  0.19181466708E+03  0.24338192105E+03  0.79696860001E+02 0.  0.
          6    2    1    2  501    0 -0.52970714193E+02  0.12657299444E+03  0.36693936502E+03  0.42836401118E+03  0.17327610623E+03 0.  0.
         24    2    5    5    0    0 -0.93638144411E+02  0.13643982067E+03  0.27986988926E+03  0.33164597900E+03  0.65406220802E+02 0.  0.
          5    1    5    5  501    0  0.40667430218E+02 -0.98668262212E+01  0.87069475761E+02  0.96718032184E+02  0.47000000000E+01 0. -1.
        -13    1    6    6    0    0 -0.13866063868E+02  0.60141356930E+02  0.14342063868E+03  0.15613689551E+03  0.00000000000E+00 0.  1.
         14    1    6    6    0    0 -0.79772080543E+02  0.76298463736E+02  0.13644925058E+03  0.17550908349E+03  0.00000000000E+00 0. -1.
         -5    1    3    3    0  503 -0.35376906004E+02 -0.35551010861E+02  0.18042042851E+03  0.18732063654E+03  0.47000000000E+01 0.  1.
         11    1    4    4    0    0  0.15220169631E+02  0.14047021445E+02  0.37898427542E+02  0.43188692793E+02  0.00000000000E+00 0. -1.
        -12    1    4    4    0    0  0.73127450567E+02 -0.10506900503E+03  0.15391623954E+03  0.20019322825E+03  0.00000000000E+00 0.  1.
</event>
<event>
12    1  0.8356052E-002  0.2361227E+03  0.7818608E-02  0.1122470E+00
         21   -1    0    0  503  502  0.00000000000E+00  0.00000000000E+00  0.16147169046E+03  0.16147169046E+03  0.00000000000E+00 0.  1.
         21   -1    0    0  501  503 -0.00000000000E+00 -0.00000000000E+00 -0.46564999503E+03  0.46564999503E+03  0.00000000000E+00 0. -1.
          6    2    1    2  501    0 -0.15719734639E+03  0.36037938897E+02 -0.31198473532E+03  0.39126516116E+03  0.17246510519E+03 0.  0.
         24    2    3    3    0    0 -0.26047721250E+02  0.57473165905E+02 -0.11554407425E+03  0.15405066654E+03  0.79997038610E+02 0.  0.
         -6    2    1    2    0  502  0.15719734639E+03 -0.36037938897E+02  0.78064307525E+01  0.23585652433E+03  0.17192329963E+03 0.  0.
        -24    2    5    5    0    0  0.14615305553E+03 -0.62060797898E+02 -0.38067077793E+02  0.18176739106E+03  0.79862530420E+02 0.  0.
          5    1    3    3  501    0 -0.13114962514E+03 -0.21435227008E+02 -0.19644066108E+03  0.23721449461E+03  0.47000000000E+01 0. -1.
        -11    1    4    4    0    0 -0.60643826902E+01  0.58292221460E+02 -0.12001194758E+03  0.13355758078E+03  0.00000000000E+00 0.  1.
         12    1    4    4    0    0 -0.19983338560E+02 -0.81905555487E+00  0.44678733347E+01  0.20493085765E+02  0.00000000000E+00 0. -1.
         -5    1    5    5    0  502  0.11044290859E+02  0.26022859001E+02  0.45873508545E+02  0.54089133266E+02  0.47000000000E+01 0.  1.
         11    1    6    6    0    0  0.20566243343E+02  0.18747451161E+02 -0.75873850560E+00  0.27839054840E+02  0.00000000000E+00 0. -1.
        -12    1    6    6    0    0  0.12558681219E+03 -0.80808249060E+02 -0.37308339287E+02  0.15392833622E+03  0.00000000000E+00 0.  1.
</event>
<event>
12    1  0.8356052E-002  0.3712577E+03  0.7818608E-02  0.1054252E+00
         21   -1    0    0  501  502  0.00000000000E+00  0.00000000000E+00  0.13997228192E+04  0.13997228192E+04  0.00000000000E+00 0. -1.
         21   -1    0    0  502  503 -0.00000000000E+00 -0.00000000000E+00 -0.10560322868E+03  0.10560322868E+03  0.00000000000E+00 0.  1.
         -6    2    1    2    0  503 -0.14985677617E+03 -0.29243094471E+03  0.84380351208E+03  0.92170217960E+03  0.17192332617E+03 0.  0.
        -24    2    3    3    0    0 -0.37701009455E+02 -0.92539213012E+02  0.42976956992E+03  0.44843500804E+03  0.80044994530E+02 0.  0.
          6    2    1    2  501    0  0.14985677617E+03  0.29243094471E+03  0.45031607847E+03  0.58362386833E+03  0.17279854849E+03 0.  0.
         24    2    5    5    0    0  0.11022211799E+03  0.11498876630E+03  0.14647089777E+03  0.22950437347E+03  0.76466998597E+02 0.  0.
          5    1    5    5  501    0  0.39634658179E+02  0.17744217841E+03  0.30384518070E+03  0.35411949486E+03  0.47000000000E+01 0. -1.
        -11    1    6    6    0    0  0.68555658778E+02  0.11037836123E+03  0.13182843695E+03  0.18509996696E+03  0.00000000000E+00 0.  1.
         12    1    6    6    0    0  0.41666459214E+02  0.46104050703E+01  0.14642460825E+02  0.44404406508E+02  0.00000000000E+00 0. -1.
         -5    1    3    3    0  503 -0.11215576672E+03 -0.19989173170E+03  0.41403394216E+03  0.47326717156E+03  0.47000000000E+01 0.  1.
         11    1    4    4    0    0 -0.20684186291E+02 -0.10492324057E+03  0.36330524320E+03  0.37871812963E+03  0.00000000000E+00 0. -1.
        -12    1    4    4    0    0 -0.17016823164E+02  0.12384027557E+02  0.66464326722E+02  0.69716878414E+02  0.00000000000E+00 0.  1.
</event>
<event>
12    1  0.8356052E-002  0.2146525E+03  0.7818608E-02  0.1138581E+00
         21   -1    0    0  503  502  0.00000000000E+00  0.00000000000E+00  0.22438913259E+03  0.22438913259E+03  0.00000000000E+00 0. -1.
         21   -1    0    0  501  503 -0.00000000000E+00 -0.00000000000E+00 -0.77210052339E+03  0.77210052339E+03  0.00000000000E+00 0. -1.
          6    2    1    2  501    0 -0.57416720915E+01 -0.12543805865E+03 -0.70248930503E+03  0.73455218595E+03  0.17409197812E+03 0.  0.
         24    2    3    3    0    0 -0.64438906465E+02 -0.41003184136E+02 -0.39014900318E+03  0.40568569705E+03  0.80814641848E+02 0.  0.
         -6    2    1    2    0  502  0.57416720915E+01  0.12543805865E+03  0.15477791423E+03  0.26193747003E+03  0.16996282568E+03 0.  0.
        -24    2    5    5    0    0 -0.28535590827E+02  0.14673975567E+03  0.13859839327E+03  0.21820464543E+03  0.77826196299E+02 0.  0.
          5    1    3    3  501    0  0.58697234373E+02 -0.84434874518E+02 -0.31234030186E+03  0.32886648890E+03  0.47000000000E+01 0. -1.
        -13    1    4    4    0    0 -0.90972721574E+01  0.22634440982E+02 -0.12803883460E+03  0.13034194046E+03  0.00000000000E+00 0.  1.
         14    1    4    4    0    0 -0.55341634307E+02 -0.63637625118E+02 -0.26211016858E+03  0.27534375659E+03  0.00000000000E+00 0. -1.
         -5    1    5    5    0  502  0.34277262918E+02 -0.21301697015E+02  0.16179520961E+02  0.43732824599E+02  0.47000000000E+01 0.  1.
         11    1    6    6    0    0  0.10963615532E+02  0.78225192677E+02  0.31425756954E+02  0.85011527659E+02  0.00000000000E+00 0. -1.
        -12    1    6    6    0    0 -0.39499206359E+02  0.68514562993E+02  0.10717263632E+03  0.13319311777E+03  0.00000000000E+00 0.  1.
</event>
<event>
12    1  0.8356052E-002  0.2060834E+03  0.7818608E-02  0.1144948E+00
         21   -1    0    0  503  502  0.00000000000E+00  0.00000000000E+00  0.64705507310E+02  0.64705507310E+02  0.00000000000E+00 0.  1.
         21   -1    0    0  501  503 -0.00000000000E+00 -0.00000000000E+00 -0.66063198422E+03  0.66063198422E+03  0.00000000000E+00 0. -1.
          6    2    1    2  501    0  0.16604353634E+02 -0.11319489463E+03 -0.33888626897E+03  0.39662862699E+03  0.17141054728E+03 0.  0.
         24    2    3    3    0    0 -0.69467616424E+01 -0.78359135360E+02 -0.88213834526E+02  0.14241032602E+03  0.79439340153E+02 0.  0.
         -6    2    1    2    0  502 -0.16604353634E+02  0.11319489463E+03 -0.25704020794E+03  0.32870886455E+03  0.16997370503E+03 0.  0.
        -24    2    5    5    0    0 -0.50891854278E+02  0.33457444305E+02 -0.20410419349E+03  0.22693457844E+03  0.78303254614E+02 0.  0.
          5    1    3    3  501    0  0.23551115276E+02 -0.34835759274E+02 -0.25067243445E+03  0.25421830097E+03  0.47000000000E+01 0. -1.
        -13    1    4    4    0    0  0.21426843130E+02 -0.13194342667E+02 -0.61557392456E+02  0.66501976294E+02  0.00000000000E+00 0.  1.
         14    1    4    4    0    0 -0.28373604772E+02 -0.65164792693E+02 -0.26656442069E+02  0.75908349727E+02  0.00000000000E+00 0. -1.
         -5    1    5    5    0  502  0.34287500645E+02  0.79737450329E+02 -0.52936014453E+02  0.10177428610E+03  0.47000000000E+01 0.  1.
         11    1    6    6    0    0  0.38755236305E+01  0.19890985903E+02 -0.14032200414E+03  0.14177776924E+03  0.00000000000E+00 0. -1.
        -12    1    6    6    0    0 -0.54767377909E+02  0.13566458402E+02 -0.63782189348E+02  0.85156809208E+02  0.00000000000E+00 0.  1.
</event>
<event>
12    1  0.8356052E-002  0.2310623E+03  0.7818608E-02  0.1127092E+00
         21   -1    0    0  503  502  0.00000000000E+00  0.00000000000E+00  0.17817644031E+03  0.17817644031E+03  0.00000000000E+00 0.  1.
         21   -1    0    0  501  503 -0.00000000000E+00 -0.00000000000E+00 -0.33211320789E+03  0.33211320789E+03  0.00000000000E+00 0.  1.
          6    2    1    2  501    0 -0.32728148296E+02 -0.14029178568E+03 -0.16576543725E+03  0.27892480982E+03  0.17195334404E+03 0.  0.
         24    2    3    3    0    0 -0.54174269344E+02 -0.15872274467E+02 -0.80789288425E+02  0.12666454991E+03  0.79562670421E+02 0.  0.
         -6    2    1    2    0  502  0.32728148296E+02  0.14029178568E+03  0.11828669668E+02  0.23136483838E+03  0.18065673027E+03 0.  0.
        -24    2    5    5    0    0 -0.45432203178E+02  0.32529534135E+02  0.62011670446E+01  0.98040038789E+02  0.80318983164E+02 0.  0.
          5    1    3    3  501    0  0.21446121048E+02 -0.12441951122E+03 -0.84976148822E+02  0.15226025991E+03  0.47000000000E+01 0. -1.
        -13    1    4    4    0    0 -0.38785886419E+02 -0.51570250996E+01  0.44569946250E+01  0.39380257672E+02  0.00000000000E+00 0.  1.
         14    1    4    4    0    0 -0.15388382925E+02 -0.10715249367E+02 -0.85246283050E+02  0.87284292240E+02  0.00000000000E+00 0. -1.
         -5    1    5    5    0  502  0.78160351474E+02  0.10776225155E+03  0.56275026229E+01  0.13332479960E+03  0.47000000000E+01 0.  1.
         11    1    6    6    0    0 -0.16683218200E+02  0.38512528805E+02  0.36663011201E+02  0.55728996355E+02  0.00000000000E+00 0. -1.
        -12    1    6    6    0    0 -0.28748984978E+02 -0.59829946701E+01 -0.30461844156E+02  0.42311042434E+02  0.00000000000E+00 0.  1.
</event>
<event>
12    1  0.8356052E-002  0.1861347E+03  0.7818608E-02  0.1164183E+00
         21   -1    0    0  503  502  0.00000000000E+00  0.00000000000E+00  0.26186136577E+03  0.26186136577E+03  0.00000000000E+00 0. -1.
         21   -1    0    0  501  503 -0.00000000000E+00 -0.00000000000E+00 -0.12797047260E+03  0.12797047260E+03  0.00000000000E+00 0. -1.
          6    2    1    2  501    0  0.14255859729E+02  0.32858947040E+02  0.40203218444E+02  0.18144879955E+03  0.17327558440E+03 0.  0.
         24    2    3    3    0    0 -0.40859538557E+02  0.66484064674E+02  0.30109220572E+02  0.11593288960E+03  0.80276005009E+02 0.  0.
         -6    2    1    2    0  502 -0.14255859729E+02 -0.32858947040E+02  0.93687674730E+02  0.20838303882E+03  0.18265588009E+03 0.  0.
        -24    2    5    5    0    0 -0.33788400958E+02 -0.23534580663E+02 -0.19595486899E+02  0.92955014992E+02  0.81000735670E+02 0.  0.
          5    1    3    3  501    0  0.55115398286E+02 -0.33625117634E+02  0.10093997871E+02  0.65515909954E+02  0.47000000000E+01 0. -1.
        -13    1    4    4    0    0 -0.96693333334E+01  0.77790679909E+01  0.45949064926E+02  0.47595445933E+02  0.00000000000E+00 0.  1.
         14    1    4    4    0    0 -0.31190205223E+02  0.58704996683E+02 -0.15839844354E+02  0.68337443664E+02  0.00000000000E+00 0. -1.
         -5    1    5    5    0  502  0.19532541229E+02 -0.93243663774E+01  0.11328316163E+03  0.11542802382E+03  0.47000000000E+01 0.  1.
         13    1    6    6    0    0  0.18547672053E+01 -0.42007926669E+02  0.98267651601E+01  0.43181840835E+02  0.00000000000E+00 0. -1.
        -14    1    6    6    0    0 -0.35643168164E+02  0.18473346006E+02 -0.29422252059E+02  0.49773174157E+02  0.00000000000E+00 0.  1.
</event>
<event>
12    1  0.8356052E-002  0.1819292E+03  0.7818608E-02  0.1166629E+00
         21   -1    0    0  501  502  0.00000000000E+00  0.00000000000E+00  0.83114296901E+03  0.83114296901E+03  0.00000000000E+00 0.  1.
         21   -1    0    0  502  503 -0.00000000000E+00 -0.00000000000E+00 -0.40235181093E+02  0.40235181093E+02  0.00000000000E+00 0. -1.
         -6    2    1    2    0  503  0.17141383357E+02  0.53954783791E+02  0.32880006882E+03  0.37577617469E+03  0.17289679723E+03 0.  0.
        -24    2    3    3    0    0  0.23297679006E+02 -0.34336987320E+02  0.17639757334E+03  0.19947544454E+03  0.83381883828E+02 0.  0.
          6    2    1    2  501    0 -0.17141383357E+02 -0.53954783791E+02  0.46210771910E+03  0.49560197542E+03  0.16992006434E+03 0.  0.
         24    2    5    5    0    0 -0.48244741413E+02  0.23947550717E+02  0.26205989020E+03  0.27862866726E+03  0.77829993623E+02 0.  0.
          5    1    5    5  501    0  0.31103358056E+02 -0.77902334508E+02  0.20004782890E+03  0.21697330816E+03  0.47000000000E+01 0. -1.
        -11    1    6    6    0    0 -0.27499908454E+02  0.17140303783E+02  0.25957658011E+02  0.41519091851E+02  0.00000000000E+00 0.  1.
         12    1    6    6    0    0 -0.20744832959E+02  0.68072469346E+01  0.23610223219E+03  0.23710957541E+03  0.00000000000E+00 0. -1.
         -5    1    3    3    0  503 -0.61562956490E+01  0.88291771110E+02  0.15240249548E+03  0.17630073014E+03  0.47000000000E+01 0.  1.
         11    1    4    4    0    0  0.33268431970E+02 -0.10779355408E+02  0.18584625549E+02  0.39602668794E+02  0.00000000000E+00 0. -1.
        -12    1    4    4    0    0 -0.99707529644E+01 -0.23557631912E+02  0.15781294779E+03  0.15987277575E+03  0.00000000000E+00 0.  1.
</event>
<event>
12    1  0.8356052E-002  0.1958242E+03  0.7818608E-02  0.1153393E+00
         21   -1    0    0  501  502  0.00000000000E+00  0.00000000000E+00  0.71613493259E+03  0.71613493259E+03  0.00000000000E+00 0. -1.
         21   -1    0    0  502  503 -0.00000000000E+00 -0.00000000000E+00 -0.73891015371E+02  0.73891015371E+02  0.00000000000E+00 0. -1.
         -6    2    1    2    0  503  0.89828122444E+02  0.25935385768E+02  0.11310585171E+03  0.22581482076E+03  0.17163235058E+03 0.  0.
        -24    2    3    3    0    0  0.11905563109E+03  0.53816825579E+02  0.75663570935E+02  0.17053701023E+03  0.79293138931E+02 0.  0.
          6    2    1    2  501    0 -0.89828122444E+02 -0.25935385768E+02  0.52913806551E+03  0.56421112720E+03  0.17206210470E+03 0.  0.
         24    2    5    5    0    0 -0.62846634540E+02  0.51486274644E+02  0.32147170909E+03  0.34089628270E+03  0.79156047520E+02 0.  0.
          5    1    5    5  501    0 -0.26981487903E+02 -0.77421660412E+02  0.20766635641E+03  0.22331484451E+03  0.47000000000E+01 0. -1.
        -11    1    6    6    0    0  0.67436289840E+01 -0.70846724513E+01  0.38571383297E+01  0.10514115831E+02  0.00000000000E+00 0.  1.
         12    1    6    6    0    0 -0.69590263524E+02  0.58570947096E+02  0.31761457076E+03  0.33038216687E+03  0.00000000000E+00 0. -1.
         -5    1    3    3    0  503 -0.29227508643E+02 -0.27881439811E+02  0.37442280776E+02  0.55277810531E+02  0.47000000000E+01 0.  1.
         11    1    4    4    0    0  0.78584771737E+02  0.71060672128E+02  0.37784984931E+02  0.11248506816E+03  0.00000000000E+00 0. -1.
        -12    1    4    4    0    0  0.40470859351E+02 -0.17243846549E+02  0.37878586004E+02  0.58051942070E+02  0.00000000000E+00 0.  1.
</event>
<event>
12    1  0.8356052E-002  0.3406126E+03  0.7818608E-02  0.1066541E+00
         21   -1    0    0  501  502  0.00000000000E+00  0.00000000000E+00  0.35387559707E+03  0.35387559707E+03  0.00000000000E+00 0. -1.
         21   -1    0    0  502  503 -0.00000000000E+00 -0.00000000000E+00 -0.55629708626E+03  0.55629708626E+03  0.00000000000E+00 0. -1.
         -6    2    1    2    0  503  0.29251389401E+03  0.32972909913E+02 -0.39288144518E+03  0.51997378718E+03  0.17136311859E+03 0.  0.
        -24    2    3    3    0    0  0.58476610204E+02  0.19350175242E+02 -0.79303921105E+02  0.12842304626E+03  0.80058876367E+02 0.  0.
          6    2    1    2  501    0 -0.29251389401E+03 -0.32972909913E+02  0.19045995599E+03  0.39019889615E+03  0.17125592762E+03 0.  0.
         24    2    5    5    0    0 -0.29642013683E+03 -0.89480968614E+01  0.19665028367E+03  0.36464776053E+03  0.79697485735E+02 0.  0.
          5    1    5    5  501    0  0.39062428191E+01 -0.24024813051E+02 -0.61903276812E+01  0.25551135629E+02  0.47000000000E+01 0. -1.
        -13    1    6    6    0    0 -0.76964525404E+02 -0.34005145808E+02  0.35983984425E+02  0.91513579578E+02  0.00000000000E+00 0.  1.
         14    1    6    6    0    0 -0.21945561142E+03  0.25057048947E+02  0.16066629925E+03  0.27313418095E+03  0.00000000000E+00 0. -1.
         -5    1    3    3    0  503  0.23403728380E+03  0.13622734671E+02 -0.31357752407E+03  0.39155074092E+03  0.47000000000E+01 0.  1.
         13    1    4    4    0    0  0.48022206892E+02  0.17501312245E+02 -0.95929789292E+02  0.10869660877E+03  0.00000000000E+00 0. -1.
        -14    1    4    4    0    0  0.10454403312E+02  0.18488629970E+01  0.16625868187E+02  0.19726437488E+02  0.00000000000E+00 0.  1.
</event>
<event>
12    1  0.8356052E-002  0.1873102E+03  0.7818608E-02  0.1160956E+00
         21   -1    0    0  501  502  0.00000000000E+00  0.00000000000E+00  0.75329172011E+03  0.75329172011E+03  0.00000000000E+00 0. -1.
         21   -1    0    0  502  503 -0.00000000000E+00 -0.00000000000E+00 -0.74276792748E+02  0.74276792748E+02  0.00000000000E+00 0. -1.
         -6    2    1    2    0  503 -0.68287677935E+02  0.28748762510E+02  0.86471970670E+02  0.20612481353E+03  0.17181483853E+03 0.  0.
        -24    2    3    3    0    0 -0.28808340067E+02 -0.29917616032E+02  0.99094243336E+02  0.13414027452E+03  0.80305416873E+02 0.  0.
          6    2    1    2  501    0  0.68287677935E+02 -0.28748762510E+02  0.59254295669E+03  0.62144369933E+03  0.17203318751E+03 0.  0.
         24    2    5    5    0    0  0.10099826765E+03  0.10709793920E+02  0.49378241618E+03  0.51007631309E+03  0.77726577774E+02 0.  0.
          5    1    5    5  501    0 -0.32710589715E+02 -0.39458556430E+02  0.98760540512E+02  0.11136738624E+03  0.47000000000E+01 0. -1.
        -11    1    6    6    0    0  0.57083799803E+02  0.28263329724E+02  0.14870377433E+03  0.16177202635E+03  0.00000000000E+00 0.  1.
         12    1    6    6    0    0  0.43914467848E+02 -0.17553535804E+02  0.34507864184E+03  0.34830428674E+03  0.00000000000E+00 0. -1.
         -5    1    3    3    0  503 -0.39479337869E+02  0.58666378542E+02 -0.12622272665E+02  0.71984539014E+02  0.47000000000E+01 0.  1.
         11    1    4    4    0    0  0.26130071458E+02 -0.21628141086E+02  0.28494527100E+02  0.44300058644E+02  0.00000000000E+00 0. -1.
        -12    1    4    4    0    0 -0.54938411525E+02 -0.82894749458E+01  0.70599716236E+02  0.89840215874E+02  0.00000000000E+00 0.  1.
</event>
<event>
12    1  0.8356052E-002  0.2503013E+03  0.7818608E-02  0.1113431E+00
         21   -1    0    0  501  502  0.00000000000E+00  0.00000000000E+00  0.19587112923E+04  0.19587112923E+04  0.00000000000E+00 0.  1.
         21   -1    0    0  502  503 -0.00000000000E+00 -0.00000000000E+00 -0.14265722653E+03  0.14265722653E+03  0.00000000000E+00 0. -1.
         -6    2    1    2    0  503  0.32209037609E+02 -0.17632135065E+03 -0.19275091635E+02  0.24905001622E+03  0.17183637747E+03 0.  0.
        -24    2    3    3    0    0 -0.20069515082E+02 -0.16196851572E+03 -0.47455723616E+02  0.18776960368E+03  0.79804716924E+02 0.  0.
          6    2    1    2  501    0 -0.32209037609E+02  0.17632135065E+03  0.18353291574E+04  0.18523185026E+04  0.17471141425E+03 0.  0.
         24    2    5    5    0    0  0.51635182814E+01  0.15157688101E+02  0.60188777668E+03  0.60782255494E+03  0.83204237576E+02 0.  0.
          5    1    5    5  501    0 -0.37372555891E+02  0.16116366255E+03  0.12334413807E+04  0.12444959476E+04  0.47000000000E+01 0. -1.
        -11    1    6    6    0    0 -0.28207710867E+02 -0.10112004059E+01  0.46926686012E+03  0.47011496837E+03  0.00000000000E+00 0.  1.
         12    1    6    6    0    0  0.33371229149E+02  0.16168888507E+02  0.13262091656E+03  0.13770758657E+03  0.00000000000E+00 0. -1.
         -5    1    3    3    0  503  0.52278552692E+02 -0.14352834932E+02  0.28180631981E+02  0.61280412539E+02  0.47000000000E+01 0.  1.
         13    1    4    4    0    0  0.29563960749E+02 -0.78586311738E+02 -0.13967690036E+02  0.85117169435E+02  0.00000000000E+00 0. -1.
        -14    1    4    4    0    0 -0.49633475831E+02 -0.83382203978E+02 -0.33488033579E+02  0.10265243424E+03  0.00000000000E+00 0.  1.
</event>
<event>
12    1  0.8356052E-002  0.1718524E+03  0.7818608E-02  0.1176040E+00
         21   -1    0    0  503  502  0.00000000000E+00  0.00000000000E+00  0.26184200418E+03  0.26184200418E+03  0.00000000000E+00 0.  1.
         21   -1    0    0  501  503 -0.00000000000E+00 -0.00000000000E+00 -0.18544155955E+03  0.18544155955E+03  0.00000000000E+00 0.  1.
          6    2    1    2  501    0  0.52150460968E+01 -0.99092994564E+01 -0.10207996830E+03  0.19951653190E+03  0.17105886604E+03 0.  0.
         24    2    3    3    0    0  0.11174456224E+02 -0.68910077961E+02 -0.38993816181E+02  0.11280690716E+03  0.79570178371E+02 0.  0.
         -6    2    1    2    0  502 -0.52150460968E+01  0.99092994564E+01  0.17848041293E+03  0.24776703183E+03  0.17148718127E+03 0.  0.
        -24    2    5    5    0    0 -0.38638198835E+02 -0.50062745158E+02  0.10356999477E+03  0.14604479226E+03  0.81259760447E+02 0.  0.
          5    1    3    3  501    0 -0.59594101277E+01  0.59000778504E+02 -0.63086152115E+02  0.86709624736E+02  0.47000000000E+01 0. -1.
        -13    1    4    4    0    0 -0.31440408769E+02 -0.23842068260E+02  0.15775546907E+00  0.39458439012E+02  0.00000000000E+00 0.  1.
         14    1    4    4    0    0  0.42614864994E+02 -0.45068009701E+02 -0.39151571650E+02  0.73348468147E+02  0.00000000000E+00 0. -1.
         -5    1    5    5    0  502  0.33423152738E+02  0.59972044615E+02  0.74910418152E+02  0.10172223956E+03  0.47000000000E+01 0.  1.
         11    1    6    6    0    0 -0.46067016323E+02 -0.33721617779E+02  0.19882096963E+02  0.60453414116E+02  0.00000000000E+00 0. -1.
        -12    1    6    6    0    0  0.74288174879E+01 -0.16341127379E+02  0.83687897811E+02  0.85591378148E+02  0.00000000000E+00 0.  1.
</event>
<event>
12    1  0.8356052E-002  0.3215207E+03  0.7818608E-02  0.1074955E+00
         21   -1    0    0  503  502  0.00000000000E+00  0.00000000000E+00  0.24177238013E+03  0.24177238013E+03  0.00000000000E+00 0.  1.
         21   -1    0    0  501  503 -0.00000000000E+00 -0.00000000000E+00 -0.68463170404E+03  0.68463170404E+03  0.00000000000E+00 0. -1.
          6    2    1    2  501    0 -0.18928949513E+03 -0.19491685941E+03 -0.50528909688E+03  0.59890955817E+03  0.17190838371E+03 0.  0.
         24    2    3    3    0    0 -0.17983396521E+03 -0.10784138185E+03 -0.29111924014E+03  0.36747411711E+03  0.79478274319E+02 0.  0.
         -6    2    1    2    0  502  0.18928949513E+03  0.19491685941E+03  0.62429772966E+02  0.32749452600E+03  0.17184904119E+03 0.  0.
        -24    2    5    5    0    0  0.10598468319E+03  0.97730126867E+02  0.10096086851E+03  0.19373471141E+03  0.80969813306E+02 0.  0.
          5    1    3    3  501    0 -0.94555299227E+01 -0.87075477563E+02 -0.21416985675E+03  0.23143544106E+03  0.47000000000E+01 0. -1.
        -11    1    4    4    0    0 -0.79961651860E+02 -0.13477287417E+02 -0.14998496205E+03  0.17050217560E+03  0.00000000000E+00 0.  1.
         12    1    4    4    0    0 -0.99872313352E+02 -0.94364094429E+02 -0.14113427809E+03  0.19697194151E+03  0.00000000000E+00 0. -1.
         -5    1    5    5    0  502  0.83304811944E+02  0.97186732542E+02 -0.38531095542E+02  0.13375981459E+03  0.47000000000E+01 0.  1.
         13    1    6    6    0    0  0.39328614575E+02  0.75415518801E+02  0.21668160488E+02  0.87771006485E+02  0.00000000000E+00 0. -1.
        -14    1    6    6    0    0  0.66656068615E+02  0.22314608066E+02  0.79292708020E+02  0.10596370493E+03  0.00000000000E+00 0.  1.
</event>
<event>
12    1  0.8356052E-002  0.2163425E+03  0.7818608E-02  0.1136807E+00
         21   -1    0    0  501  502  0.00000000000E+00  0.00000000000E+00  0.21040790679E+03  0.21040790679E+03  0.00000000000E+00 0.  1.
         21   -1    0    0  502  503 -0.00000000000E+00 -0.00000000000E+00 -0.23727987420E+03  0.23727987420E+03  0.00000000000E+00 0. -1.
         -6    2    1    2    0  503  0.10802497488E+03 -0.73346463456E+02 -0.71111488343E+02  0.22772993038E+03  0.17249631450E+03 0.  0.
        -24    2    3    3    0    0  0.11865798786E+03 -0.88856787964E+02 -0.98327327797E+02  0.19431701299E+03  0.78202246102E+02 0.  0.
          6    2    1    2  501    0 -0.10802497488E+03  0.73346463456E+02  0.44239520932E+02  0.21995785060E+03  0.17139201245E+03 0.  0.
         24    2    5    5    0    0 -0.53770704186E+02  0.30827516933E+02 -0.42413240352E+02  0.10913286362E+03  0.79180013484E+02 0.  0.
          5    1    5    5  501    0 -0.54254270697E+02  0.42518946523E+02  0.86652761285E+02  0.11082498699E+03  0.47000000000E+01 0. -1.
        -13    1    6    6    0    0 -0.16741827868E+02 -0.24070944048E+02  0.20161181926E+01  0.29389860161E+02  0.00000000000E+00 0.  1.
         14    1    6    6    0    0 -0.37028876318E+02  0.54898460981E+02 -0.44429358545E+02  0.79743003456E+02  0.00000000000E+00 0. -1.
         -5    1    3    3    0  503 -0.10633012977E+02  0.15510324508E+02  0.27215839454E+02  0.33412917390E+02  0.47000000000E+01 0.  1.
         13    1    4    4    0    0  0.23663949954E+02 -0.41408603052E+02 -0.69496765694E+02  0.84287931378E+02  0.00000000000E+00 0. -1.
        -14    1    4    4    0    0  0.94994037905E+02 -0.47448184912E+02 -0.28830562103E+02  0.11002908161E+03  0.00000000000E+00 0.  1.
</event>
<event>
12    1  0.8356052E-002  0.2075325E+03  0.7818608E-02  0.1143609E+00
         21   -1    0    0  501  502  0.00000000000E+00  0.00000000000E+00  0.11321432275E+03  0.11321432275E+03  0.00000000000E+00 0. -1.
         21   -1    0    0  502  503 -0.00000000000E+00 -0.00000000000E+00 -0.43479579541E+03  0.43479579541E+03  0.00000000000E+00 0. -1.
         -6    2    1    2    0  503  0.48765159101E+02  0.10790270944E+03 -0.25815784649E+03  0.33100252488E+03  0.16998871235E+03 0.  0.
        -24    2    3    3    0    0  0.97669429655E+02  0.63682781115E+02 -0.18394500770E+03  0.23162111223E+03  0.78852772129E+02 0.  0.
          6    2    1    2  501    0 -0.48765159101E+02 -0.10790270944E+03 -0.63423626166E+02  0.21700759328E+03  0.17043680277E+03 0.  0.
         24    2    5    5    0    0 -0.31080833392E+02 -0.24728831572E+02 -0.91028070861E+02  0.12748259843E+03  0.79926027693E+02 0.  0.
          5    1    5    5  501    0 -0.17684325709E+02 -0.83173877869E+02  0.27604444695E+02  0.89524994848E+02  0.47000000000E+01 0. -1.
        -13    1    6    6    0    0 -0.22500921857E+02  0.25973902087E+02 -0.54410234391E+02  0.64353777515E+02  0.00000000000E+00 0.  1.
         14    1    6    6    0    0 -0.85799115351E+01 -0.50702733659E+02 -0.36617836470E+02  0.63128820916E+02  0.00000000000E+00 0. -1.
         -5    1    3    3    0  503 -0.48904270554E+02  0.44219928326E+02 -0.74212838793E+02  0.99381412655E+02  0.47000000000E+01 0.  1.
         13    1    4    4    0    0  0.49709651440E+02  0.68630695169E+02 -0.15123332102E+03  0.17335725872E+03  0.00000000000E+00 0. -1.
        -14    1    4    4    0    0  0.47959778215E+02 -0.49479140536E+01 -0.32711686685E+02  0.58263853509E+02  0.00000000000E+00 0.  1.
</event>
<event>
12    1  0.8356052E-002  0.3170150E+03  0.7818608E-02  0.1077066E+00
         21   -1    0    0  503  502  0.00000000000E+00  0.00000000000E+00  0.31113509873E+03  0.31113509873E+03  0.00000000000E+00 0.  1.
         21   -1    0    0  501  503 -0.00000000000E+00 -0.00000000000E+00 -0.95610514317E+03  0.95610514317E+03  0.00000000000E+00 0. -1.
          6    2    1    2  501    0  0.41650000245E+02 -0.26282797823E+03 -0.83825912166E+03  0.89620136756E+03  0.17229413079E+03 0.  0.
         24    2    3    3    0    0 -0.52252718608E+01 -0.25005799856E+03 -0.62644685819E+03  0.67883787367E+03  0.76347144618E+02 0.  0.
         -6    2    1    2    0  502 -0.41650000245E+02  0.26282797823E+03  0.19328907723E+03  0.37103887434E+03  0.17174373421E+03 0.  0.
        -24    2    5    5    0    0  0.26091980621E+02  0.60831260650E+02  0.62681037859E+02  0.12109448087E+03  0.79710269502E+02 0.  0.
          5    1    3    3  501    0  0.46875272106E+02 -0.12769979671E+02 -0.21181226348E+03  0.21736349389E+03  0.47000000000E+01 0. -1.
        -13    1    4    4    0    0 -0.22610344412E+02 -0.70723504254E+02 -0.11805983957E+03  0.13946744225E+03  0.00000000000E+00 0.  1.
         14    1    4    4    0    0  0.17385072552E+02 -0.17933449430E+03 -0.50838701862E+03  0.53937043142E+03  0.00000000000E+00 0. -1.
         -5    1    5    5    0  502 -0.67741980866E+02  0.20199671758E+03  0.13060803937E+03  0.24994439348E+03  0.47000000000E+01 0.  1.
         13    1    6    6    0    0  0.26352281473E+02 -0.13138358048E+02  0.21239292306E+02  0.36306565917E+02  0.00000000000E+00 0. -1.
        -14    1    6    6    0    0 -0.26030085168E+00  0.73969618698E+02  0.41441745553E+02  0.84787914949E+02  0.00000000000E+00 0.  1.
</event>
<event>
12    1  0.8356052E-002  0.2103043E+03  0.7818608E-02  0.1141444E+00
         21   -1    0    0  503  502  0.00000000000E+00  0.00000000000E+00  0.21653128448E+03  0.21653128448E+03  0.00000000000E+00 0. -1.
         21   -1    0    0  501  503 -0.00000000000E+00 -0.00000000000E+00 -0.20606200228E+03  0.20606200228E+03  0.00000000000E+00 0.  1.
          6    2    1    2  501    0 -0.62684161994E+02  0.10312828911E+03  0.27983002766E+02  0.21156101169E+03  0.17149421286E+03 0.  0.
         24    2    3    3    0    0  0.31946011614E+02  0.18171327916E+02  0.57659049706E+01  0.82378023467E+02  0.73499307983E+02 0.  0.
         -6    2    1    2    0  502  0.62684161994E+02 -0.10312828911E+03 -0.17513720563E+02  0.21103227506E+03  0.17222991183E+03 0.  0.
        -24    2    5    5    0    0  0.10179529712E+03 -0.10514424088E+03  0.37163785031E+01  0.16623772117E+03  0.78762773981E+02 0.  0.
          5    1    3    3  501    0 -0.94630173608E+02  0.84956961193E+02  0.22217097795E+02  0.12918298822E+03  0.47000000000E+01 0. -1.
        -13    1    4    4    0    0 -0.23103855493E+02  0.79082488746E+01  0.96217943403E+01  0.26247046790E+02  0.00000000000E+00 0.  1.
         14    1    4    4    0    0  0.55049867107E+02  0.10263079041E+02 -0.38558893697E+01  0.56130976677E+02  0.00000000000E+00 0. -1.
         -5    1    5    5    0  502 -0.39111135123E+02  0.20159517697E+01 -0.21230099066E+02  0.44794553893E+02  0.47000000000E+01 0.  1.
         11    1    6    6    0    0  0.95599744553E+02 -0.54653632162E+02  0.21786779683E+02  0.11225415109E+03  0.00000000000E+00 0. -1.
        -12    1    6    6    0    0  0.61955525649E+01 -0.50490608716E+02 -0.18070401180E+02  0.53983570083E+02  0.00000000000E+00 0.  1.
</event>
<event>
12    1  0.8356052E-002  0.1880252E+03  0.7818608E-02  0.1160516E+00
         21   -1    0    0  503  502  0.00000000000E+00  0.00000000000E+00  0.28612248554E+03  0.28612248554E+03  0.00000000000E+00 0. -1.
         21   -1    0    0  501  503 -0.00000000000E+00 -0.00000000000E+00 -0.14411411278E+03  0.14411411278E+03  0.00000000000E+00 0.  1.
          6    2    1    2  501    0  0.58444486343E+02  0.44957426294E+02  0.15389016258E+03  0.24297253297E+03  0.17296398895E+03 0.  0.
         24    2    3    3    0    0  0.42601107750E+02  0.26154910266E+02  0.18282373963E+03  0.20471303565E+03  0.77356147022E+02 0.  0.
         -6    2    1    2    0  502 -0.58444486343E+02 -0.44957426294E+02 -0.11881789826E+02  0.18726406535E+03  0.17172572632E+03 0.  0.
        -24    2    5    5    0    0  0.96139627843E+01 -0.77546676152E+02 -0.23588232370E+02  0.11075823223E+03  0.74866988974E+02 0.  0.
          5    1    3    3  501    0  0.15843378593E+02  0.18802516027E+02 -0.28933577043E+02  0.38259497314E+02  0.47000000000E+01 0. -1.
        -13    1    4    4    0    0  0.48944645280E+02 -0.78832824109E+01  0.64045022826E+02  0.80990674722E+02  0.00000000000E+00 0.  1.
         14    1    4    4    0    0 -0.63435375302E+01  0.34038192677E+02  0.11877871680E+03  0.12372236093E+03  0.00000000000E+00 0. -1.
         -5    1    5    5    0  502 -0.68058449127E+02  0.32589249859E+02  0.11706442544E+02  0.76505833117E+02  0.47000000000E+01 0.  1.
         11    1    6    6    0    0 -0.22807771696E+02 -0.60136592900E+02 -0.33676922480E+02  0.72599857872E+02  0.00000000000E+00 0. -1.
        -12    1    6    6    0    0  0.32421734481E+02 -0.17410083252E+02  0.10088690110E+02  0.38158374359E+02  0.00000000000E+00 0.  1.
</event>
<event>
12    1  0.8356052E-002  0.2025208E+03  0.7818608E-02  0.1148200E+00
         21   -1    0    0  503  502  0.00000000000E+00  0.00000000000E+00  0.17093373457E+03  0.17093373457E+03  0.00000000000E+00 0.  1.
         21   -1    0    0  501  503 -0.00000000000E+00 -0.00000000000E+00 -0.31334200950E+03  0.31334200950E+03  0.00000000000E+00 0.  1.
          6    2    1    2  501    0  0.87329565352E+02 -0.60383092439E+02 -0.19130113628E+03  0.27858716568E+03  0.17245901921E+03 0.  0.
         24    2    3    3    0    0  0.10223061111E+03 -0.86645783952E+02 -0.10712342114E+03  0.18903412076E+03  0.79371794286E+02 0.  0.
         -6    2    1    2    0  502 -0.87329565352E+02  0.60383092439E+02  0.48892861340E+02  0.20568857839E+03  0.16924747724E+03 0.  0.
        -24    2    5    5    0    0 -0.79522082217E+00  0.66963794082E+02  0.54794602134E+02  0.11857704665E+03  0.81075800797E+02 0.  0.
          5    1    3    3  501    0 -0.14901045759E+02  0.26262691513E+02 -0.84177715135E+02  0.89553044927E+02  0.47000000000E+01 0. -1.
        -13    1    4    4    0    0  0.10032264567E+03 -0.44790065585E+02 -0.57223211680E+02  0.12387606372E+03  0.00000000000E+00 0.  1.
         14    1    4    4    0    0  0.19079654464E+01 -0.41855718367E+02 -0.49900209462E+02  0.65158057034E+02  0.00000000000E+00 0. -1.
         -5    1    5    5    0  502 -0.86534344530E+02 -0.65807016431E+01 -0.59017407935E+01  0.87111531738E+02  0.47000000000E+01 0.  1.
         13    1    6    6    0    0  0.32712903104E+02  0.22449333882E+02 -0.10533475039E+01  0.39688992960E+02  0.00000000000E+00 0. -1.
        -14    1    6    6    0    0 -0.33508123926E+02  0.44514460200E+02  0.55847949638E+02  0.78888053688E+02  0.00000000000E+00 0.  1.
</event>
<event>
12    1  0.8356052E-002  0.2228411E+03  0.7818608E-02  0.1131953E+00
         21   -1    0    0  503  502  0.00000000000E+00  0.00000000000E+00  0.36089132852E+03  0.36089132852E+03  0.00000000000E+00 0. -1.
         21   -1    0    0  501  503 -0.00000000000E+00 -0.00000000000E+00 -0.36628110573E+03  0.36628110573E+03  0.00000000000E+00 0.  1.
          6    2    1    2  501    0  0.18156939305E+02  0.14067017569E+03 -0.29033994367E+03  0.36543394680E+03  0.17066608863E+03 0.  0.
         24    2    3    3    0    0  0.51552099225E+02  0.78535258721E+02 -0.26146967740E+03  0.28906925019E+03  0.79807477164E+02 0.  0.
         -6    2    1    2    0  502 -0.18156939305E+02 -0.14067017569E+03  0.28495016645E+03  0.36173848745E+03  0.17187310193E+03 0.  0.
        -24    2    5    5    0    0 -0.41563447499E+02 -0.13384366636E+03  0.29400894312E+03  0.33530711801E+03  0.79674070863E+02 0.  0.
          5    1    3    3  501    0 -0.33395159921E+02  0.62134916969E+02 -0.28870266268E+02  0.76364696603E+02  0.47000000000E+01 0. -1.
        -11    1    4    4    0    0  0.39381790866E+02 -0.22040888093E+01 -0.61380098664E+02  0.72960948262E+02  0.00000000000E+00 0.  1.
         12    1    4    4    0    0  0.12170308359E+02  0.80739347530E+02 -0.20008957874E+03  0.21610830193E+03  0.00000000000E+00 0. -1.
         -5    1    5    5    0  502  0.23406508194E+02 -0.68265093341E+01 -0.90587766621E+01  0.26431369434E+02  0.47000000000E+01 0.  1.
         11    1    6    6    0    0 -0.48359049042E+01 -0.89985279692E+02  0.10777642860E+03  0.14048663673E+03  0.00000000000E+00 0. -1.
        -12    1    6    6    0    0 -0.36727542595E+02 -0.43858386664E+02  0.18623251452E+03  0.19482048129E+03  0.00000000000E+00 0.  1.
</event>
<event>
12    1  0.8356052E-002  0.2004356E+03  0.7818608E-02  0.1149825E+00
         21   -1    0    0  503  502  0.00000000000E+00  0.00000000000E+00  0.38425780575E+03  0.38425780575E+03  0.00000000000E+00 0. -1.
         21   -1    0    0  501  503 -0.00000000000E+00 -0.00000000000E+00 -0.10346429063E+03  0.10346429063E+03  0.00000000000E+00 0.  1.
          6    2    1    2  501    0  0.21328823389E+02  0.98548245923E+02  0.13715924466E+03  0.24287260527E+03  0.17322750507E+03 0.  0.
         24    2    3    3    0    0  0.33584255283E+02 -0.11918960246E+02  0.49838351469E+02  0.10145044422E+03  0.80860172756E+02 0.  0.
         -6    2    1    2    0  502 -0.21328823389E+02 -0.98548245923E+02  0.14363427046E+03  0.24484949111E+03  0.17074482178E+03 0.  0.
        -24    2    5    5    0    0 -0.21274778335E+02 -0.64635268935E+02  0.17063380028E+03  0.20124722581E+03  0.82184049035E+02 0.  0.
          5    1    3    3  501    0 -0.12255431894E+02  0.11046720617E+03  0.87320893190E+02  0.14142216105E+03  0.47000000000E+01 0. -1.
        -13    1    4    4    0    0 -0.13939316063E+02  0.22722954852E+01 -0.14481996295E+02  0.20228595497E+02  0.00000000000E+00 0.  1.
         14    1    4    4    0    0  0.47523571347E+02 -0.14191255732E+02  0.64320347764E+02  0.81221848719E+02  0.00000000000E+00 0. -1.
         -5    1    5    5    0  502 -0.54045054307E-01 -0.33912976988E+02 -0.26999529816E+02  0.43602265300E+02  0.47000000000E+01 0.  1.
         11    1    6    6    0    0  0.11508667447E+01 -0.32937211593E+02  0.15648969629E+03  0.15992251076E+03  0.00000000000E+00 0. -1.
        -12    1    6    6    0    0 -0.22425645080E+02 -0.31698057343E+02  0.14144103985E+02  0.41324715052E+02  0.00000000000E+00 0.  1.
</event>
<event>
12    1  0.8356052E-002  0.2552191E+03  0.7818608E-02  0.1110118E+00
         21   -1    0    0  501  502  0.00000000000E+00  0.00000000000E+00  0.11094746041E+03  0.11094746041E+03  0.00000000000E+00 0.  1.
         21   -1    0    0  502  503 -0.00000000000E+00 -0.00000000000E+00 -0.65801634725E+03  0.65801634725E+03  0.00000000000E+00 0.  1.
         -6    2    1    2    0  503 -0.13319521662E+03 -0.13181519734E+03 -0.14620233525E+03  0.29374723196E+03  0.17261547286E+03 0.  0.
        -24    2    3    3    0    0 -0.10360150235E+03 -0.24552343165E+02 -0.11654256425E+03  0.17849576851E+03  0.83321553338E+02 0.  0.
          6    2    1    2  501    0  0.13319521662E+03  0.13181519734E+03 -0.40086655159E+03  0.47521657570E+03  0.17326450780E+03 0.  0.
         24    2    5    5    0    0  0.11003345483E+03  0.19604015985E+02 -0.18351035729E+03  0.22946543811E+03  0.80539787868E+02 0.  0.
          5    1    5    5  501    0  0.23161761792E+02  0.11221118136E+03 -0.21735619429E+03  0.24575113759E+03  0.47000000000E+01 0. -1.
        -11    1    6    6    0    0  0.23839117104E+02  0.31644667733E+02 -0.20339345610E+02  0.44535126362E+02  0.00000000000E+00 0.  1.
         12    1    6    6    0    0  0.86194337723E+02 -0.12040651747E+02 -0.16317101168E+03  0.18493031175E+03  0.00000000000E+00 0. -1.
         -5    1    3    3    0  503 -0.29593714269E+02 -0.10726285418E+03 -0.29659771002E+02  0.11525146345E+03  0.47000000000E+01 0.  1.
         11    1    4    4    0    0 -0.25735479319E+02  0.22917518329E+02 -0.56491115618E+01  0.34920481148E+02  0.00000000000E+00 0. -1.
        -12    1    4    4    0    0 -0.77866023031E+02 -0.47469861493E+02 -0.11089345268E+03  0.14357528736E+03  0.00000000000E+00 0.  1.
</event>
<event>
12    1  0.8356052E-002  0.2241673E+03  0.7818608E-02  0.1131035E+00
         21   -1    0    0  503  502  0.00000000000E+00  0.00000000000E+00  0.21861070882E+03  0.21861070882E+03  0.00000000000E+00 0.  1.
         21   -1    0    0  501  503 -0.00000000000E+00 -0.00000000000E+00 -0.23001416490E+03  0.23001416490E+03  0.00000000000E+00 0.  1.
          6    2    1    2  501    0  0.13204190749E+03 -0.57120092861E+02  0.11712244795E+02  0.22447306312E+03  0.17191046812E+03 0.  0.
         24    2    3    3    0    0  0.90705396798E+02 -0.11383168903E+02 -0.54082683751E+02  0.13418665246E+03  0.82000460200E+02 0.  0.
         -6    2    1    2    0  502 -0.13204190749E+03  0.57120092861E+02 -0.23115700873E+02  0.22415181060E+03  0.17032888255E+03 0.  0.
        -24    2    5    5    0    0 -0.82739779411E+02 -0.28929423739E+02 -0.39193961711E+02  0.12357437968E+03  0.77792531927E+02 0.  0.
          5    1    3    3  501    0  0.41336510689E+02 -0.45736923958E+02  0.65794928546E+02  0.90286410669E+02  0.47000000000E+01 0. -1.
        -13    1    4    4    0    0  0.74766379813E+02 -0.40719681150E+02 -0.22110722839E+02  0.87960150340E+02  0.00000000000E+00 0.  1.
         14    1    4    4    0    0  0.15939016984E+02  0.29336512247E+02 -0.31971960912E+02  0.46226502115E+02  0.00000000000E+00 0. -1.
         -5    1    5    5    0  502 -0.49302128075E+02  0.86049516600E+02  0.16078260838E+02  0.10057743092E+03  0.47000000000E+01 0.  1.
         13    1    6    6    0    0 -0.28741895631E+02  0.18115997723E+00 -0.53365732549E+02  0.60613783861E+02  0.00000000000E+00 0. -1.
        -14    1    6    6    0    0 -0.53997883781E+02 -0.29110583717E+02  0.14171770839E+02  0.62960595819E+02  0.00000000000E+00 0.  1.
</event>
<event>
12    1  0.8356052E-002  0.2108261E+03  0.7818608E-02  0.1141132E+00
         21   -1    0    0  501  502  0.00000000000E+00  0.00000000000E+00  0.57941196761E+03  0.57941196761E+03  0.00000000000E+00 0.  1.
         21   -1    0    0  502  503 -0.00000000000E+00 -0.00000000000E+00 -0.82697041669E+02  0.82697041669E+02  0.00000000000E+00 0.  1.
         -6    2    1    2    0  503  0.88337533720E+02 -0.80164683695E+02  0.15574793202E+03  0.26122728795E+03  0.17248878591E+03 0.  0.
        -24    2    3    3    0    0  0.10275154323E+03 -0.24273797214E+02  0.15456274418E+03  0.20330449855E+03  0.79347214027E+02 0.  0.
          6    2    1    2  501    0 -0.88337533720E+02  0.80164683695E+02  0.34096699392E+03  0.40088172133E+03  0.17383258377E+03 0.  0.
         24    2    5    5    0    0 -0.10276932378E+03  0.28908326921E+02  0.14658047141E+03  0.19927889197E+03  0.82637866085E+02 0.  0.
          5    1    5    5  501    0  0.14431790057E+02  0.51256356774E+02  0.19438652250E+03  0.20160282936E+03  0.47000000000E+01 0. -1.
        -13    1    6    6    0    0 -0.72269859860E+02  0.29008341576E+02  0.14957458004E+03  0.16863265259E+03  0.00000000000E+00 0.  1.
         14    1    6    6    0    0 -0.30499463917E+02 -0.10001465463E+00 -0.29941086217E+01  0.30646239388E+02  0.00000000000E+00 0. -1.
         -5    1    3    3    0  503 -0.14414009507E+02 -0.55890886482E+02  0.11851878424E+01  0.57922789401E+02  0.47000000000E+01 0.  1.
         11    1    4    4    0    0  0.53975513853E+02 -0.48568307049E+02  0.11484832325E+03  0.13587631839E+03  0.00000000000E+00 0. -1.
        -12    1    4    4    0    0  0.48776029374E+02  0.24294509836E+02  0.39714420932E+02  0.67428180159E+02  0.00000000000E+00 0.  1.
</event>
<event>
12    1  0.8356052E-002  0.2271072E+03  0.7818608E-02  0.1132002E+00
         21   -1    0    0  501  502  0.00000000000E+00  0.00000000000E+00  0.92921423464E+03  0.92921423464E+03  0.00000000000E+00 0. -1.
         21   -1    0    0  502  503 -0.00000000000E+00 -0.00000000000E+00 -0.73414579764E+02  0.73414579764E+02  0.00000000000E+00 0. -1.
         -6    2    1    2    0  503  0.76913321866E+02  0.91638697843E+02  0.71525914896E+03  0.75044876437E+03  0.19303986055E+03 0.  0.
        -24    2    3    3    0    0  0.36384334889E+02  0.40766140660E+02  0.65374599227E+03  0.66080182184E+03  0.79306540015E+02 0.  0.
          6    2    1    2  501    0 -0.76913321866E+02 -0.91638697843E+02  0.14054050592E+03  0.25218005003E+03  0.17184246800E+03 0.  0.
         24    2    5    5    0    0 -0.10352742713E+03 -0.76220203124E+02  0.49579877091E+02  0.15604490258E+03  0.73242063570E+02 0.  0.
          5    1    5    5  501    0  0.26614105265E+02 -0.15418494719E+02  0.90960628831E+02  0.96135147453E+02  0.47000000000E+01 0. -1.
        -13    1    6    6    0    0  0.62351714347E+01  0.41711000783E+01 -0.54616084333E+01  0.92792567246E+01  0.00000000000E+00 0.  1.
         14    1    6    6    0    0 -0.10976259857E+03 -0.80391303202E+02  0.55041485524E+02  0.14676564585E+03  0.00000000000E+00 0. -1.
         -5    1    3    3    0  503  0.40528986978E+02  0.50872557184E+02  0.61513156683E+02  0.89646942530E+02  0.47000000000E+01 0.  1.
         13    1    4    4    0    0  0.22919605347E+02  0.64733438342E+02  0.48288436981E+03  0.48774280205E+03  0.00000000000E+00 0. -1.
        -14    1    4    4    0    0  0.13464729542E+02 -0.23967297682E+02  0.17086162246E+03  0.17305901979E+03  0.00000000000E+00 0.  1.
</event>
<event>
12    1  0.8356052E-002  0.1933425E+03  0.7818608E-02  0.1155680E+00
         21   -1    0    0  501  502  0.00000000000E+00  0.00000000000E+00  0.39419239574E+03  0.39419239574E+03  0.00000000000E+00 0.  1.
         21   -1    0    0  502  503 -0.00000000000E+00 -0.00000000000E+00 -0.25667296165E+03  0.25667296165E+03  0.00000000000E+00 0.  1.
         -6    2    1    2    0  503 -0.17417039101E+02 -0.84849718412E+02 -0.18994915984E+03  0.27103873851E+03  0.17285394553E+03 0.  0.
        -24    2    3    3    0    0 -0.54392673851E+02 -0.66862521442E+01 -0.14694239185E+03  0.17435162915E+03  0.76178442674E+02 0.  0.
          6    2    1    2  501    0  0.17417039101E+02  0.84849718412E+02  0.32746859393E+03  0.37982661888E+03  0.17184223124E+03 0.  0.
         24    2    5    5    0    0  0.36450045783E+02  0.10905722241E+03  0.17303346156E+03  0.22228120098E+03  0.79033346716E+02 0.  0.
          5    1    5    5  501    0 -0.19033006682E+02 -0.24207503998E+02  0.15443513236E+03  0.15754541790E+03  0.47000000000E+01 0. -1.
        -13    1    6    6    0    0 -0.12704981722E+01  0.19101154068E+02  0.96267554382E+02  0.98152484834E+02  0.00000000000E+00 0.  1.
         14    1    6    6    0    0  0.37720543955E+02  0.89956068342E+02  0.76765907181E+02  0.12412871615E+03  0.00000000000E+00 0. -1.
         -5    1    3    3    0  503  0.36975634750E+02 -0.78163466268E+02 -0.43006767992E+02  0.96687109365E+02  0.47000000000E+01 0.  1.
         11    1    4    4    0    0  0.14043046559E+02  0.16419005016E+02 -0.32986210382E+02  0.39431978872E+02  0.00000000000E+00 0. -1.
        -12    1    4    4    0    0 -0.68435720410E+02 -0.23105257160E+02 -0.11395618147E+03  0.13491965028E+03  0.00000000000E+00 0.  1.
</event>
<event>
12    1  0.8356052E-002  0.1820304E+03  0.7818608E-02  0.1165904E+00
         21   -1    0    0  501  502  0.00000000000E+00  0.00000000000E+00  0.39913315469E+02  0.39913315469E+02  0.00000000000E+00 0. -1.
         21   -1    0    0  502  503 -0.00000000000E+00 -0.00000000000E+00 -0.18747371617E+04  0.18747371617E+04  0.00000000000E+00 0. -1.
         -6    2    1    2    0  503  0.44391005465E+02 -0.36640226777E+02 -0.16325743029E+04  0.16426910575E+04  0.17269044037E+03 0.  0.
        -24    2    3    3    0    0 -0.23194021996E+02  0.26061511934E+02 -0.98573341905E+03  0.98929648831E+03  0.76288946098E+02 0.  0.
          6    2    1    2  501    0 -0.44391005465E+02  0.36640226777E+02 -0.20224954332E+03  0.27195941970E+03  0.17246443287E+03 0.  0.
         24    2    5    5    0    0 -0.42602669441E+02 -0.28043814110E+02 -0.63712244528E+02  0.11898263568E+03  0.86580451242E+02 0.  0.
          5    1    5    5  501    0 -0.17883360237E+01  0.64684040887E+02 -0.13853729880E+03  0.15297678402E+03  0.47000000000E+01 0. -1.
        -11    1    6    6    0    0  0.13621419688E+02  0.15952627838E+02  0.30988477115E+01  0.21204534100E+02  0.00000000000E+00 0.  1.
         12    1    6    6    0    0 -0.56224089129E+02 -0.43996441948E+02 -0.66811092239E+02  0.97778101580E+02  0.00000000000E+00 0. -1.
         -5    1    3    3    0  503  0.67585027461E+02 -0.62701738711E+02 -0.64684088387E+03  0.65339456917E+03  0.47000000000E+01 0.  1.
         13    1    4    4    0    0  0.71596208602E+01  0.46501104497E+02 -0.51664782726E+03  0.51878568822E+03  0.00000000000E+00 0. -1.
        -14    1    4    4    0    0 -0.30353642856E+02 -0.20439592563E+02 -0.46908559179E+03  0.47051080009E+03  0.00000000000E+00 0.  1.
</event>
<event>
12    1  0.8356052E-002  0.2094095E+03  0.7818608E-02  0.1142388E+00
         21   -1    0    0  501  502  0.00000000000E+00  0.00000000000E+00  0.22735768477E+04  0.22735768477E+04  0.00000000000E+00 0. -1.
         21   -1    0    0  502  503 -0.00000000000E+00 -0.00000000000E+00 -0.44084581568E+02  0.44084581568E+02  0.00000000000E+00 0.  1.
         -6    2    1    2    0  503 -0.11663131508E+03  0.14440784267E+02  0.24484549472E+03  0.32218265427E+03  0.17332324287E+03 0.  0.
        -24    2    3    3    0    0 -0.33881237826E+02  0.56533382162E+02  0.18126924339E+03  0.20956208858E+03  0.81937590849E+02 0.  0.
          6    2    1    2  501    0  0.11663131508E+03 -0.14440784267E+02  0.19846467714E+04  0.19954787750E+04  0.17117632513E+03 0.  0.
         24    2    5    5    0    0  0.29711600645E+02  0.28934561627E+02  0.13897209370E+04  0.13926560018E+04  0.80289903787E+02 0.  0.
          5    1    5    5  501    0  0.86919714439E+02 -0.43375345894E+02  0.59492583438E+03  0.60282277313E+03  0.47000000000E+01 0. -1.
        -11    1    6    6    0    0 -0.27732664574E+02  0.61107847946E+01  0.47664045740E+03  0.47748567309E+03  0.00000000000E+00 0.  1.
         12    1    6    6    0    0  0.57444265219E+02  0.22823776832E+02  0.91308047959E+03  0.91517032874E+03  0.00000000000E+00 0. -1.
         -5    1    3    3    0  503 -0.82750077259E+02 -0.42092597895E+02  0.63576251329E+02  0.11262056569E+03  0.47000000000E+01 0.  1.
         11    1    4    4    0    0 -0.29735843994E+02  0.77852719267E+02  0.14001434682E+03  0.16293950912E+03  0.00000000000E+00 0. -1.
        -12    1    4    4    0    0 -0.41453938320E+01 -0.21319337105E+02  0.41254896569E+02  0.46622579460E+02  0.00000000000E+00 0.  1.
</event>
<event>
12    1  0.8356052E-002  0.1800112E+03  0.7818608E-02  0.1168017E+00
         21   -1    0    0  501  502  0.00000000000E+00  0.00000000000E+00  0.88807805459E+02  0.88807805459E+02  0.00000000000E+00 0. -1.
         21   -1    0    0  502  503 -0.00000000000E+00 -0.00000000000E+00 -0.49106640745E+03  0.49106640745E+03  0.00000000000E+00 0. -1.
         -6    2    1    2    0  503  0.36964529276E+02  0.32548095992E+02 -0.34957765134E+03  0.39320295725E+03  0.17314235848E+03 0.  0.
        -24    2    3    3    0    0  0.66914918203E+02 -0.11910359545E+02 -0.30389649347E+03  0.32261656869E+03  0.84314344624E+02 0.  0.
          6    2    1    2  501    0 -0.36964529276E+02 -0.32548095992E+02 -0.52680950652E+02  0.18667125566E+03  0.17217758318E+03 0.  0.
         24    2    5    5    0    0 -0.89797946934E+02 -0.94463076371E+01 -0.45567184389E+02  0.12838096215E+03  0.79072113594E+02 0.  0.
          5    1    5    5  501    0  0.52833417658E+02 -0.23101788355E+02 -0.71137662631E+01  0.58290293507E+02  0.47000000000E+01 0. -1.
        -13    1    6    6    0    0 -0.39203906649E+02 -0.16592442952E+02 -0.61555190632E+02  0.74841812868E+02  0.00000000000E+00 0.  1.
         14    1    6    6    0    0 -0.50594040285E+02  0.71461353144E+01  0.15988006243E+02  0.53539149283E+02  0.00000000000E+00 0. -1.
         -5    1    3    3    0  503 -0.29950388927E+02  0.44458455537E+02 -0.45681157872E+02  0.70586388561E+02  0.47000000000E+01 0.  1.
         13    1    4    4    0    0  0.86565633687E+02 -0.45866981090E+01 -0.22969478053E+03  0.24550832763E+03  0.00000000000E+00 0. -1.
        -14    1    4    4    0    0 -0.19650715485E+02 -0.73236614360E+01 -0.74201712938E+02  0.77108241057E+02  0.00000000000E+00 0.  1.
</event>
<event>
12    1  0.8356052E-002  0.2236154E+03  0.7818608E-02  0.1131334E+00
         21   -1    0    0  501  502  0.00000000000E+00  0.00000000000E+00  0.13636664695E+04  0.13636664695E+04  0.00000000000E+00 0. -1.
         21   -1    0    0  502  503 -0.00000000000E+00 -0.00000000000E+00 -0.40245036847E+02  0.40245036847E+02  0.00000000000E+00 0.  1.
         -6    2    1    2    0  503  0.14247037389E+03  0.92160560687E+01  0.87491073095E+03  0.90303522987E+03  0.17210780380E+03 0.  0.
        -24    2    3    3    0    0  0.11014446189E+03  0.70667781233E+02  0.65089327719E+03  0.66845648253E+03  0.77757783928E+02 0.  0.
          6    2    1    2  501    0 -0.14247037389E+03 -0.92160560687E+01  0.44851070171E+03  0.50087627648E+03  0.17126719380E+03 0.  0.
         24    2    5    5    0    0 -0.49499034993E+02  0.49448942434E+02  0.16098470694E+03  0.19301504220E+03  0.80270656375E+02 0.  0.
          5    1    5    5  501    0 -0.92971338895E+02 -0.58664998503E+02  0.28752599477E+03  0.30786123428E+03  0.47000000000E+01 0. -1.
        -11    1    6    6    0    0 -0.22050248692E+02  0.36588799212E+02  0.15667932278E+03  0.16239878042E+03  0.00000000000E+00 0.  1.
         12    1    6    6    0    0 -0.27448786300E+02  0.12860143223E+02  0.43053841658E+01  0.30616261788E+02  0.00000000000E+00 0. -1.
         -5    1    3    3    0  503  0.32325911995E+02 -0.61451725164E+02  0.22401745377E+03  0.23457874734E+03  0.47000000000E+01 0.  1.
         11    1    4    4    0    0  0.68710425522E+02  0.62224098195E+02  0.56679994208E+03  0.57433016229E+03  0.00000000000E+00 0. -1.
        -12    1    4    4    0    0  0.41434036371E+02  0.84436830378E+01  0.84093335106E+02  0.94126320243E+02  0.00000000000E+00 0.  1.
</event>
<event>
12    1  0.8356052E-002  0.1844903E+03  0.7818608E-02  0.1164632E+00
         21   -1    0    0  501  502  0.00000000000E+00  0.00000000000E+00  0.84642557440E+02  0.84642557440E+02  0.00000000000E+00 0. -1.
         21   -1    0    0  502  503 -0.00000000000E+00 -0.00000000000E+00 -0.45269632863E+03  0.45269632863E+03  0.00000000000E+00 0. -1.
         -6    2    1    2    0  503  0.44528214749E+02  0.13605661337E+02 -0.28032870217E+03  0.33305392812E+03  0.17370337316E+03 0.  0.
        -24    2    3    3    0    0  0.18483085759E+02 -0.53529825387E+02 -0.10312593065E+03  0.14172062063E+03  0.79010822511E+02 0.  0.
          6    2    1    2  501    0 -0.44528214749E+02 -0.13605661337E+02 -0.87725069026E+02  0.20428495795E+03  0.17851829145E+03 0.  0.
         24    2    5    5    0    0 -0.23005824203E+02 -0.53623815850E+02  0.85534974467E+01  0.97718929843E+02  0.77916913167E+02 0.  0.
          5    1    5    5  501    0 -0.21522390546E+02  0.40018154513E+02 -0.96278566473E+02  0.10656602811E+03  0.47000000000E+01 0. -1.
        -11    1    6    6    0    0  0.22310722479E+02 -0.83311666317E+01 -0.16448014404E+02  0.28943286835E+02  0.00000000000E+00 0.  1.
         12    1    6    6    0    0 -0.45316546681E+02 -0.45292649218E+02  0.25001511851E+02  0.68775643008E+02  0.00000000000E+00 0. -1.
         -5    1    3    3    0  503  0.26045128990E+02  0.67135486724E+02 -0.17720277152E+03  0.19133330749E+03  0.47000000000E+01 0.  1.
         11    1    4    4    0    0  0.40957726392E+02 -0.32601844100E+01 -0.33912930419E+02  0.53275238180E+02  0.00000000000E+00 0. -1.
        -12    1    4    4    0    0 -0.22474640633E+02 -0.50269640977E+02 -0.69213000231E+02  0.88445382449E+02  0.00000000000E+00 0.  1.
</event>
<event>
12    1  0.8356052E-002  0.2218537E+03  0.7818608E-02  0.1133685E+00
         21   -1    0    0  501  502  0.00000000000E+00  0.00000000000E+00  0.76799600526E+02  0.76799600526E+02  0.00000000000E+00 0.  1.
         21   -1    0    0  502  503 -0.00000000000E+00 -0.00000000000E+00 -0.68496147956E+03  0.68496147956E+03  0.00000000000E+00 0.  1.
         -6    2    1    2    0  503  0.77360441022E+02 -0.11623131471E+03 -0.41478770254E+03  0.46746084248E+03  0.16424507518E+03 0.  0.
        -24    2    3    3    0    0 -0.11893717396E+02 -0.47914329821E+02 -0.11835934890E+03  0.15040347534E+03  0.78581336243E+02 0.  0.
          6    2    1    2  501    0 -0.77360441022E+02  0.11623131471E+03 -0.19337417650E+03  0.29430023761E+03  0.17240853043E+03 0.  0.
         24    2    5    5    0    0 -0.10738849284E+03  0.12562414748E+03 -0.18000949027E+03  0.25979496205E+03  0.88183280118E+02 0.  0.
          5    1    5    5  501    0  0.30028051823E+02 -0.93928327687E+01 -0.13364686235E+02  0.34505275566E+02  0.47000000000E+01 0. -1.
        -11    1    6    6    0    0 -0.68781501069E+02  0.66225236834E+02 -0.15975433338E+03  0.18611320188E+03  0.00000000000E+00 0.  1.
         12    1    6    6    0    0 -0.38606991776E+02  0.59398910646E+02 -0.20255156892E+02  0.73681760162E+02  0.00000000000E+00 0. -1.
         -5    1    3    3    0  503  0.89254158418E+02 -0.68316984890E+02 -0.29642835364E+03  0.31705736714E+03  0.47000000000E+01 0.  1.
         13    1    4    4    0    0  0.16731108406E+02 -0.56544476411E+02 -0.56350504437E+02  0.81563393452E+02  0.00000000000E+00 0. -1.
        -14    1    4    4    0    0 -0.28624825802E+02  0.86301465900E+01 -0.62008844460E+02  0.68840081883E+02  0.00000000000E+00 0.  1.
</event>
<event>
12    1  0.8356052E-002  0.1887954E+03  0.7818608E-02  0.1159804E+00
         21   -1    0    0  501  502  0.00000000000E+00  0.00000000000E+00  0.47214176036E+02  0.47214176036E+02  0.00000000000E+00 0. -1.
         21   -1    0    0  502  503 -0.00000000000E+00 -0.00000000000E+00 -0.87693903176E+03  0.87693903176E+03  0.00000000000E+00 0. -1.
         -6    2    1    2    0  503 -0.73396459003E+02  0.15864078184E+02 -0.59133666404E+03  0.62074371926E+03  0.17321953008E+03 0.  0.
        -24    2    3    3    0    0 -0.24767641575E+02  0.15981301058E+02 -0.55159538990E+03  0.55776567154E+03  0.77306093751E+02 0.  0.
          6    2    1    2  501    0  0.73396459003E+02 -0.15864078184E+02 -0.23838819169E+03  0.30340948854E+03  0.17201650684E+03 0.  0.
         24    2    5    5    0    0  0.12065012702E+02 -0.80380113930E+01 -0.22712977989E+03  0.24038857563E+03  0.77385762406E+02 0.  0.
          5    1    5    5  501    0  0.61331446301E+02 -0.78260667913E+01 -0.11258411801E+02  0.63020912903E+02  0.47000000000E+01 0. -1.
        -11    1    6    6    0    0  0.32746239143E+01 -0.40349795411E+02 -0.16405601544E+03  0.16897693734E+03  0.00000000000E+00 0.  1.
         12    1    6    6    0    0  0.87903887880E+01  0.32311784018E+02 -0.63073764451E+02  0.71411638292E+02  0.00000000000E+00 0. -1.
         -5    1    3    3    0  503 -0.48628817428E+02 -0.11722287370E+00 -0.39741274133E+02  0.62978047726E+02  0.47000000000E+01 0.  1.
         13    1    4    4    0    0 -0.51417641718E+02  0.23542261214E+01 -0.39455838656E+03  0.39790154142E+03  0.00000000000E+00 0. -1.
        -14    1    4    4    0    0  0.26650000143E+02  0.13627074937E+02 -0.15703700334E+03  0.15986413012E+03  0.00000000000E+00 0.  1.
</event>
<event>
12    1  0.8356052E-002  0.1760677E+03  0.7818608E-02  0.1171961E+00
         21   -1    0    0  501  502  0.00000000000E+00  0.00000000000E+00  0.30154280718E+03  0.30154280718E+03  0.00000000000E+00 0. -1.
         21   -1    0    0  502  503 -0.00000000000E+00 -0.00000000000E+00 -0.11936591955E+03  0.11936591955E+03  0.00000000000E+00 0. -1.
         -6    2    1    2    0  503 -0.24543675745E+02  0.20153908978E+02  0.11338502328E+02  0.17643243886E+03  0.17317988272E+03 0.  0.
        -24    2    3    3    0    0  0.24363816962E+02  0.24189282551E+02  0.63070718125E+02  0.10497238544E+03  0.76567416392E+02 0.  0.
          6    2    1    2  501    0  0.24543675745E+02 -0.20153908978E+02  0.17083838530E+03  0.24447628788E+03  0.17197188543E+03 0.  0.
         24    2    5    5    0    0 -0.39616910783E+01  0.40917153612E+02  0.14759843470E+03  0.17303109261E+03  0.80402441677E+02 0.  0.
          5    1    5    5  501    0  0.28505366824E+02 -0.61071062590E+02  0.23239950601E+02  0.71445195273E+02  0.47000000000E+01 0. -1.
        -13    1    6    6    0    0  0.62216094190E+01 -0.19518831225E+01  0.12179545421E+03  0.12196987717E+03  0.00000000000E+00 0.  1.
         14    1    6    6    0    0 -0.10183300497E+02  0.42869036735E+02  0.25802980490E+02  0.51061215436E+02  0.00000000000E+00 0. -1.
         -5    1    3    3    0  503 -0.48907492707E+02 -0.40353735731E+01 -0.51732215797E+02  0.71460053415E+02  0.47000000000E+01 0.  1.
         13    1    4    4    0    0  0.26492213415E+02  0.20659980859E+02 -0.73836813895E+01  0.34397542523E+02  0.00000000000E+00 0. -1.
        -14    1    4    4    0    0 -0.21283964533E+01  0.35293016918E+01  0.70454399515E+02  0.70574842918E+02  0.00000000000E+00 0.  1.
</event>
<event>
12    1  0.8356052E-002  0.2298273E+03  0.7818608E-02  0.1126974E+00
         21   -1    0    0  501  502  0.00000000000E+00  0.00000000000E+00  0.53015599874E+03  0.53015599874E+03  0.00000000000E+00 0.  1.
         21   -1    0    0  502  503 -0.00000000000E+00 -0.00000000000E+00 -0.99199025209E+02  0.99199025209E+02  0.00000000000E+00 0. -1.
         -6    2    1    2    0  503  0.36665480001E+02 -0.14591037792E+03  0.22433953699E+03  0.32030592084E+03  0.17214371688E+03 0.  0.
        -24    2    3    3    0    0  0.74548269157E+02 -0.15425656842E+03  0.19434070829E+03  0.27104351800E+03  0.79647626587E+02 0.  0.
          6    2    1    2  501    0 -0.36665480001E+02  0.14591037792E+03  0.20661743654E+03  0.30904910310E+03  0.17374230123E+03 0.  0.
         24    2    5    5    0    0 -0.14657987349E+02  0.57290878910E+02  0.19260307549E+03  0.21654916984E+03  0.79375669250E+02 0.  0.
          5    1    5    5  501    0 -0.22007492652E+02  0.88619499012E+02  0.14014361043E+02  0.92499933262E+02  0.47000000000E+01 0. -1.
        -13    1    6    6    0    0 -0.96699224837E+01 -0.10963141913E+02  0.10180276359E+03  0.10284697640E+03  0.00000000000E+00 0.  1.
         14    1    6    6    0    0 -0.49880648653E+01  0.68254020823E+02  0.90800311906E+02  0.11370219343E+03  0.00000000000E+00 0. -1.
         -5    1    3    3    0  503 -0.37882789155E+02  0.83461904928E+01  0.29998828703E+02  0.49262402839E+02  0.47000000000E+01 0.  1.
         11    1    4    4    0    0  0.21878922077E+02 -0.51150590806E+02  0.15074486581E+02  0.57639485743E+02  0.00000000000E+00 0. -1.
        -12    1    4    4    0    0  0.52669347080E+02 -0.10310597761E+03  0.17926622171E+03  0.21340403226E+03  0.00000000000E+00 0.  1.
</event>
<event>
12    1  0.8356052E-002  0.2041996E+03  0.7818608E-02  0.1146396E+00
         21   -1    0    0  503  502  0.00000000000E+00  0.00000000000E+00  0.15978769928E+04  0.15978769928E+04  0.00000000000E+00 0.  1.
         21   -1    0    0  501  503 -0.00000000000E+00 -0.00000000000E+00 -0.11243669195E+03  0.11243669195E+03  0.00000000000E+00 0.  1.
          6    2    1    2  501    0 -0.94987622237E+02  0.44831718307E+02 -0.67555063161E+01  0.20431127526E+03  0.17511404566E+03 0.  0.
         24    2    3    3    0    0 -0.11417909375E+03  0.61493589974E+02 -0.44459705601E+02  0.15859883504E+03  0.79740817637E+02 0.  0.
         -6    2    1    2    0  502  0.94987622237E+02 -0.44831718307E+02  0.14921958071E+04  0.15060024095E+04  0.17424809645E+03 0.  0.
        -24    2    5    5    0    0  0.47257517888E+02 -0.92755720671E+02  0.11234326090E+04  0.11310580680E+04  0.79715930628E+02 0.  0.
          5    1    3    3  501    0  0.19191471515E+02 -0.16661871666E+02  0.37704199285E+02  0.45712440211E+02  0.47000000000E+01 0. -1.
        -13    1    4    4    0    0 -0.39190803777E+02  0.26391795926E+02 -0.57884968363E+02  0.74720248629E+02  0.00000000000E+00 0.  1.
         14    1    4    4    0    0 -0.74988289975E+02  0.35101794048E+02  0.13425262762E+02  0.83878586415E+02  0.00000000000E+00 0. -1.
         -5    1    5    5    0  502  0.47730104349E+02  0.47924002364E+02  0.36876319813E+03  0.37494434142E+03  0.47000000000E+01 0.  1.
         13    1    6    6    0    0 -0.21506636774E+02 -0.10906823608E+02  0.19006369395E+03  0.19158732209E+03  0.00000000000E+00 0. -1.
        -14    1    6    6    0    0  0.68764154662E+02 -0.81848897064E+02  0.93336891506E+03  0.93947074596E+03  0.00000000000E+00 0.  1.
</event>
<event>
12    1  0.8356052E-002  0.1964370E+03  0.7818608E-02  0.1152874E+00
         21   -1    0    0  501  502  0.00000000000E+00  0.00000000000E+00  0.14418892192E+03  0.14418892192E+03  0.00000000000E+00 0.  1.
         21   -1    0    0  502  503 -0.00000000000E+00 -0.00000000000E+00 -0.26716749693E+03  0.26716749693E+03  0.00000000000E+00 0. -1.
         -6    2    1    2    0  503 -0.77447560343E+02  0.55427054744E+02 -0.56894777496E+02  0.20451039005E+03  0.17180570692E+03 0.  0.
        -24    2    3    3    0    0 -0.10943003591E+03  0.15349954257E+02 -0.13223242364E+02  0.13699486807E+03  0.79888584192E+02 0.  0.
          6    2    1    2  501    0  0.77447560343E+02 -0.55427054744E+02 -0.66083797515E+02  0.20684602880E+03  0.17131237064E+03 0.  0.
         24    2    5    5    0    0  0.98595296144E+02  0.70295515241E+01 -0.58888901683E+02  0.14034857831E+03  0.80370228788E+02 0.  0.
          5    1    5    5  501    0 -0.21147735800E+02 -0.62456606268E+02 -0.71948958319E+01  0.66497450493E+02  0.47000000000E+01 0. -1.
        -13    1    6    6    0    0 -0.93176263142E+01 -0.40769053682E+01  0.79667138992E+01  0.12919282018E+02  0.00000000000E+00 0.  1.
         14    1    6    6    0    0  0.10791292246E+03  0.11106456892E+02 -0.66855615582E+02  0.12742929629E+03  0.00000000000E+00 0. -1.
         -5    1    3    3    0  503  0.31982475566E+02  0.40077100487E+02 -0.43671535132E+02  0.67515521975E+02  0.47000000000E+01 0.  1.
         11    1    4    4    0    0 -0.10283252764E+03  0.79585885990E+01 -0.38308016757E+02  0.11002441557E+03  0.00000000000E+00 0. -1.
        -12    1    4    4    0    0 -0.65975082661E+01  0.73913656577E+01  0.25084774394E+02  0.26970452499E+02  0.00000000000E+00 0.  1.
</event>
<event>
12    1  0.8356052E-002  0.2834737E+03  0.7818608E-02  0.1093843E+00
         21   -1    0    0  503  502  0.00000000000E+00  0.00000000000E+00  0.50554625360E+03  0.50554625360E+03  0.00000000000E+00 0.  1.
         21   -1    0    0  501  503 -0.00000000000E+00 -0.00000000000E+00 -0.16508453345E+03  0.16508453345E+03  0.00000000000E+00 0. -1.
          6    2    1    2  501    0  0.20369252782E+03 -0.92489361085E+02  0.23556772723E+03  0.36837248773E+03  0.17366982409E+03 0.  0.
         24    2    3    3    0    0  0.22851706369E+03 -0.80420821718E+02  0.20859978359E+03  0.32949746737E+03  0.79794450486E+02 0.  0.
         -6    2    1    2    0  502 -0.20369252782E+03  0.92489361085E+02  0.10489399292E+03  0.30225829933E+03  0.17410457191E+03 0.  0.
        -24    2    5    5    0    0 -0.10217482316E+03  0.96294704612E+02  0.11733209390E+03  0.19980283899E+03  0.80262005853E+02 0.  0.
          5    1    3    3  501    0 -0.24824535869E+02 -0.12068539367E+02  0.26967943635E+02  0.38875020354E+02  0.47000000000E+01 0. -1.
        -13    1    4    4    0    0  0.11356445940E+03  0.18981428153E+01  0.88579707163E+02  0.14403768224E+03  0.00000000000E+00 0.  1.
         14    1    4    4    0    0  0.11495260429E+03 -0.82318964533E+02  0.12002007643E+03  0.18545978513E+03  0.00000000000E+00 0. -1.
         -5    1    5    5    0  502 -0.10151770466E+03 -0.38053435271E+01 -0.12438100979E+02  0.10245546034E+03  0.47000000000E+01 0.  1.
         13    1    6    6    0    0 -0.83004982360E+01  0.41249837831E+00 -0.11229233641E+02  0.13970115033E+02  0.00000000000E+00 0. -1.
        -14    1    6    6    0    0 -0.93874324925E+02  0.95882206234E+02  0.12856132754E+03  0.18583272395E+03  0.00000000000E+00 0.  1.
</event>
<event>
12    1  0.8356052E-002  0.1767353E+03  0.7818608E-02  0.1171075E+00
         21   -1    0    0  501  502  0.00000000000E+00  0.00000000000E+00  0.12574239667E+04  0.12574239667E+04  0.00000000000E+00 0. -1.
         21   -1    0    0  502  503 -0.00000000000E+00 -0.00000000000E+00 -0.25333487043E+02  0.25333487043E+02  0.00000000000E+00 0. -1.
         -6    2    1    2    0  503  0.24894316032E+02 -0.30411076793E+02  0.70874903361E+03  0.73037930164E+03  0.17200049727E+03 0.  0.
        -24    2    3    3    0    0 -0.82133739786E+01 -0.74262185356E+02  0.42950600192E+03  0.44574304322E+03  0.92893074069E+02 0.  0.
          6    2    1    2  501    0 -0.24894316032E+02  0.30411076793E+02  0.52334144606E+03  0.55237815212E+03  0.17231016570E+03 0.  0.
         24    2    5    5    0    0  0.20877096033E+02  0.42540805293E+02  0.46404109120E+03  0.47634674701E+03  0.96573887811E+02 0.  0.
          5    1    5    5  501    0 -0.45771412066E+02 -0.12129728500E+02  0.59300354858E+02  0.76031405105E+02  0.47000000000E+01 0. -1.
        -11    1    6    6    0    0 -0.17683714350E+02 -0.23610650129E+02  0.96217283154E+02  0.10063767749E+03  0.00000000000E+00 0.  1.
         12    1    6    6    0    0  0.38560810383E+02  0.66151455422E+02  0.36782380805E+03  0.37570906952E+03  0.00000000000E+00 0. -1.
         -5    1    3    3    0  503  0.33107690011E+02  0.43851108563E+02  0.27924303169E+03  0.28463625842E+03  0.47000000000E+01 0.  1.
         13    1    4    4    0    0  0.42232224887E+02 -0.29473218650E+02  0.17170133045E+03  0.17925841212E+03  0.00000000000E+00 0. -1.
        -14    1    4    4    0    0 -0.50445598866E+02 -0.44788966706E+02  0.25780467147E+03  0.26648463110E+03  0.00000000000E+00 0.  1.
</event>
<event>
12    1  0.8356052E-002  0.2439051E+03  0.7818608E-02  0.1117403E+00
         21   -1    0    0  503  502  0.00000000000E+00  0.00000000000E+00  0.27677020383E+04  0.27677020383E+04  0.00000000000E+00 0.  1.
         21   -1    0    0  501  503 -0.00000000000E+00 -0.00000000000E+00 -0.25086676875E+02  0.25086676875E+02  0.00000000000E+00 0. -1.
          6    2    1    2  501    0 -0.16259932641E+03  0.54724405677E+02  0.83292173438E+03  0.86758237033E+03  0.17177675100E+03 0.  0.
         24    2    3    3    0    0 -0.10462905158E+03 -0.34309306351E+02  0.45494894320E+03  0.47493357622E+03  0.80367866532E+02 0.  0.
         -6    2    1    2    0  502  0.16259932641E+03 -0.54724405677E+02  0.19096936270E+04  0.19252063448E+04  0.17336787339E+03 0.  0.
        -24    2    5    5    0    0  0.56378280359E+02 -0.73827391976E+01  0.42533134394E+03  0.43628807256E+03  0.78787783275E+02 0.  0.
          5    1    3    3  501    0 -0.57970274830E+02  0.89033712027E+02  0.37797279118E+03  0.39264879410E+03  0.47000000000E+01 0. -1.
        -13    1    4    4    0    0 -0.57036458898E+01 -0.96746546424E+01  0.20060431638E+03  0.20091844681E+03  0.00000000000E+00 0.  1.
         14    1    4    4    0    0 -0.98925405689E+02 -0.24634651708E+02  0.25434462682E+03  0.27401512941E+03  0.00000000000E+00 0. -1.
         -5    1    5    5    0  502  0.10622104605E+03 -0.47341666479E+02  0.14843622831E+04  0.14889182723E+04  0.47000000000E+01 0.  1.
         11    1    6    6    0    0  0.13402937720E+02  0.33012030243E+02  0.11467322723E+03  0.12008073086E+03  0.00000000000E+00 0. -1.
        -12    1    6    6    0    0  0.42975342640E+02 -0.40394769441E+02  0.31065811671E+03  0.31620734171E+03  0.00000000000E+00 0.  1.
</event>
<event>
12    1  0.8356052E-002  0.2006502E+03  0.7818608E-02  0.1149292E+00
         21   -1    0    0  503  502  0.00000000000E+00  0.00000000000E+00  0.43375013746E+03  0.43375013746E+03  0.00000000000E+00 0. -1.
         21   -1    0    0  501  503 -0.00000000000E+00 -0.00000000000E+00 -0.11834769571E+03  0.11834769571E+03  0.00000000000E+00 0. -1.
          6    2    1    2  501    0 -0.41856109466E+02 -0.94231502957E+02  0.29085569979E+02  0.20274729431E+03  0.17213072044E+03 0.  0.
         24    2    3    3    0    0 -0.59229560124E+02  0.38587609619E+01  0.24483785672E+01  0.99523427741E+02  0.79849153303E+02 0.  0.
         -6    2    1    2    0  502  0.41856109466E+02  0.94231502957E+02  0.28631687177E+03  0.34935053886E+03  0.17157196126E+03 0.  0.
        -24    2    5    5    0    0  0.59955719233E+02 -0.44807422457E+01  0.15072051242E+03  0.18058986247E+03  0.79254402040E+02 0.  0.
          5    1    3    3  501    0  0.17373450657E+02 -0.98090263919E+02  0.26637191412E+02  0.10322386657E+03  0.47000000000E+01 0. -1.
        -13    1    4    4    0    0  0.39374332181E+01  0.19905394572E+02  0.23487308901E+02  0.31038392240E+02  0.00000000000E+00 0.  1.
         14    1    4    4    0    0 -0.63166993342E+02 -0.16046633610E+02 -0.21038930334E+02  0.68485035502E+02  0.00000000000E+00 0. -1.
         -5    1    5    5    0  502 -0.18099609767E+02  0.98712245202E+02  0.13559635935E+03  0.16876067639E+03  0.47000000000E+01 0.  1.
         11    1    6    6    0    0  0.56738303442E+02  0.14607640396E+02  0.15020313977E+03  0.16122531263E+03  0.00000000000E+00 0. -1.
        -12    1    6    6    0    0  0.32174157907E+01 -0.19088382642E+02  0.51737265597E+00  0.19364549846E+02  0.00000000000E+00 0.  1.
</event>
<event>
12    1  0.8356052E-002  0.2446788E+03  0.7818608E-02  0.1117044E+00
         21   -1    0    0  503  502  0.00000000000E+00  0.00000000000E+00  0.29443852547E+03  0.29443852547E+03  0.00000000000E+00 0. -1.
         21   -1    0    0  501  503 -0.00000000000E+00 -0.00000000000E+00 -0.22440253294E+03  0.22440253294E+03  0.00000000000E+00 0.  1.
          6    2    1    2  501    0  0.11792655894E+03  0.12250595769E+03 -0.47709301652E+02  0.24730531483E+03  0.17311660321E+03 0.  0.
         24    2    3    3    0    0  0.11050175117E+03  0.12197697313E+03  0.15692879817E+02  0.18329489217E+03  0.79131106592E+02 0.  0.
         -6    2    1    2    0  502 -0.11792655894E+03 -0.12250595769E+03  0.11774529418E+03  0.27153574357E+03  0.17593556423E+03 0.  0.
        -24    2    5    5    0    0  0.66575185675E+01 -0.45021295104E+02  0.38473834709E+02  0.10470912821E+03  0.86096027827E+02 0.  0.
          5    1    3    3  501    0  0.74248077680E+01  0.52898456308E+00 -0.63402181469E+02  0.64010422668E+02  0.47000000000E+01 0. -1.
        -13    1    4    4    0    0  0.10343292075E+03  0.66049177354E+02 -0.60564178000E+01  0.12287205997E+03  0.00000000000E+00 0.  1.
         14    1    4    4    0    0  0.70688304234E+01  0.55927795777E+02  0.21749297617E+02  0.60422832198E+02  0.00000000000E+00 0. -1.
         -5    1    5    5    0  502 -0.12458407751E+03 -0.77484662589E+02  0.79271459473E+02  0.16682661536E+03  0.47000000000E+01 0.  1.
         13    1    6    6    0    0  0.11187869245E+02 -0.68477336013E+02  0.41150388169E+02  0.80670120938E+02  0.00000000000E+00 0. -1.
        -14    1    6    6    0    0 -0.45303506774E+01  0.23456040909E+02 -0.26765534602E+01  0.24039007276E+02  0.00000000000E+00 0.  1.
</event>
<event>
12    1  0.8356052E-002  0.1856715E+03  0.7818608E-02  0.1162736E+00
         21   -1    0    0  501  502  0.00000000000E+00  0.00000000000E+00  0.18748407871E+04  0.18748407871E+04  0.00000000000E+00 0.  1.
         21   -1    0    0  502  503 -0.00000000000E+00 -0.00000000000E+00 -0.22037620515E+02  0.22037620515E+02  0.00000000000E+00 0.  1.
         -6    2    1    2    0  503  0.13386651028E+02  0.67133859504E+02  0.53070833860E+03  0.56180962511E+03  0.17115068416E+03 0.  0.
        -24    2    3    3    0    0  0.35525423749E+02  0.65455846555E+02  0.52794482241E+03  0.53894769153E+03  0.78691518735E+02 0.  0.
          6    2    1    2  501    0 -0.13386651028E+02 -0.67133859504E+02  0.13220948280E+04  0.13350687825E+04  0.17259131587E+03 0.  0.
         24    2    5    5    0    0 -0.74503832456E+02 -0.35205080981E+02  0.91077447512E+03  0.91798212551E+03  0.79942600932E+02 0.  0.
          5    1    5    5  501    0  0.61117181428E+02 -0.31928778523E+02  0.41132035289E+03  0.41708665702E+03  0.47000000000E+01 0. -1.
        -11    1    6    6    0    0 -0.49146808040E+02 -0.60747976375E+02  0.57525817566E+03  0.58054086337E+03  0.00000000000E+00 0.  1.
         12    1    6    6    0    0 -0.25357024415E+02  0.25542895393E+02  0.33551629946E+03  0.33744126215E+03  0.00000000000E+00 0. -1.
         -5    1    3    3    0  503 -0.22138772721E+02  0.16780129493E+01  0.27635161897E+01  0.22861933575E+02  0.47000000000E+01 0.  1.
         11    1    4    4    0    0 -0.23691347828E+02  0.25532316216E+02  0.22622535156E+03  0.22889099768E+03  0.00000000000E+00 0. -1.
        -12    1    4    4    0    0  0.59216771577E+02  0.39923530339E+02  0.30171947085E+03  0.31005669385E+03  0.00000000000E+00 0.  1.
</event>
<event>
12    1  0.8356052E-002  0.2084103E+03  0.7818608E-02  0.1142876E+00
         21   -1    0    0  503  502  0.00000000000E+00  0.00000000000E+00  0.17919465571E+03  0.17919465571E+03  0.00000000000E+00 0. -1.
         21   -1    0    0  501  503 -0.00000000000E+00 -0.00000000000E+00 -0.81826562529E+03  0.81826562529E+03  0.00000000000E+00 0. -1.
          6    2    1    2  501    0 -0.71904172013E+02 -0.93212292987E+02 -0.73797105225E+03  0.76677420338E+03  0.17170516443E+03 0.  0.
         24    2    3    3    0    0 -0.23382924954E+02 -0.18780191699E+02 -0.57485919332E+03  0.58097318712E+03  0.78532128663E+02 0.  0.
         -6    2    1    2    0  502  0.71904172013E+02  0.93212292987E+02  0.98900082669E+02  0.23068607762E+03  0.17197702910E+03 0.  0.
        -24    2    5    5    0    0  0.76984267622E+02  0.81889672469E+02  0.13497967676E+03  0.19224344222E+03  0.78137903850E+02 0.  0.
          5    1    3    3  501    0 -0.48521247059E+02 -0.74432101289E+02 -0.16311185893E+03  0.18580101626E+03  0.47000000000E+01 0. -1.
        -13    1    4    4    0    0  0.26187450103E+02  0.32773910162E+01 -0.11869585722E+03  0.12159453259E+03  0.00000000000E+00 0.  1.
         14    1    4    4    0    0 -0.49570375057E+02 -0.22057582715E+02 -0.45616333609E+03  0.45937865453E+03  0.00000000000E+00 0. -1.
         -5    1    5    5    0  502 -0.50800956094E+01  0.11322620518E+02 -0.36079594091E+02  0.38442635401E+02  0.47000000000E+01 0.  1.
         11    1    6    6    0    0  0.23185503221E+02 -0.11608270283E+02  0.44259737175E+02  0.51295651213E+02  0.00000000000E+00 0. -1.
        -12    1    6    6    0    0  0.53798764401E+02  0.93497942752E+02  0.90719939586E+02  0.14094779100E+03  0.00000000000E+00 0.  1.
</event>
<event>
12    1  0.8356052E-002  0.2279849E+03  0.7818608E-02  0.1128699E+00
         21   -1    0    0  501  502  0.00000000000E+00  0.00000000000E+00  0.86671413455E+03  0.86671413455E+03  0.00000000000E+00 0. -1.
         21   -1    0    0  502  503 -0.00000000000E+00 -0.00000000000E+00 -0.10296300292E+03  0.10296300292E+03  0.00000000000E+00 0. -1.
         -6    2    1    2    0  503  0.14268580838E+03 -0.42734934231E+02  0.66942834910E+02  0.23760992336E+03  0.17260248555E+03 0.  0.
        -24    2    3    3    0    0  0.53307924037E+02 -0.47725705177E+02  0.94883348362E+02  0.14371596032E+03  0.80820478561E+02 0.  0.
          6    2    1    2  501    0 -0.14268580838E+03  0.42734934231E+02  0.69680829673E+03  0.73206721411E+03  0.16791393350E+03 0.  0.
         24    2    5    5    0    0 -0.12159397940E+03  0.37367463222E+02  0.31012911906E+03  0.34474751227E+03  0.80556524188E+02 0.  0.
          5    1    5    5  501    0 -0.21091828980E+02  0.53674710093E+01  0.38667917766E+03  0.38731970184E+03  0.47000000000E+01 0. -1.
        -11    1    6    6    0    0 -0.45842422749E+02  0.50182380450E+02  0.99106575899E+02  0.12017450818E+03  0.00000000000E+00 0.  1.
         12    1    6    6    0    0 -0.75751556647E+02 -0.12814917228E+02  0.21102254317E+03  0.22457300408E+03  0.00000000000E+00 0. -1.
         -5    1    3    3    0  503  0.89377884339E+02  0.49907709458E+01 -0.27940513453E+02  0.93893963041E+02  0.47000000000E+01 0.  1.
         11    1    4    4    0    0  0.27688695404E+02  0.20436168811E+02  0.22980621054E+02  0.41381273457E+02  0.00000000000E+00 0. -1.
        -12    1    4    4    0    0  0.25619228633E+02 -0.68161873988E+02  0.71902727308E+02  0.10233468686E+03  0.00000000000E+00 0.  1.
</event>
<event>
12    1  0.8356052E-002  0.3367490E+03  0.7818608E-02  0.1068204E+00
         21   -1    0    0  501  502  0.00000000000E+00  0.00000000000E+00  0.32368099785E+03  0.32368099785E+03  0.00000000000E+00 0. -1.
         21   -1    0    0  502  503 -0.00000000000E+00 -0.00000000000E+00 -0.36384810882E+03  0.36384810882E+03  0.00000000000E+00 0.  1.
         -6    2    1    2    0  503  0.28195337447E+03 -0.67493887385E+02  0.46503573073E+02  0.33980547955E+03  0.17103231103E+03 0.  0.
        -24    2    3    3    0    0  0.10924965474E+03  0.81609777062E+01  0.65224943972E+02  0.15027233431E+03  0.79532336337E+02 0.  0.
          6    2    1    2  501    0 -0.28195337447E+03  0.67493887385E+02 -0.86670684040E+02  0.34772362711E+03  0.17130902828E+03 0.  0.
         24    2    5    5    0    0 -0.20622365712E+03  0.44402228813E+02  0.71736948129E+01  0.22485348335E+03  0.77510466382E+02 0.  0.
          5    1    5    5  501    0 -0.75729717347E+02  0.23091658573E+02 -0.93844378853E+02  0.12287014376E+03  0.47000000000E+01 0. -1.
        -13    1    6    6    0    0 -0.38177298859E+02 -0.19273734755E+02 -0.11205312916E+02  0.44210202862E+02  0.00000000000E+00 0.  1.
         14    1    6    6    0    0 -0.16804635826E+03  0.63675963568E+02  0.18379007729E+02  0.18064328049E+03  0.00000000000E+00 0. -1.
         -5    1    3    3    0  503  0.17270371973E+03 -0.75654865092E+02 -0.18721370898E+02  0.18953314525E+03  0.47000000000E+01 0.  1.
         13    1    4    4    0    0  0.66471267743E+02 -0.30327133130E+02  0.55862308710E+02  0.91971528059E+02  0.00000000000E+00 0. -1.
        -14    1    4    4    0    0  0.42778386999E+02  0.38488110836E+02  0.93626352622E+01  0.58300806247E+02  0.00000000000E+00 0.  1.
</event>
<event>
12    1  0.8356052E-002  0.2085193E+03  0.7818608E-02  0.1143072E+00
         21   -1    0    0  503  502  0.00000000000E+00  0.00000000000E+00  0.26971028066E+02  0.26971028066E+02  0.00000000000E+00 0.  1.
         21   -1    0    0  501  503 -0.00000000000E+00 -0.00000000000E+00 -0.17058499599E+04  0.17058499599E+04  0.00000000000E+00 0. -1.
          6    2    1    2  501    0 -0.63547825237E+02  0.95262945486E+02 -0.10588781335E+04  0.10792141563E+04  0.17426112234E+03 0.  0.
         24    2    3    3    0    0 -0.11131967643E+03  0.65525972287E+02 -0.78796603018E+03  0.80247981610E+03  0.79985418203E+02 0.  0.
         -6    2    1    2    0  502  0.63547825237E+02 -0.95262945486E+02 -0.62000079838E+03  0.65360683168E+03  0.17230074157E+03 0.  0.
        -24    2    5    5    0    0  0.41004075719E+02  0.46109970731E+01 -0.17706488154E+03  0.19896703858E+03  0.80828922077E+02 0.  0.
          5    1    3    3  501    0  0.47771851193E+02  0.29736973199E+02 -0.27091210330E+03  0.27673434022E+03  0.47000000000E+01 0. -1.
        -13    1    4    4    0    0 -0.19559511665E+02 -0.18766127509E+02 -0.12475192809E+03  0.12766278080E+03  0.00000000000E+00 0.  1.
         14    1    4    4    0    0 -0.91760164765E+02  0.84292099796E+02 -0.66321410209E+03  0.67481703530E+03  0.00000000000E+00 0. -1.
         -5    1    5    5    0  502  0.22543749518E+02 -0.99873942559E+02 -0.44293591684E+03  0.45463979310E+03  0.47000000000E+01 0.  1.
         13    1    6    6    0    0 -0.11288171921E+02 -0.46909946315E+00 -0.12322051008E+03  0.12373737101E+03  0.00000000000E+00 0. -1.
        -14    1    6    6    0    0  0.52292247640E+02  0.50800965362E+01 -0.53844371464E+02  0.75229667569E+02  0.00000000000E+00 0.  1.
</event>
<event>
12    1  0.8356052E-002  0.1909310E+03  0.7818608E-02  0.1157814E+00
         21   -1    0    0  501  502  0.00000000000E+00  0.00000000000E+00  0.20210803466E+03  0.20210803466E+03  0.00000000000E+00 0. -1.
         21   -1    0    0  502  503 -0.00000000000E+00 -0.00000000000E+00 -0.48681918552E+03  0.48681918552E+03  0.00000000000E+00 0. -1.
         -6    2    1    2    0  503 -0.60921449251E+02  0.54493134153E+02 -0.41589229289E+03  0.45727416574E+03  0.17161683694E+03 0.  0.
        -24    2    3    3    0    0 -0.10567180709E+03  0.25043125563E+02 -0.26841750276E+03  0.30030027856E+03  0.79615404071E+02 0.  0.
          6    2    1    2  501    0  0.60921449251E+02 -0.54493134153E+02  0.13118114203E+03  0.23165305444E+03  0.17255063302E+03 0.  0.
         24    2    5    5    0    0  0.15001158863E+02 -0.89919840596E+02  0.12432751191E+03  0.17306306515E+03  0.78631302934E+02 0.  0.
          5    1    5    5  501    0  0.45920290388E+02  0.35426706443E+02  0.68536301208E+01  0.58589989286E+02  0.47000000000E+01 0. -1.
        -11    1    6    6    0    0  0.20371979279E+02 -0.92334441237E+02  0.13262983201E+03  0.16288443424E+03  0.00000000000E+00 0.  1.
         12    1    6    6    0    0 -0.53708204157E+01  0.24146006408E+01 -0.83023200992E+01  0.10178630911E+02  0.00000000000E+00 0. -1.
         -5    1    3    3    0  503  0.44750357838E+02  0.29450008590E+02 -0.14747479013E+03  0.15697388718E+03  0.47000000000E+01 0.  1.
         13    1    4    4    0    0 -0.26548782319E+02 -0.22542025291E+02 -0.35414116718E+02  0.49670317190E+02  0.00000000000E+00 0. -1.
        -14    1    4    4    0    0 -0.79123024770E+02  0.47585150854E+02 -0.23300338604E+03  0.25062996137E+03  0.00000000000E+00 0.  1.
</event>
<event>
12    1  0.8356052E-002  0.1886735E+03  0.7818608E-02  0.1159707E+00
         21   -1    0    0  503  502  0.00000000000E+00  0.00000000000E+00  0.57296757250E+02  0.57296757250E+02  0.00000000000E+00 0. -1.
         21   -1    0    0  501  503 -0.00000000000E+00 -0.00000000000E+00 -0.96892028611E+03  0.96892028611E+03  0.00000000000E+00 0. -1.
          6    2    1    2  501    0  0.19964553138E+02 -0.75108823242E+02 -0.76359025991E+03  0.78655436577E+03  0.17192372309E+03 0.  0.
         24    2    3    3    0    0  0.58192190885E+01 -0.47881199406E+02 -0.18027822740E+03  0.20241700928E+03  0.78396006287E+02 0.  0.
         -6    2    1    2    0  502 -0.19964553138E+02  0.75108823242E+02 -0.14803326894E+03  0.23966267759E+03  0.17171031304E+03 0.  0.
        -24    2    5    5    0    0 -0.66855647141E+02  0.90119968955E+02 -0.11880267176E+03  0.18221159401E+03  0.80595929282E+02 0.  0.
          5    1    3    3  501    0  0.14145334049E+02 -0.27227623835E+02 -0.58331203251E+03  0.58413735649E+03  0.47000000000E+01 0. -1.
        -13    1    4    4    0    0  0.99700560671E+01 -0.66661409516E+02 -0.16366827028E+03  0.17700409101E+03  0.00000000000E+00 0.  1.
         14    1    4    4    0    0 -0.41508369786E+01  0.18780210110E+02 -0.16609957122E+02  0.25412918270E+02  0.00000000000E+00 0. -1.
         -5    1    5    5    0  502  0.46891094003E+02 -0.15011145713E+02 -0.29230597185E+02  0.57451083577E+02  0.47000000000E+01 0.  1.
         13    1    6    6    0    0  0.18246217579E+02  0.95956415345E+01 -0.22835441506E+02  0.30764560474E+02  0.00000000000E+00 0. -1.
        -14    1    6    6    0    0 -0.85101864720E+02  0.80524327420E+02 -0.95967230251E+02  0.15144703354E+03  0.00000000000E+00 0.  1.
</event>
<event>
12    1  0.8356052E-002  0.1769851E+03  0.7818608E-02  0.1170882E+00
         21   -1    0    0  501  502  0.00000000000E+00  0.00000000000E+00  0.38854211409E+03  0.38854211409E+03  0.00000000000E+00 0. -1.
         21   -1    0    0  502  503 -0.00000000000E+00 -0.00000000000E+00 -0.10515848047E+03  0.10515848047E+03  0.00000000000E+00 0. -1.
         -6    2    1    2    0  503 -0.12793554869E+02 -0.37677519734E+02  0.22030963307E+02  0.17835106156E+03  0.17245424690E+03 0.  0.
        -24    2    3    3    0    0  0.34572625638E+02 -0.65317150996E+02  0.45799520881E+02  0.11839659049E+03  0.80365165762E+02 0.  0.
          6    2    1    2  501    0  0.12793554869E+02  0.37677519734E+02  0.26135267031E+03  0.31534953300E+03  0.17192102590E+03 0.  0.
         24    2    5    5    0    0  0.53801700016E+02 -0.99861747101E+01  0.87488768123E+02  0.13040564362E+03  0.79730801638E+02 0.  0.
          5    1    5    5  501    0 -0.41008145147E+02  0.47663694444E+02  0.17386390219E+03  0.18494388939E+03  0.47000000000E+01 0. -1.
        -11    1    6    6    0    0 -0.91536087516E+01 -0.47374174634E+01 -0.99198032281E+01  0.14305040143E+02  0.00000000000E+00 0.  1.
         12    1    6    6    0    0  0.62955308767E+02 -0.52487572468E+01  0.97408571351E+02  0.11610060348E+03  0.00000000000E+00 0. -1.
         -5    1    3    3    0  503 -0.47366180508E+02  0.27639631262E+02 -0.23768557574E+02  0.59954471070E+02  0.47000000000E+01 0.  1.
         13    1    4    4    0    0  0.24765576810E+02 -0.78045716789E+02  0.14418081016E+02  0.83140536227E+02  0.00000000000E+00 0. -1.
        -14    1    4    4    0    0  0.98070488285E+01  0.12728565794E+02  0.31381439865E+02  0.35256054259E+02  0.00000000000E+00 0.  1.
</event>
<event>
12    1  0.8356052E-002  0.1840264E+03  0.7818608E-02  0.1166504E+00
         21   -1    0    0  503  502  0.00000000000E+00  0.00000000000E+00  0.72205783644E+03  0.72205783644E+03  0.00000000000E+00 0. -1.
         21   -1    0    0  501  503 -0.00000000000E+00 -0.00000000000E+00 -0.66969410498E+02  0.66969410498E+02  0.00000000000E+00 0. -1.
          6    2    1    2  501    0  0.38495212285E+02 -0.43522245213E+02  0.91577160609E+02  0.19622824141E+03  0.16353311342E+03 0.  0.
         24    2    3    3    0    0 -0.37804687760E+02 -0.42899984694E+02  0.54702889304E+02  0.11135266283E+03  0.78341600173E+02 0.  0.
         -6    2    1    2    0  502 -0.38495212285E+02  0.43522245213E+02  0.56351126533E+03  0.59279900553E+03  0.17461285062E+03 0.  0.
        -24    2    5    5    0    0 -0.34403969068E+02  0.61551567190E+02  0.18090302391E+03  0.20971552752E+03  0.79262033220E+02 0.  0.
          5    1    3    3  501    0  0.76299900045E+02 -0.62226051969E+00  0.36874271305E+02  0.84875578580E+02  0.47000000000E+01 0. -1.
        -11    1    4    4    0    0 -0.23496797757E+02 -0.65855532832E+02  0.38462854968E+02  0.79802518267E+02  0.00000000000E+00 0.  1.
         12    1    4    4    0    0 -0.14307890003E+02  0.22955548139E+02  0.16240034336E+02  0.31550144562E+02  0.00000000000E+00 0. -1.
         -5    1    5    5    0  502 -0.40912432167E+01 -0.18029321977E+02  0.38260824142E+03  0.38308347801E+03  0.47000000000E+01 0.  1.
         11    1    6    6    0    0 -0.58437927365E+02  0.48479329333E+02  0.15204624109E+03  0.16995086394E+03  0.00000000000E+00 0. -1.
        -12    1    6    6    0    0  0.24033958296E+02  0.13072237857E+02  0.28856782827E+02  0.39764663573E+02  0.00000000000E+00 0.  1.
</event>
<event>
12    1  0.8356052E-002  0.1805396E+03  0.7818608E-02  0.1167768E+00
         21   -1    0    0  501  502  0.00000000000E+00  0.00000000000E+00  0.29815304496E+03  0.29815304496E+03  0.00000000000E+00 0. -1.
         21   -1    0    0  502  503 -0.00000000000E+00 -0.00000000000E+00 -0.31861483900E+03  0.31861483900E+03  0.00000000000E+00 0. -1.
         -6    2    1    2    0  503 -0.12124909726E+02  0.53003974349E+02 -0.26087227636E+03  0.31611570734E+03  0.17005399473E+03 0.  0.
        -24    2    3    3    0    0 -0.14416366991E+02 -0.22176518848E+01 -0.24666708240E+03  0.25885702839E+03  0.77133403853E+02 0.  0.
          6    2    1    2  501    0  0.12124909726E+02 -0.53003974349E+02  0.24041048232E+03  0.30065217662E+03  0.17215718564E+03 0.  0.
         24    2    5    5    0    0 -0.22941083337E+02  0.19967439993E+02  0.67925608058E+02  0.11005424109E+03  0.81074384286E+02 0.  0.
          5    1    5    5  501    0  0.35065993063E+02 -0.72971414342E+02  0.17248487426E+03  0.19059793553E+03  0.47000000000E+01 0. -1.
        -13    1    6    6    0    0  0.24172137987E+02  0.22249080171E+02  0.49509700236E+02  0.59418214722E+02  0.00000000000E+00 0.  1.
         14    1    6    6    0    0 -0.47113221324E+02 -0.22816401781E+01  0.18415907822E+02  0.50636026368E+02  0.00000000000E+00 0. -1.
         -5    1    3    3    0  503  0.22914572646E+01  0.55221626234E+02 -0.14205193960E+02  0.57258678956E+02  0.47000000000E+01 0.  1.
         13    1    4    4    0    0  0.18719213754E+02  0.12520600535E+02 -0.22711406806E+02  0.31984096055E+02  0.00000000000E+00 0. -1.
        -14    1    4    4    0    0 -0.33135580745E+02 -0.14738252420E+02 -0.22395567559E+03  0.22687293233E+03  0.00000000000E+00 0.  1.
</event>
<event>
12    1  0.8356052E-002  0.2779803E+03  0.7818608E-02  0.1096798E+00
         21   -1    0    0  501  502  0.00000000000E+00  0.00000000000E+00  0.79675865292E+03  0.79675865292E+03  0.00000000000E+00 0.  1.
         21   -1    0    0  502  503 -0.00000000000E+00 -0.00000000000E+00 -0.11486579405E+03  0.11486579405E+03  0.00000000000E+00 0.  1.
         -6    2    1    2    0  503  0.16693439125E+03 -0.14091048141E+03  0.16108404580E+03  0.32127297361E+03  0.17188775118E+03 0.  0.
        -24    2    3    3    0    0  0.45340265939E+02 -0.11909996694E+03  0.61803266737E+02  0.16271827345E+03  0.80106497198E+02 0.  0.
          6    2    1    2  501    0 -0.16693439125E+03  0.14091048141E+03  0.52080881308E+03  0.59035147337E+03  0.17190167998E+03 0.  0.
         24    2    5    5    0    0 -0.82309405140E+02  0.14925906127E+03  0.40279835435E+03  0.44481919025E+03  0.81021553953E+02 0.  0.
          5    1    5    5  501    0 -0.84624986111E+02 -0.83485798661E+01  0.11801045873E+03  0.14553228312E+03  0.47000000000E+01 0. -1.
        -11    1    6    6    0    0 -0.82187956498E+02  0.91501589687E+02  0.32810173509E+03  0.35039713137E+03  0.00000000000E+00 0.  1.
         12    1    6    6    0    0 -0.12144864270E+00  0.57757471584E+02  0.74696619259E+02  0.94422058876E+02  0.00000000000E+00 0. -1.
         -5    1    3    3    0  503  0.12159412531E+03 -0.21810514465E+02  0.99280779060E+02  0.15855470016E+03  0.47000000000E+01 0.  1.
         13    1    4    4    0    0 -0.10704624325E+02 -0.32138801611E+01 -0.10278069917E+02  0.15184094601E+02  0.00000000000E+00 0. -1.
        -14    1    4    4    0    0  0.56044890263E+02 -0.11588608678E+03  0.72081336654E+02  0.14753417885E+03  0.00000000000E+00 0.  1.
</event>
<event>
12    1  0.8356052E-002  0.1937723E+03  0.7818608E-02  0.1155349E+00
         21   -1    0    0  501  502  0.00000000000E+00  0.00000000000E+00  0.23783804747E+03  0.23783804747E+03  0.00000000000E+00 0. -1.
         21   -1    0    0  502  503 -0.00000000000E+00 -0.00000000000E+00 -0.37497397238E+03  0.37497397238E+03  0.00000000000E+00 0.  1.
         -6    2    1    2    0  503  0.65850458784E+02 -0.54260920449E+02 -0.30211943069E+03  0.35831789154E+03  0.17272819858E+03 0.  0.
        -24    2    3    3    0    0  0.49366059968E+02 -0.10198973160E+03 -0.18400634490E+03  0.22977775830E+03  0.78106145831E+02 0.  0.
          6    2    1    2  501    0 -0.65850458784E+02  0.54260920449E+02  0.16498350578E+03  0.25449412832E+03  0.17397463538E+03 0.  0.
         24    2    5    5    0    0  0.15176861960E+02  0.64313197768E+02  0.12690673255E+03  0.16428101593E+03  0.80724276907E+02 0.  0.
          5    1    5    5  501    0 -0.81027320744E+02 -0.10052277319E+02  0.38076773232E+02  0.90213112384E+02  0.47000000000E+01 0. -1.
        -11    1    6    6    0    0 -0.18132657617E+02 -0.44490761999E+01  0.32906969510E+01  0.18958276233E+02  0.00000000000E+00 0.  1.
         12    1    6    6    0    0  0.33309519577E+02  0.68762273968E+02  0.12361603560E+03  0.14532273970E+03  0.00000000000E+00 0. -1.
         -5    1    3    3    0  503  0.16484398816E+02  0.47728811150E+02 -0.11811308579E+03  0.12854013324E+03  0.47000000000E+01 0.  1.
         11    1    4    4    0    0 -0.16423700236E+02 -0.37905405156E+02 -0.32310242316E+02  0.52445299389E+02  0.00000000000E+00 0. -1.
        -12    1    4    4    0    0  0.65789760205E+02 -0.64084326443E+02 -0.15169610259E+03  0.17733245891E+03  0.00000000000E+00 0.  1.
</event>
<event>
12    1  0.8356052E-002  0.2089443E+03  0.7818608E-02  0.1142473E+00
         21   -1    0    0  503  502  0.00000000000E+00  0.00000000000E+00  0.15125783423E+03  0.15125783423E+03  0.00000000000E+00 0.  1.
         21   -1    0    0  501  503 -0.00000000000E+00 -0.00000000000E+00 -0.35985638013E+03  0.35985638013E+03  0.00000000000E+00 0.  1.
          6    2    1    2  501    0  0.60277431526E+02 -0.10193007814E+03 -0.21830398400E+03  0.30194459350E+03  0.17172885177E+03 0.  0.
         24    2    3    3    0    0  0.21736932473E+01 -0.10710404165E+03 -0.90461207046E+02  0.16134345581E+03  0.79827815145E+02 0.  0.
         -6    2    1    2    0  502 -0.60277431526E+02  0.10193007814E+03  0.97054381056E+01  0.20916962086E+03  0.17214710332E+03 0.  0.
        -24    2    5    5    0    0 -0.98908807561E+02  0.51579952489E+02 -0.20536839454E+02  0.13871251534E+03  0.79849586250E+02 0.  0.
          5    1    3    3  501    0  0.58103738279E+02  0.51739635172E+01 -0.12784277695E+03  0.14060113769E+03  0.47000000000E+01 0. -1.
        -11    1    4    4    0    0  0.28956205517E+02 -0.81627820260E+02 -0.32316970971E+02  0.92444304806E+02  0.00000000000E+00 0.  1.
         12    1    4    4    0    0 -0.26782512269E+02 -0.25476221393E+02 -0.58144236076E+02  0.68899151002E+02  0.00000000000E+00 0. -1.
         -5    1    5    5    0  502  0.38631376035E+02  0.50350125647E+02  0.30242277560E+02  0.70457105526E+02  0.47000000000E+01 0.  1.
         11    1    6    6    0    0 -0.94283698584E+02  0.28656448685E+02  0.11323503151E+02  0.99190874548E+02  0.00000000000E+00 0. -1.
        -12    1    6    6    0    0 -0.46251089770E+01  0.22923503804E+02 -0.31860342606E+02  0.39521640789E+02  0.00000000000E+00 0.  1.
</event>
<event>
12    1  0.8356052E-002  0.1960985E+03  0.7818608E-02  0.1153113E+00
         21   -1    0    0  501  502  0.00000000000E+00  0.00000000000E+00  0.19660796281E+03  0.19660796281E+03  0.00000000000E+00 0.  1.
         21   -1    0    0  502  503 -0.00000000000E+00 -0.00000000000E+00 -0.20908783618E+03  0.20908783618E+03  0.00000000000E+00 0. -1.
         -6    2    1    2    0  503 -0.85077205042E+02  0.43625971539E+02 -0.58132211855E+02  0.20453352981E+03  0.17121114026E+03 0.  0.
        -24    2    3    3    0    0  0.23653154665E+02  0.21247254944E+02 -0.43105935672E+02  0.92413161213E+02  0.75307058812E+02 0.  0.
          6    2    1    2  501    0  0.85077205042E+02 -0.43625971539E+02  0.45652338480E+02  0.20116226918E+03  0.17099931673E+03 0.  0.
         24    2    5    5    0    0  0.80919756236E+02  0.18882380018E+02  0.69223595739E+02  0.13406329330E+03  0.79224422872E+02 0.  0.
          5    1    5    5  501    0  0.41574488053E+01 -0.62508351557E+02 -0.23571257260E+02  0.67098975877E+02  0.47000000000E+01 0. -1.
        -11    1    6    6    0    0  0.59545796327E+02  0.28602336146E+02  0.56594349073E+01  0.66301015805E+02  0.00000000000E+00 0.  1.
         12    1    6    6    0    0  0.21373959909E+02 -0.97199561287E+01  0.63564160832E+02  0.67762277497E+02  0.00000000000E+00 0. -1.
         -5    1    3    3    0  503 -0.10873035971E+03  0.22378716595E+02 -0.15026276183E+02  0.11212036860E+03  0.47000000000E+01 0.  1.
         11    1    4    4    0    0  0.40487604260E+02 -0.25218213937E+01 -0.48034635487E+02  0.62872345974E+02  0.00000000000E+00 0. -1.
        -12    1    4    4    0    0 -0.16834449595E+02  0.23769076338E+02  0.49286998145E+01  0.29540815239E+02  0.00000000000E+00 0.  1.
</event>
<event>
12    1  0.8356052E-002  0.2287701E+03  0.7818608E-02  0.1127751E+00
         21   -1    0    0  503  502  0.00000000000E+00  0.00000000000E+00  0.49034110116E+03  0.49034110116E+03  0.00000000000E+00 0. -1.
         21   -1    0    0  501  503 -0.00000000000E+00 -0.00000000000E+00 -0.12388240675E+03  0.12388240675E+03  0.00000000000E+00 0. -1.
          6    2    1    2  501    0 -0.35381424828E+02 -0.14493556296E+03  0.29912539590E+03  0.37575013921E+03  0.17162168281E+03 0.  0.
         24    2    3    3    0    0  0.13610372013E+02 -0.66130028518E+01  0.90574049059E+02  0.12070292581E+03  0.78336223444E+02 0.  0.
         -6    2    1    2    0  502  0.35381424828E+02  0.14493556296E+03  0.67333298508E+02  0.23847336870E+03  0.17342898217E+03 0.  0.
        -24    2    5    5    0    0 -0.22299379068E+02  0.14948833755E+03  0.62533427668E+02  0.18022449185E+03  0.75673063338E+02 0.  0.
          5    1    3    3  501    0 -0.48991796841E+02 -0.13832256011E+03  0.20855134684E+03  0.25504721340E+03  0.47000000000E+01 0. -1.
        -13    1    4    4    0    0  0.99376236571E+01  0.12186795998E+02 -0.97925262649E+01  0.18524792341E+02  0.00000000000E+00 0.  1.
         14    1    4    4    0    0  0.36727483563E+01 -0.18799798849E+02  0.10036657532E+03  0.10217813347E+03  0.00000000000E+00 0. -1.
         -5    1    5    5    0  502  0.57680803896E+02 -0.45527745896E+01  0.47998708397E+01  0.58248876852E+02  0.47000000000E+01 0.  1.
         11    1    6    6    0    0  0.21366036073E+02  0.10321842896E+03  0.39261631201E+02  0.11248123070E+03  0.00000000000E+00 0. -1.
        -12    1    6    6    0    0 -0.43665415140E+02  0.46269908588E+02  0.23271796468E+02  0.67743261148E+02  0.00000000000E+00 0.  1.
</event>
<event>
12    1  0.8356052E-002  0.1757055E+03  0.7818608E-02  0.1172217E+00
         21   -1    0    0  501  502  0.00000000000E+00  0.00000000000E+00  0.28087086815E+03  0.28087086815E+03  0.00000000000E+00 0. -1.
         21   -1    0    0  502  503 -0.00000000000E+00 -0.00000000000E+00 -0.24876821723E+03  0.24876821723E+03  0.00000000000E+00 0. -1.
         -6    2    1    2    0  503 -0.30198865172E+02 -0.17064841201E+02 -0.18215087813E+03  0.25255246057E+03  0.17146609774E+03 0.  0.
        -24    2    3    3    0    0  0.40593094663E+02  0.11223160565E+02 -0.13308518872E+03  0.16177116020E+03  0.81758682388E+02 0.  0.
          6    2    1    2  501    0  0.30198865172E+02  0.17064841201E+02  0.21425352904E+03  0.27708662481E+03  0.17224762025E+03 0.  0.
         24    2    5    5    0    0  0.36368876417E+02 -0.14100316866E+02  0.22608135311E+03  0.24286202053E+03  0.79672257932E+02 0.  0.
          5    1    5    5  501    0 -0.61700112453E+01  0.31165158066E+02 -0.11827824071E+02  0.34224604283E+02  0.47000000000E+01 0. -1.
        -11    1    6    6    0    0 -0.13013722152E+02 -0.94261857029E+01  0.58295421398E+01  0.17093668498E+02  0.00000000000E+00 0.  1.
         12    1    6    6    0    0  0.49382598569E+02 -0.46741311629E+01  0.22025181097E+03  0.22576835203E+03  0.00000000000E+00 0. -1.
         -5    1    3    3    0  503 -0.70791959834E+02 -0.28288001766E+02 -0.49065689403E+02  0.90781300374E+02  0.47000000000E+01 0.  1.
         11    1    4    4    0    0 -0.18301608491E+02 -0.38769362740E-01 -0.78764581375E+02  0.80862906549E+02  0.00000000000E+00 0. -1.
        -12    1    4    4    0    0  0.58894703153E+02  0.11261929928E+02 -0.54320607349E+02  0.80908253646E+02  0.00000000000E+00 0.  1.
</event>
<event>
12    1  0.8356052E-002  0.1781278E+03  0.7818608E-02  0.1171268E+00
         21   -1    0    0  503  502  0.00000000000E+00  0.00000000000E+00  0.44108271797E+02  0.44108271797E+02  0.00000000000E+00 0.  1.
         21   -1    0    0  501  503 -0.00000000000E+00 -0.00000000000E+00 -0.70372143468E+03  0.70372143468E+03  0.00000000000E+00 0.  1.
          6    2    1    2  501    0  0.50535396728E+02 -0.33204205748E+01 -0.27783657155E+03  0.32654255775E+03  0.16392690448E+03 0.  0.
         24    2    3    3    0    0  0.18095537842E+01  0.11179713497E+02 -0.55286050548E+02  0.98211031108E+02  0.80377849980E+02 0.  0.
         -6    2    1    2    0  502 -0.50535396728E+02  0.33204205748E+01 -0.38177659133E+03  0.42128714873E+03  0.17077659231E+03 0.  0.
        -24    2    5    5    0    0 -0.91308073758E+02 -0.20765518135E+02 -0.21078973114E+03  0.24380154369E+03  0.78984244488E+02 0.  0.
          5    1    3    3  501    0  0.48725842944E+02 -0.14500134072E+02 -0.22255052100E+03  0.22833152664E+03  0.47000000000E+01 0. -1.
        -13    1    4    4    0    0  0.24330130524E+02 -0.26218952992E+02 -0.35100918687E+02  0.50114501294E+02  0.00000000000E+00 0.  1.
         14    1    4    4    0    0 -0.22520576740E+02  0.37398666489E+02 -0.20185131861E+02  0.48096529814E+02  0.00000000000E+00 0. -1.
         -5    1    5    5    0  502  0.40772677030E+02  0.24085938710E+02 -0.17098686019E+03  0.17748560503E+03  0.47000000000E+01 0.  1.
         13    1    6    6    0    0 -0.65052043399E+02  0.24920849988E+02 -0.11406891589E+03  0.13365827579E+03  0.00000000000E+00 0. -1.
        -14    1    6    6    0    0 -0.26256030359E+02 -0.45686368123E+02 -0.96720815247E+02  0.11014326790E+03  0.00000000000E+00 0.  1.
</event>
<event>
12    1  0.8356052E-002  0.1994502E+03  0.7818608E-02  0.1150445E+00
         21   -1    0    0  501  502  0.00000000000E+00  0.00000000000E+00  0.12666597870E+03  0.12666597870E+03  0.00000000000E+00 0.  1.
         21   -1    0    0  502  503 -0.00000000000E+00 -0.00000000000E+00 -0.33713739199E+03  0.33713739199E+03  0.00000000000E+00 0. -1.
         -6    2    1    2    0  503 -0.49965292712E+02  0.87205637302E+02 -0.16793513552E+03  0.25986780193E+03  0.17096113911E+03 0.  0.
        -24    2    3    3    0    0 -0.55191022419E+02  0.11273882207E+03 -0.17785850960E+03  0.23158679897E+03  0.79010790814E+02 0.  0.
          6    2    1    2  501    0  0.49965292712E+02 -0.87205637302E+02 -0.42536277768E+02  0.20393556875E+03  0.17227602161E+03 0.  0.
         24    2    5    5    0    0  0.18798443194E+02 -0.91469901424E+02 -0.86709190971E+02  0.14950310859E+03  0.78182935142E+02 0.  0.
          5    1    5    5  501    0  0.31166849518E+02  0.42642641220E+01  0.44172913203E+02  0.54432460152E+02  0.47000000000E+01 0. -1.
        -11    1    6    6    0    0 -0.18988392781E+02 -0.67553204333E+02 -0.76155231852E+02  0.10355488310E+03  0.00000000000E+00 0.  1.
         12    1    6    6    0    0  0.37786835974E+02 -0.23916697092E+02 -0.10553959119E+02  0.45948225491E+02  0.00000000000E+00 0. -1.
         -5    1    3    3    0  503  0.52257297067E+01 -0.25533184766E+02  0.99233740781E+01  0.28281002959E+02  0.47000000000E+01 0.  1.
         13    1    4    4    0    0 -0.42338500236E+02  0.21230948238E+02 -0.10039688130E+03  0.11100826789E+03  0.00000000000E+00 0. -1.
        -14    1    4    4    0    0 -0.12852522183E+02  0.91507873831E+02 -0.77461628302E+02  0.12057853109E+03  0.00000000000E+00 0.  1.
</event>
<event>
12    1  0.8356052E-002  0.1766538E+03  0.7818608E-02  0.1171963E+00
         21   -1    0    0  501  502  0.00000000000E+00  0.00000000000E+00  0.33247933936E+02  0.33247933936E+02  0.00000000000E+00 0. -1.
         21   -1    0    0  502  503 -0.00000000000E+00 -0.00000000000E+00 -0.93607246487E+03  0.93607246487E+03  0.00000000000E+00 0. -1.
         -6    2    1    2    0  503 -0.33264566751E+02 -0.25036154892E+01 -0.51937956769E+03  0.54859976078E+03  0.17347553919E+03 0.  0.
        -24    2    3    3    0    0  0.28895588019E+02 -0.50259931659E+02 -0.25750802896E+03  0.27520747235E+03  0.77895777293E+02 0.  0.
          6    2    1    2  501    0  0.33264566751E+02  0.25036154892E+01 -0.38344496324E+03  0.42072063803E+03  0.16989118852E+03 0.  0.
         24    2    5    5    0    0 -0.60513237484E+01  0.46507751524E+02 -0.32189246957E+03  0.33532214441E+03  0.81403864156E+02 0.  0.
          5    1    5    5  501    0  0.39315890500E+02 -0.44004136035E+02 -0.61552493673E+02  0.85398493613E+02  0.47000000000E+01 0. -1.
        -11    1    6    6    0    0 -0.37823996746E+01 -0.14663849634E+02 -0.11671973782E+02  0.19119885076E+02  0.00000000000E+00 0.  1.
         12    1    6    6    0    0 -0.22689240738E+01  0.61171601158E+02 -0.31022049579E+03  0.31620225934E+03  0.00000000000E+00 0. -1.
         -5    1    3    3    0  503 -0.62160154770E+02  0.47756316170E+02 -0.26187153873E+03  0.27339228843E+03  0.47000000000E+01 0.  1.
         11    1    4    4    0    0  0.79690222656E+01 -0.55891244802E+02 -0.89576018336E+02  0.10588295246E+03  0.00000000000E+00 0. -1.
        -12    1    4    4    0    0  0.20926565753E+02  0.56313131431E+01 -0.16793201062E+03  0.16932451989E+03  0.00000000000E+00 0.  1.
</event>
<event>
12    1  0.8356052E-002  0.2211644E+03  0.7818608E-02  0.1133091E+00
         21   -1    0    0  503  502  0.00000000000E+00  0.00000000000E+00  0.76794965286E+03  0.76794965286E+03  0.00000000000E+00 0.  1.
         21   -1    0    0  501  503 -0.00000000000E+00 -0.00000000000E+00 -0.13189196084E+03  0.13189196084E+03  0.00000000000E+00 0.  1.
          6    2    1    2  501    0 -0.12397830474E+03  0.61181645848E+02 -0.59083726047E+01  0.22084668938E+03  0.17211780126E+03 0.  0.
         24    2    3    3    0    0 -0.41912070360E+01  0.29331257116E+02  0.29260527572E+02  0.91919044643E+02  0.81945368593E+02 0.  0.
         -6    2    1    2    0  502  0.12397830474E+03 -0.61181645848E+02  0.64196606463E+03  0.67899492432E+03  0.17262637479E+03 0.  0.
        -24    2    5    5    0    0  0.20924145879E+02 -0.62230997344E+02  0.19289768261E+03  0.21822842973E+03  0.78125633931E+02 0.  0.
          5    1    3    3  501    0 -0.11978709771E+03  0.31850388732E+02 -0.35168900176E+02  0.12892764474E+03  0.47000000000E+01 0. -1.
        -11    1    4    4    0    0 -0.41078321862E+02  0.25768337687E+02  0.78587002577E+01  0.49124280390E+02  0.00000000000E+00 0.  1.
         12    1    4    4    0    0  0.36887114826E+02  0.35629194295E+01  0.21401827314E+02  0.42794764252E+02  0.00000000000E+00 0. -1.
         -5    1    5    5    0  502  0.10305415886E+03  0.10493514960E+01  0.44906838202E+03  0.46076649458E+03  0.47000000000E+01 0.  1.
         11    1    6    6    0    0 -0.28249849712E+02 -0.26929566434E+02  0.10002721534E+03  0.10737178105E+03  0.00000000000E+00 0. -1.
        -12    1    6    6    0    0  0.49173995591E+02 -0.35301430910E+02  0.92870467263E+02  0.11085664868E+03  0.00000000000E+00 0.  1.
</event>
<event>
12    1  0.8356052E-002  0.2027198E+03  0.7818608E-02  0.1147611E+00
         21   -1    0    0  503  502  0.00000000000E+00  0.00000000000E+00  0.24850778329E+03  0.24850778329E+03  0.00000000000E+00 0. -1.
         21   -1    0    0  501  503 -0.00000000000E+00 -0.00000000000E+00 -0.16518328057E+03  0.16518328057E+03  0.00000000000E+00 0. -1.
          6    2    1    2  501    0 -0.58702773311E+02 -0.90589674197E+02  0.31549127898E+02  0.20446393886E+03  0.17075611309E+03 0.  0.
         24    2    3    3    0    0 -0.45119911930E+02 -0.79979181605E+02  0.82284308401E+02  0.15067522985E+03  0.86601625492E+02 0.  0.
         -6    2    1    2    0  502  0.58702773311E+02  0.90589674197E+02  0.51775374827E+02  0.20922712500E+03  0.17158903150E+03 0.  0.
        -24    2    5    5    0    0  0.40770374938E+02  0.32767332711E+02  0.95080183657E+02  0.13464568928E+03  0.79707582775E+02 0.  0.
          5    1    3    3  501    0 -0.13582861382E+02 -0.10610492592E+02 -0.50735180503E+02  0.53788709010E+02  0.47000000000E+01 0. -1.
        -11    1    4    4    0    0 -0.13825579289E+02 -0.61215513869E+01  0.67421171845E+02  0.69095835237E+02  0.00000000000E+00 0.  1.
         12    1    4    4    0    0 -0.31294332640E+02 -0.73857630218E+02  0.14863136556E+02  0.81579394611E+02  0.00000000000E+00 0. -1.
         -5    1    5    5    0  502  0.17932398374E+02  0.57822341486E+02 -0.43304808830E+02  0.74581435721E+02  0.47000000000E+01 0.  1.
         11    1    6    6    0    0 -0.17357731777E+02  0.27406913762E+02  0.54935917318E+02  0.63799567287E+02  0.00000000000E+00 0. -1.
        -12    1    6    6    0    0  0.58128106715E+02  0.53604189486E+01  0.40144266338E+02  0.70846121993E+02  0.00000000000E+00 0.  1.
</event>
<event>
12    1  0.8356052E-002  0.2255761E+03  0.7818608E-02  0.1129915E+00
         21   -1    0    0  501  502  0.00000000000E+00  0.00000000000E+00  0.14034780422E+03  0.14034780422E+03  0.00000000000E+00 0. -1.
         21   -1    0    0  502  503 -0.00000000000E+00 -0.00000000000E+00 -0.37604013061E+03  0.37604013061E+03  0.00000000000E+00 0.  1.
         -6    2    1    2    0  503 -0.46222893110E+02 -0.13874108232E+03 -0.16882833056E+03  0.28175802129E+03  0.17175253592E+03 0.  0.
        -24    2    3    3    0    0 -0.41670629874E+02 -0.84874070561E+02 -0.20479646029E+02  0.12379663279E+03  0.77240799719E+02 0.  0.
          6    2    1    2  501    0  0.46222893110E+02  0.13874108232E+03 -0.66863995831E+02  0.23462991354E+03  0.17086473778E+03 0.  0.
         24    2    5    5    0    0  0.61762495224E+02  0.10379609630E+03 -0.10637258675E+03  0.17944250520E+03  0.79348913279E+02 0.  0.
          5    1    5    5  501    0 -0.15539602114E+02  0.34944986021E+02  0.39508590919E+02  0.55187408331E+02  0.47000000000E+01 0. -1.
        -13    1    6    6    0    0  0.33115855585E+02  0.59935817891E+02 -0.92574490144E+01  0.69098932840E+02  0.00000000000E+00 0.  1.
         14    1    6    6    0    0  0.28646639640E+02  0.43860278410E+02 -0.97115137735E+02  0.11034357236E+03  0.00000000000E+00 0. -1.
         -5    1    3    3    0  503 -0.45522632361E+01 -0.53867011761E+02 -0.14834868453E+03  0.15796138850E+03  0.47000000000E+01 0.  1.
         13    1    4    4    0    0  0.22227453039E+02 -0.32838348905E+02 -0.53358978673E+01  0.40011106376E+02  0.00000000000E+00 0. -1.
        -14    1    4    4    0    0 -0.63898082913E+02 -0.52035721655E+02 -0.15143748161E+02  0.83785526414E+02  0.00000000000E+00 0.  1.
</event>
<event>
12    1  0.8356052E-002  0.1764829E+03  0.7818608E-02  0.1171632E+00
         21   -1    0    0  503  502  0.00000000000E+00  0.00000000000E+00  0.52138222969E+03  0.52138222969E+03  0.00000000000E+00 0. -1.
         21   -1    0    0  501  503 -0.00000000000E+00 -0.00000000000E+00 -0.62911287843E+02  0.62911287843E+02  0.00000000000E+00 0. -1.
          6    2    1    2  501    0  0.27591691563E+02  0.17076238809E+02  0.15754883103E+03  0.23543776935E+03  0.17191977694E+03 0.  0.
         24    2    3    3    0    0 -0.90394986266E+01  0.75638708779E+02  0.10789258909E+03  0.15023659948E+03  0.71605155135E+02 0.  0.
         -6    2    1    2    0  502 -0.27591691563E+02 -0.17076238809E+02  0.30092211082E+03  0.34885574818E+03  0.17347425424E+03 0.  0.
        -24    2    5    5    0    0 -0.64494822285E+02  0.12774857579E+02  0.27678794044E+03  0.29540037247E+03  0.79542674041E+02 0.  0.
          5    1    3    3  501    0  0.36631190190E+02 -0.58562469970E+02  0.49656241934E+02  0.85201169868E+02  0.47000000000E+01 0. -1.
        -13    1    4    4    0    0 -0.19582544892E+02  0.52414401140E+02  0.11123324610E+03  0.12451337498E+03  0.00000000000E+00 0.  1.
         14    1    4    4    0    0  0.10543046265E+02  0.23224307639E+02 -0.33406570007E+01  0.25723224507E+02  0.00000000000E+00 0. -1.
         -5    1    5    5    0  502  0.36903130722E+02 -0.29851096388E+02  0.24134170377E+02  0.53455375711E+02  0.47000000000E+01 0.  1.
         13    1    6    6    0    0 -0.64154255019E+02  0.33929679510E+02  0.14744186206E+03  0.16433531050E+03  0.00000000000E+00 0. -1.
        -14    1    6    6    0    0 -0.34056726656E+00 -0.21154821931E+02  0.12934607838E+03  0.13106506197E+03  0.00000000000E+00 0.  1.
</event>
<event>
12    1  0.8356052E-002  0.3221778E+03  0.7818608E-02  0.1074725E+00
         21   -1    0    0  503  502  0.00000000000E+00  0.00000000000E+00  0.54344531184E+03  0.54344531184E+03  0.00000000000E+00 0.  1.
         21   -1    0    0  501  503 -0.00000000000E+00 -0.00000000000E+00 -0.81616593921E+03  0.81616593921E+03  0.00000000000E+00 0.  1.
          6    2    1    2  501    0  0.24163881096E+03  0.12401147481E+03 -0.73147624621E+03  0.79902651010E+03  0.17209794949E+03 0.  0.
         24    2    3    3    0    0  0.18966081138E+03  0.15639101938E+03 -0.55619713350E+03  0.61329820127E+03  0.79687251480E+02 0.  0.
         -6    2    1    2    0  502 -0.24163881096E+03 -0.12401147481E+03  0.45875561885E+03  0.56058474095E+03  0.17329273821E+03 0.  0.
        -24    2    5    5    0    0 -0.37401717945E+02 -0.31182539754E+02  0.93874739440E+02  0.13222724131E+03  0.79374664393E+02 0.  0.
          5    1    3    3  501    0  0.51977999574E+02 -0.32379544577E+02 -0.17527911271E+03  0.18572830883E+03  0.47000000000E+01 0. -1.
        -13    1    4    4    0    0  0.48108065684E+02  0.21275478189E+02 -0.20093795499E+03  0.20770915654E+03  0.00000000000E+00 0.  1.
         14    1    4    4    0    0  0.14155274570E+03  0.13511554119E+03 -0.35525917852E+03  0.40558904473E+03  0.00000000000E+00 0. -1.
         -5    1    5    5    0  502 -0.20423709301E+03 -0.92828935052E+02  0.36488087941E+03  0.42835749964E+03  0.47000000000E+01 0.  1.
         11    1    6    6    0    0 -0.17742947245E+02 -0.37101553128E+02  0.10212983956E+03  0.11009923501E+03  0.00000000000E+00 0. -1.
        -12    1    6    6    0    0 -0.19658770701E+02  0.59190133734E+01 -0.82551001164E+01  0.22128006298E+02  0.00000000000E+00 0.  1.
</event>
<event>
12    1  0.8356052E-002  0.1794455E+03  0.7818608E-02  0.1169149E+00
         21   -1    0    0  503  502  0.00000000000E+00  0.00000000000E+00  0.50777735862E+02  0.50777735862E+02  0.00000000000E+00 0. -1.
         21   -1    0    0  501  503 -0.00000000000E+00 -0.00000000000E+00 -0.82085818389E+03  0.82085818389E+03  0.00000000000E+00 0. -1.
          6    2    1    2  501    0  0.76685321028E+01 -0.34844271122E+02 -0.59653302350E+03  0.62199738430E+03  0.17249976327E+03 0.  0.
         24    2    3    3    0    0 -0.44721153710E+02  0.27859716088E+02 -0.31963134633E+03  0.33325338347E+03  0.78214286859E+02 0.  0.
         -6    2    1    2    0  502 -0.76685321028E+01  0.34844271122E+02 -0.17354742453E+03  0.24963853546E+03  0.17586290174E+03 0.  0.
        -24    2    5    5    0    0 -0.73722302173E+01 -0.50093938225E+02 -0.98569373668E+02  0.13624371497E+03  0.79263333382E+02 0.  0.
          5    1    3    3  501    0  0.52389685812E+02 -0.62703987210E+02 -0.27690167718E+03  0.28874400083E+03  0.47000000000E+01 0. -1.
        -13    1    4    4    0    0 -0.45100641968E+02  0.88594922784E+01 -0.75546285555E+02  0.88429631744E+02  0.00000000000E+00 0.  1.
         14    1    4    4    0    0  0.37948825828E+00  0.19000223810E+02 -0.24408506077E+03  0.24482375172E+03  0.00000000000E+00 0. -1.
         -5    1    5    5    0  502 -0.29630188557E+00  0.84938209348E+02 -0.74978050860E+02  0.11339482048E+03  0.47000000000E+01 0.  1.
         13    1    6    6    0    0 -0.86305179749E+01 -0.27184928626E+02  0.60343296187E+01  0.29153375771E+02  0.00000000000E+00 0. -1.
        -14    1    6    6    0    0  0.12582877576E+01 -0.22909009600E+02 -0.10460370329E+03  0.10709033920E+03  0.00000000000E+00 0.  1.
</event>
<event>
12    1  0.8356052E-002  0.3860005E+03  0.7818608E-02  0.1048780E+00
         21   -1    0    0  501  502  0.00000000000E+00  0.00000000000E+00  0.93749962972E+03  0.93749962972E+03  0.00000000000E+00 0.  1.
         21   -1    0    0  502  503 -0.00000000000E+00 -0.00000000000E+00 -0.16054837710E+03  0.16054837710E+03  0.00000000000E+00 0. -1.
         -6    2    1    2    0  503 -0.32617354304E+03  0.11411051496E+03  0.44652142631E+03  0.58993358503E+03  0.17096742609E+03 0.  0.
        -24    2    3    3    0    0 -0.72497995958E+02  0.59542219250E+02  0.11450234121E+03  0.16852197513E+03  0.80545854445E+02 0.  0.
          6    2    1    2  501    0  0.32617354304E+03 -0.11411051496E+03  0.33042982630E+03  0.50811442178E+03  0.17200583045E+03 0.  0.
         24    2    5    5    0    0  0.27140808900E+03 -0.31883198687E+02  0.26830654118E+03  0.39131553886E+03  0.80377619878E+02 0.  0.
          5    1    5    5  501    0  0.54765454045E+02 -0.82227316277E+02  0.62123285120E+02  0.11679888293E+03  0.47000000000E+01 0. -1.
        -13    1    6    6    0    0  0.12261814225E+03  0.25044091571E+02  0.10790197755E+03  0.16524300920E+03  0.00000000000E+00 0.  1.
         14    1    6    6    0    0  0.14878994674E+03 -0.56927290258E+02  0.16040456364E+03  0.22607252965E+03  0.00000000000E+00 0. -1.
         -5    1    3    3    0  503 -0.25367554708E+03  0.54568295714E+02  0.33201908510E+03  0.42141160990E+03  0.47000000000E+01 0.  1.
         11    1    4    4    0    0 -0.96902328630E+01 -0.91861782941E+01  0.58212490418E+02  0.59724203848E+02  0.00000000000E+00 0. -1.
        -12    1    4    4    0    0 -0.62807763095E+02  0.68728397544E+02  0.56289850791E+02  0.10879777128E+03  0.00000000000E+00 0.  1.
</event>
<event>
12    1  0.8356052E-002  0.2561274E+03  0.7818608E-02  0.1109564E+00
         21   -1    0    0  503  502  0.00000000000E+00  0.00000000000E+00  0.50090347381E+03  0.50090347381E+03  0.00000000000E+00 0.  1.
         21   -1    0    0  501  503 -0.00000000000E+00 -0.00000000000E+00 -0.21721479984E+03  0.21721479984E+03  0.00000000000E+00 0. -1.
          6    2    1    2  501    0  0.18183150395E+03 -0.52653168161E+02 -0.84645360223E+02  0.26975185114E+03  0.17252875772E+03 0.  0.
         24    2    3    3    0    0  0.14214083100E+03 -0.68851315021E+02  0.11894204812E+01  0.17369234323E+03  0.72270989753E+02 0.  0.
         -6    2    1    2    0  502 -0.18183150395E+03  0.52653168161E+02  0.36833403420E+03  0.44836642251E+03  0.17183549151E+03 0.  0.
        -24    2    5    5    0    0 -0.67159129190E+02  0.41076780100E+02  0.28442970668E+03  0.30572774448E+03  0.79821959424E+02 0.  0.
          5    1    3    3  501    0  0.39690672955E+02  0.16198146861E+02 -0.85834780704E+02  0.96059507910E+02  0.47000000000E+01 0. -1.
        -11    1    4    4    0    0 -0.23630730359E+01 -0.73750774200E+01  0.14140075239E+02  0.16121960454E+02  0.00000000000E+00 0.  1.
         12    1    4    4    0    0  0.14450390403E+03 -0.61476237601E+02 -0.12950654757E+02  0.15757038278E+03  0.00000000000E+00 0. -1.
         -5    1    5    5    0  502 -0.11467237476E+03  0.11576388060E+02  0.83904327515E+02  0.14263867803E+03  0.47000000000E+01 0.  1.
         11    1    6    6    0    0 -0.36101066530E+02  0.10275517973E+02  0.31376696486E+02  0.48922084549E+02  0.00000000000E+00 0. -1.
        -12    1    6    6    0    0 -0.31058062660E+02  0.30801262127E+02  0.25305301020E+03  0.25680565993E+03  0.00000000000E+00 0.  1.
</event>
<event>
12    1  0.8356052E-002  0.1827950E+03  0.7818608E-02  0.1165177E+00
         21   -1    0    0  503  502  0.00000000000E+00  0.00000000000E+00  0.50118179895E+03  0.50118179895E+03  0.00000000000E+00 0.  1.
         21   -1    0    0  501  503 -0.00000000000E+00 -0.00000000000E+00 -0.81482930766E+02  0.81482930766E+02  0.00000000000E+00 0.  1.
          6    2    1    2  501    0  0.57251223657E+02 -0.10854458715E+02  0.85404178104E+02  0.20176192176E+03  0.17325841265E+03 0.  0.
         24    2    3    3    0    0  0.23651160336E+02 -0.82567013889E+02  0.54830769115E+02  0.11674146445E+03  0.56969001330E+02 0.  0.
         -6    2    1    2    0  502 -0.57251223657E+02  0.10854458715E+02  0.33429469007E+03  0.38090280795E+03  0.17302741807E+03 0.  0.
        -24    2    5    5    0    0  0.20722636060E+02  0.48378507307E+02  0.18734191547E+03  0.21030039007E+03  0.79745552581E+02 0.  0.
          5    1    3    3  501    0  0.33600063322E+02  0.71712555174E+02  0.30573408989E+02  0.85020457315E+02  0.47000000000E+01 0. -1.
        -11    1    4    4    0    0  0.65671719669E+01 -0.36254882895E+02 -0.71228294706E+01  0.37527043329E+02  0.00000000000E+00 0.  1.
         12    1    4    4    0    0  0.17083988369E+02 -0.46312130993E+02  0.61953598586E+02  0.79214421121E+02  0.00000000000E+00 0. -1.
         -5    1    5    5    0  502 -0.77973859717E+02 -0.37524048592E+02  0.14695277461E+03  0.17060241788E+03  0.47000000000E+01 0.  1.
         11    1    6    6    0    0  0.30880676967E+02  0.17139280448E+02  0.21742186434E+02  0.41474013733E+02  0.00000000000E+00 0. -1.
        -12    1    6    6    0    0 -0.10158040907E+02  0.31239226859E+02  0.16559972903E+03  0.16882637633E+03  0.00000000000E+00 0.  1.
</event>
<event>
12    1  0.8356052E-002  0.2018564E+03  0.7818608E-02  0.1148337E+00
         21   -1    0    0  501  502  0.00000000000E+00  0.00000000000E+00  0.90504568246E+03  0.90504568246E+03  0.00000000000E+00 0.  1.
         21   -1    0    0  502  503 -0.00000000000E+00 -0.00000000000E+00 -0.44855384204E+02  0.44855384204E+02  0.00000000000E+00 0. -1.
         -6    2    1    2    0  503 -0.53790856276E+02  0.90887164116E+02  0.43116992507E+03  0.47608141620E+03  0.17202348022E+03 0.  0.
        -24    2    3    3    0    0 -0.21125572857E+02  0.76600429570E+02  0.42444669411E+03  0.43949694738E+03  0.81784197548E+02 0.  0.
          6    2    1    2  501    0  0.53790856276E+02 -0.90887164116E+02  0.42902037318E+03  0.47381965046E+03  0.17115095015E+03 0.  0.
         24    2    5    5    0    0  0.55974414641E+02 -0.17401224867E+02  0.35976040981E+03  0.37270593368E+03  0.77757461459E+02 0.  0.
          5    1    5    5  501    0 -0.21835583647E+01 -0.73485939250E+02  0.69259963368E+02  0.10111371678E+03  0.47000000000E+01 0. -1.
        -13    1    6    6    0    0  0.23740480981E+02  0.28443851985E+02  0.19995490191E+03  0.20335836829E+03  0.00000000000E+00 0.  1.
         14    1    6    6    0    0  0.32233933660E+02 -0.45845076852E+02  0.15980550790E+03  0.16934756540E+03  0.00000000000E+00 0. -1.
         -5    1    3    3    0  503 -0.32665283419E+02  0.14286734547E+02  0.67232309574E+01  0.36584468827E+02  0.47000000000E+01 0.  1.
         11    1    4    4    0    0  0.55288145448E+01 -0.16334430606E+02  0.71192753547E+02  0.73251549957E+02  0.00000000000E+00 0. -1.
        -12    1    4    4    0    0 -0.26654387401E+02  0.92934860175E+02  0.35325394057E+03  0.36624539742E+03  0.00000000000E+00 0.  1.
</event>
<event>
12    1  0.8356052E-002  0.1987058E+03  0.7818608E-02  0.1150850E+00
         21   -1    0    0  501  502  0.00000000000E+00  0.00000000000E+00  0.45049031894E+03  0.45049031894E+03  0.00000000000E+00 0. -1.
         21   -1    0    0  502  503 -0.00000000000E+00 -0.00000000000E+00 -0.87731817181E+02  0.87731817181E+02  0.00000000000E+00 0.  1.
         -6    2    1    2    0  503  0.10919607806E+02 -0.98999183292E+02  0.17164343651E+03  0.26257466861E+03  0.17194159233E+03 0.  0.
        -24    2    3    3    0    0  0.23786184092E+02 -0.31578746905E+02  0.17102029052E+03  0.19377392487E+03  0.82081632419E+02 0.  0.
          6    2    1    2  501    0 -0.10919607806E+02  0.98999183292E+02  0.19111506525E+03  0.27564746751E+03  0.17186181092E+03 0.  0.
         24    2    5    5    0    0  0.47103749125E+02  0.10437549733E+03  0.12000123657E+03  0.18358834884E+03  0.78685306286E+02 0.  0.
          5    1    5    5  501    0 -0.58023356931E+02 -0.53763140342E+01  0.71113828682E+02  0.92059118679E+02  0.47000000000E+01 0. -1.
        -11    1    6    6    0    0 -0.40935092612E+01  0.36929655508E+02  0.53896321779E+00  0.37159746438E+02  0.00000000000E+00 0.  1.
         12    1    6    6    0    0  0.51197258386E+02  0.67445841818E+02  0.11946227336E+03  0.14642860240E+03  0.00000000000E+00 0. -1.
         -5    1    3    3    0  503 -0.12866576285E+02 -0.67420436386E+02  0.62314598495E+00  0.68800743737E+02  0.47000000000E+01 0.  1.
         11    1    4    4    0    0 -0.21500533174E+02  0.38321200305E+01  0.10022823155E+03  0.10258000034E+03  0.00000000000E+00 0. -1.
        -12    1    4    4    0    0  0.45286717265E+02 -0.35410866936E+02  0.70792058976E+02  0.91193924534E+02  0.00000000000E+00 0.  1.
</event>
<event>
12    1  0.8356052E-002  0.1779448E+03  0.7818608E-02  0.1169980E+00
         21   -1    0    0  503  502  0.00000000000E+00  0.00000000000E+00  0.39994942763E+02  0.39994942763E+02  0.00000000000E+00 0. -1.
         21   -1    0    0  501  503 -0.00000000000E+00 -0.00000000000E+00 -0.80215020197E+03  0.80215020197E+03  0.00000000000E+00 0. -1.
          6    2    1    2  501    0  0.44788345736E+02  0.11828622624E+02 -0.43655693545E+03  0.47143005966E+03  0.17180928679E+03 0.  0.
         24    2    3    3    0    0  0.48169921900E+02 -0.56203109028E+02 -0.24040819912E+03  0.26373757464E+03  0.79260805132E+02 0.  0.
         -6    2    1    2    0  502 -0.44788345736E+02 -0.11828622624E+02 -0.32559832376E+03  0.37071508508E+03  0.17108329447E+03 0.  0.
        -24    2    5    5    0    0 -0.82727474634E+02 -0.46107649719E+02 -0.20276064037E+03  0.23757750339E+03  0.79758650994E+02 0.  0.
          5    1    3    3  501    0 -0.33815761647E+01  0.68031731652E+02 -0.19614873633E+03  0.20769248502E+03  0.47000000000E+01 0. -1.
        -13    1    4    4    0    0 -0.21811709327E+02 -0.80494780706E+01 -0.44586154804E+02  0.50283893656E+02  0.00000000000E+00 0.  1.
         14    1    4    4    0    0  0.69981631228E+02 -0.48153630957E+02 -0.19582204432E+03  0.21345368098E+03  0.00000000000E+00 0. -1.
         -5    1    5    5    0  502  0.37939128899E+02  0.34279027096E+02 -0.12283768338E+03  0.13313758169E+03  0.47000000000E+01 0.  1.
         13    1    6    6    0    0 -0.41842351536E+02 -0.15216085704E+02 -0.21938775100E+02  0.49634881879E+02  0.00000000000E+00 0. -1.
        -14    1    6    6    0    0 -0.40885123098E+02 -0.30891564015E+02 -0.18082186527E+03  0.18794262151E+03  0.00000000000E+00 0.  1.
</event>
<event>
12    1  0.8356052E-002  0.2367319E+03  0.7818608E-02  0.1122063E+00
         21   -1    0    0  501  502  0.00000000000E+00  0.00000000000E+00  0.15172242229E+03  0.15172242229E+03  0.00000000000E+00 0.  1.
         21   -1    0    0  502  503 -0.00000000000E+00 -0.00000000000E+00 -0.43201509088E+03  0.43201509088E+03  0.00000000000E+00 0.  1.
         -6    2    1    2    0  503 -0.16233805070E+03 -0.72430528620E+01 -0.25199473755E+03  0.34575040730E+03  0.17215078238E+03 0.  0.
        -24    2    3    3    0    0 -0.31834738693E+02 -0.54120563066E+01 -0.16694152580E+03  0.18989596937E+03  0.84547413945E+02 0.  0.
          6    2    1    2  501    0  0.16233805070E+03  0.72430528620E+01 -0.28297931035E+02  0.23798710586E+03  0.17155461269E+03 0.  0.
         24    2    5    5    0    0  0.14145013595E+03  0.92094495093E+01  0.39556847694E+02  0.16680752526E+03  0.78530575968E+02 0.  0.
          5    1    5    5  501    0  0.20887914750E+02 -0.19663966473E+01 -0.67854778730E+02  0.71179580603E+02  0.47000000000E+01 0. -1.
        -11    1    6    6    0    0  0.43214114658E+02 -0.25429358435E+02 -0.10517986905E+02  0.51232216668E+02  0.00000000000E+00 0.  1.
         12    1    6    6    0    0  0.98236021292E+02  0.34638807944E+02  0.50074834600E+02  0.11557530859E+03  0.00000000000E+00 0. -1.
         -5    1    3    3    0  503 -0.13050331201E+03 -0.18309965555E+01 -0.85053211752E+02  0.15585443793E+03  0.47000000000E+01 0.  1.
         11    1    4    4    0    0 -0.24626443697E+01  0.22614862138E+01  0.99094567641E+01  0.10458311075E+02  0.00000000000E+00 0. -1.
        -12    1    4    4    0    0 -0.29372094324E+02 -0.76735425204E+01 -0.17685098257E+03  0.17943765830E+03  0.00000000000E+00 0.  1.
</event>
<event>
12    1  0.8356052E-002  0.1871473E+03  0.7818608E-02  0.1161128E+00
         21   -1    0    0  501  502  0.00000000000E+00  0.00000000000E+00  0.58894526495E+02  0.58894526495E+02  0.00000000000E+00 0.  1.
         21   -1    0    0  502  503 -0.00000000000E+00 -0.00000000000E+00 -0.12835260351E+04  0.12835260351E+04  0.00000000000E+00 0.  1.
         -6    2    1    2    0  503  0.73232817954E+02 -0.58560442274E+01 -0.11041417918E+04  0.11198404994E+04  0.17180311036E+03 0.  0.
        -24    2    3    3    0    0  0.34151133533E+02 -0.30124801017E+02 -0.25760202338E+03  0.27203862385E+03  0.74648555617E+02 0.  0.
          6    2    1    2  501    0 -0.73232817954E+02  0.58560442274E+01 -0.12048971682E+03  0.22258006224E+03  0.17212429628E+03 0.  0.
         24    2    5    5    0    0  0.32705093202E+01 -0.38783444651E+02 -0.94825237743E+02  0.13024264546E+03  0.80352157249E+02 0.  0.
          5    1    5    5  501    0 -0.76503327274E+02  0.44639488878E+02 -0.25664479072E+02  0.92337416779E+02  0.47000000000E+01 0. -1.
        -11    1    6    6    0    0 -0.24191362619E+02  0.14585169787E+02 -0.21583593492E+02  0.35549974840E+02  0.00000000000E+00 0.  1.
         12    1    6    6    0    0  0.27461871940E+02 -0.53368614438E+02 -0.73241644251E+02  0.94692670625E+02  0.00000000000E+00 0. -1.
         -5    1    3    3    0  503  0.39081684421E+02  0.24268756789E+02 -0.84653976843E+03  0.84780187552E+03  0.47000000000E+01 0.  1.
         13    1    4    4    0    0  0.30806183241E+02  0.76993178378E+00 -0.22461709832E+03  0.22672109425E+03  0.00000000000E+00 0. -1.
        -14    1    4    4    0    0  0.33449502917E+01 -0.30894732800E+02 -0.32984925064E+02  0.45317529597E+02  0.00000000000E+00 0.  1.
</event>
<event>
12    1  0.8356052E-002  0.2888486E+03  0.7818608E-02  0.1090984E+00
         21   -1    0    0  501  502  0.00000000000E+00  0.00000000000E+00  0.70639593020E+02  0.70639593020E+02  0.00000000000E+00 0.  1.
         21   -1    0    0  502  503 -0.00000000000E+00 -0.00000000000E+00 -0.11851380297E+04  0.11851380297E+04  0.00000000000E+00 0. -1.
         -6    2    1    2    0  503  0.22769622501E+03  0.45302618293E+02 -0.51659635733E+03  0.59186593487E+03  0.17185921666E+03 0.  0.
        -24    2    3    3    0    0  0.13637791601E+03 -0.42057775722E+02 -0.28391109121E+03  0.32703505474E+03  0.77321580727E+02 0.  0.
          6    2    1    2  501    0 -0.22769622501E+03 -0.45302618293E+02 -0.59790207939E+03  0.66391168789E+03  0.17144659421E+03 0.  0.
         24    2    5    5    0    0 -0.99312508746E+02  0.21118961417E+02 -0.18556098755E+03  0.22694318688E+03  0.82227398386E+02 0.  0.
          5    1    5    5  501    0 -0.12838371626E+03 -0.66421579711E+02 -0.41234109184E+03  0.43696850101E+03  0.47000000000E+01 0. -1.
        -13    1    6    6    0    0 -0.10619622790E+03  0.83266650005E-02 -0.13532637099E+03  0.17201995691E+03  0.00000000000E+00 0.  1.
         14    1    6    6    0    0  0.68837191589E+01  0.21110634752E+02 -0.50234616560E+02  0.54923229967E+02  0.00000000000E+00 0. -1.
         -5    1    3    3    0  503  0.91318308998E+02  0.87360394016E+02 -0.23268526612E+03  0.26483088013E+03  0.47000000000E+01 0.  1.
         13    1    4    4    0    0  0.66843208505E+02  0.75593525929E+01 -0.18214217311E+03  0.19416727211E+03  0.00000000000E+00 0. -1.
        -14    1    4    4    0    0  0.69534707506E+02 -0.49617128315E+02 -0.10176891810E+03  0.13286778263E+03  0.00000000000E+00 0.  1.
</event>
<event>
12    1  0.8356052E-002  0.2425129E+03  0.7818608E-02  0.1118186E+00
         21   -1    0    0  501  502  0.00000000000E+00  0.00000000000E+00  0.34705853254E+02  0.34705853254E+02  0.00000000000E+00 0.  1.
         21   -1    0    0  502  503 -0.00000000000E+00 -0.00000000000E+00 -0.17504079803E+04  0.17504079803E+04  0.00000000000E+00 0. -1.
         -6    2    1    2    0  503 -0.15888658421E+03  0.61452510500E+02 -0.69571188315E+03  0.73676831400E+03  0.17260117747E+03 0.  0.
        -24    2    3    3    0    0 -0.11276011596E+03 -0.21697890519E+01 -0.58395895161E+03  0.60007063376E+03  0.79731779121E+02 0.  0.
          6    2    1    2  501    0  0.15888658421E+03 -0.61452510500E+02 -0.10199902439E+04  0.10483455195E+04  0.17212458584E+03 0.  0.
         24    2    5    5    0    0  0.64146966761E+02 -0.26967544708E+02 -0.24227947140E+03  0.26411280943E+03  0.78829893006E+02 0.  0.
          5    1    5    5  501    0  0.94739617447E+02 -0.34484965791E+02 -0.77771077249E+03  0.78423271012E+03  0.47000000000E+01 0. -1.
        -11    1    6    6    0    0 -0.54751078346E+01  0.18914425731E+02 -0.69992875296E+02  0.72709936726E+02  0.00000000000E+00 0.  1.
         12    1    6    6    0    0  0.69622074596E+02 -0.45881970440E+02 -0.17228659610E+03  0.19140287270E+03  0.00000000000E+00 0. -1.
         -5    1    3    3    0  503 -0.46126468249E+02  0.63622299552E+02 -0.11175293154E+03  0.13669768023E+03  0.47000000000E+01 0.  1.
         11    1    4    4    0    0  0.81559899839E+01 -0.29970301901E+01 -0.12978540176E+03  0.13007595040E+03  0.00000000000E+00 0. -1.
        -12    1    4    4    0    0 -0.12091610594E+03  0.82724113818E+00 -0.45417354985E+03  0.46999468337E+03  0.00000000000E+00 0.  1.
</event>
<event>
12    1  0.8356052E-002  0.1876755E+03  0.7818608E-02  0.1162887E+00
         21   -1    0    0  501  502  0.00000000000E+00  0.00000000000E+00  0.14058399133E+03  0.14058399133E+03  0.00000000000E+00 0.  1.
         21   -1    0    0  502  503 -0.00000000000E+00 -0.00000000000E+00 -0.24048022595E+03  0.24048022595E+03  0.00000000000E+00 0.  1.
         -6    2    1    2    0  503  0.51653539954E+02 -0.56410276045E+02 -0.72040815238E+02  0.20102731025E+03  0.17138230064E+03 0.  0.
        -24    2    3    3    0    0  0.43796905118E+02  0.34236211150E+02 -0.47061801694E+02  0.10655745543E+03  0.77777831532E+02 0.  0.
          6    2    1    2  501    0 -0.51653539954E+02  0.56410276045E+02 -0.27855419382E+02  0.18003690703E+03  0.16058379766E+03 0.  0.
         24    2    5    5    0    0 -0.38294033655E+02 -0.13225525398E+02  0.11772032210E+02  0.98673240872E+02  0.89199104179E+02 0.  0.
          5    1    5    5  501    0 -0.13359506299E+02  0.69635801443E+02 -0.39627451592E+02  0.81363666159E+02  0.47000000000E+01 0. -1.
        -11    1    6    6    0    0  0.15540015096E+02  0.11296849682E+02  0.30999941035E+02  0.36470635121E+02  0.00000000000E+00 0.  1.
         12    1    6    6    0    0 -0.53834048751E+02 -0.24522375080E+02 -0.19227908825E+02  0.62202605751E+02  0.00000000000E+00 0. -1.
         -5    1    3    3    0  503  0.78566348362E+01 -0.90646487194E+02 -0.24979013544E+02  0.94469854818E+02  0.47000000000E+01 0.  1.
         11    1    4    4    0    0  0.18921057870E+01  0.19062940378E+02 -0.57650195309E+02  0.60749656619E+02  0.00000000000E+00 0. -1.
        -12    1    4    4    0    0  0.41904799331E+02  0.15173270772E+02  0.10588393614E+02  0.45807798814E+02  0.00000000000E+00 0.  1.
</event>
<event>
12    1  0.8356052E-002  0.1950312E+03  0.7818608E-02  0.1154479E+00
         21   -1    0    0  501  502  0.00000000000E+00  0.00000000000E+00  0.70045101674E+02  0.70045101674E+02  0.00000000000E+00 0.  1.
         21   -1    0    0  502  503 -0.00000000000E+00 -0.00000000000E+00 -0.14581996401E+04  0.14581996401E+04  0.00000000000E+00 0.  1.
         -6    2    1    2    0  503 -0.61092293474E+01  0.86922845839E+02 -0.13028574287E+04  0.13173741464E+04  0.17448283096E+03 0.  0.
        -24    2    3    3    0    0 -0.18642293859E+02 -0.21251581016E+02 -0.42506397573E+03  0.43283911578E+03  0.76623442047E+02 0.  0.
          6    2    1    2  501    0  0.61092293474E+01 -0.86922845839E+02 -0.85297109697E+02  0.21087059534E+03  0.17204042328E+03 0.  0.
         24    2    5    5    0    0 -0.42525893700E+02 -0.74670597369E+02 -0.10472585415E+03  0.15687930995E+03  0.79116772024E+02 0.  0.
          5    1    5    5  501    0  0.48635123047E+02 -0.12252248471E+02  0.19428744458E+02  0.53991285386E+02  0.47000000000E+01 0. -1.
        -13    1    6    6    0    0  0.22678997726E+02 -0.27566822847E+02 -0.24671274280E+02  0.43392838514E+02  0.00000000000E+00 0.  1.
         14    1    6    6    0    0 -0.65204891425E+02 -0.47103774522E+02 -0.80054579875E+02  0.11348647144E+03  0.00000000000E+00 0. -1.
         -5    1    3    3    0  503  0.12533064512E+02  0.10817442686E+03 -0.87779345299E+03  0.88453503065E+03  0.47000000000E+01 0.  1.
         11    1    4    4    0    0 -0.26769691482E+02 -0.12655345880E+01 -0.39459898567E+03  0.39550799922E+03  0.00000000000E+00 0. -1.
        -12    1    4    4    0    0  0.81273976223E+01 -0.19986046428E+02 -0.30464990058E+02  0.37331116554E+02  0.00000000000E+00 0.  1.
</event>
<event>
12    1  0.8356052E-002  0.2397535E+03  0.7818608E-02  0.1120125E+00
         21   -1    0    0  503  502  0.00000000000E+00  0.00000000000E+00  0.37234448153E+02  0.37234448153E+02  0.00000000000E+00 0. -1.
         21   -1    0    0  501  503 -0.00000000000E+00 -0.00000000000E+00 -0.28404855769E+04  0.28404855769E+04  0.00000000000E+00 0. -1.
          6    2    1    2  501    0 -0.16485566344E+03  0.18054189798E+00 -0.23777965732E+04  0.23898531962E+04  0.17408139912E+03 0.  0.
         24    2    3    3    0    0 -0.87831247243E+02 -0.64445620185E+02 -0.12207842621E+04  0.12284708820E+04  0.83420186890E+02 0.  0.
         -6    2    1    2    0  502  0.16485566344E+03 -0.18054189798E+00 -0.42545455552E+03  0.48786682882E+03  0.17269928050E+03 0.  0.
        -24    2    5    5    0    0  0.10953065665E+03 -0.35710032111E+02 -0.15198154810E+03  0.20656134214E+03  0.79353802447E+02 0.  0.
          5    1    3    3  501    0 -0.77024416202E+02  0.64626162083E+02 -0.11570123112E+04  0.11613823142E+04  0.47000000000E+01 0. -1.
        -13    1    4    4    0    0 -0.25290539672E+02 -0.43664806067E+02 -0.87554003579E+03  0.87699291956E+03  0.00000000000E+00 0.  1.
         14    1    4    4    0    0 -0.62540707571E+02 -0.20780814118E+02 -0.34524422626E+03  0.35147796247E+03  0.00000000000E+00 0. -1.
         -5    1    5    5    0  502  0.55325006794E+02  0.35529490213E+02 -0.27347300742E+03  0.28130548669E+03  0.47000000000E+01 0.  1.
         11    1    6    6    0    0  0.34676344446E+02  0.24788621129E+02 -0.58566768631E+02  0.72436116610E+02  0.00000000000E+00 0. -1.
        -12    1    6    6    0    0  0.74854312205E+02 -0.60498653240E+02 -0.93414779469E+02  0.13412522553E+03  0.00000000000E+00 0.  1.
</event>
<event>
12    1  0.8356052E-002  0.2069805E+03  0.7818608E-02  0.1145510E+00
         21   -1    0    0  503  502  0.00000000000E+00  0.00000000000E+00  0.11998376294E+03  0.11998376294E+03  0.00000000000E+00 0. -1.
         21   -1    0    0  501  503 -0.00000000000E+00 -0.00000000000E+00 -0.47007995010E+03  0.47007995010E+03  0.00000000000E+00 0. -1.
          6    2    1    2  501    0  0.80437982317E+02 -0.65725845056E+02 -0.32527189749E+03  0.38159984484E+03  0.17037158971E+03 0.  0.
         24    2    3    3    0    0  0.60297702164E+01  0.12014120611E+02 -0.20420328721E+03  0.21955114017E+03  0.79517440984E+02 0.  0.
         -6    2    1    2    0  502 -0.80437982317E+02  0.65725845056E+02 -0.24824289665E+02  0.20846386820E+03  0.17902732551E+03 0.  0.
        -24    2    5    5    0    0 -0.10604682493E+03  0.43948265976E+01  0.13700601612E+02  0.13149917569E+03  0.76413893649E+02 0.  0.
          5    1    3    3  501    0  0.74408212101E+02 -0.77739965668E+02 -0.12106861028E+03  0.16204870467E+03  0.47000000000E+01 0. -1.
        -11    1    4    4    0    0  0.28275893665E+02  0.37020124654E+02 -0.10547198963E+03  0.11530115519E+03  0.00000000000E+00 0.  1.
         12    1    4    4    0    0 -0.22246123449E+02 -0.25006004043E+02 -0.98731297587E+02  0.10424998499E+03  0.00000000000E+00 0. -1.
         -5    1    5    5    0  502  0.25608842616E+02  0.61331018459E+02 -0.38524891277E+02  0.76964692510E+02  0.47000000000E+01 0.  1.
         11    1    6    6    0    0 -0.19749017281E+02 -0.29324319038E+02 -0.82033817414E+01  0.36293730073E+02  0.00000000000E+00 0. -1.
        -12    1    6    6    0    0 -0.86297807652E+02  0.33719145635E+02  0.21903983353E+02  0.95205445614E+02  0.00000000000E+00 0.  1.
</event>
<event>
12    1  0.8356052E-002  0.2399552E+03  0.7818608E-02  0.1119934E+00
         21   -1    0    0  501  502  0.00000000000E+00  0.00000000000E+00  0.18921992702E+03  0.18921992702E+03  0.00000000000E+00 0. -1.
         21   -1    0    0  502  503 -0.00000000000E+00 -0.00000000000E+00 -0.38007461620E+03  0.38007461620E+03  0.00000000000E+00 0. -1.
         -6    2    1    2    0  503  0.15101659175E+02 -0.16586053387E+03 -0.22313050562E+03  0.32717844816E+03  0.17181599925E+03 0.  0.
        -24    2    3    3    0    0  0.65349335873E+02 -0.15323018061E+03 -0.19313996237E+03  0.26712948879E+03  0.79404626868E+02 0.  0.
          6    2    1    2  501    0 -0.15101659175E+02  0.16586053387E+03  0.32275816438E+02  0.24211609506E+03  0.17274460442E+03 0.  0.
         24    2    5    5    0    0  0.11203346025E+02  0.15358265677E+03 -0.27535089254E+02  0.17546675895E+03  0.79481160869E+02 0.  0.
          5    1    5    5  501    0 -0.26305005199E+02  0.12277877105E+02  0.59810905692E+02  0.66649336114E+02  0.47000000000E+01 0. -1.
        -13    1    6    6    0    0  0.17531793201E+02  0.16033370400E+03 -0.18183963396E+02  0.16231117317E+03  0.00000000000E+00 0.  1.
         14    1    6    6    0    0 -0.63284471767E+01 -0.67510472296E+01 -0.93511258586E+01  0.13155585779E+02  0.00000000000E+00 0. -1.
         -5    1    3    3    0  503 -0.50247676698E+02 -0.12630353257E+02 -0.29990543252E+02  0.60048959371E+02  0.47000000000E+01 0.  1.
         13    1    4    4    0    0  0.77451982739E+02 -0.87424891893E+02 -0.13476145061E+03  0.17833275056E+03  0.00000000000E+00 0. -1.
        -14    1    4    4    0    0 -0.12102646866E+02 -0.65805288722E+02 -0.58378511756E+02  0.88796738227E+02  0.00000000000E+00 0.  1.
</event>
<event>
12    1  0.8356052E-002  0.1944811E+03  0.7818608E-02  0.1154648E+00
         21   -1    0    0  503  502  0.00000000000E+00  0.00000000000E+00  0.12299311140E+03  0.12299311140E+03  0.00000000000E+00 0. -1.
         21   -1    0    0  501  503 -0.00000000000E+00 -0.00000000000E+00 -0.11149761578E+04  0.11149761578E+04  0.00000000000E+00 0. -1.
          6    2    1    2  501    0  0.82271206474E+02  0.36015035474E+02 -0.10234033244E+04  0.10417184098E+04  0.17250288880E+03 0.  0.
         24    2    3    3    0    0  0.17955702263E+02  0.58651268232E+01 -0.20259021049E+03  0.21782414528E+03  0.77767331990E+02 0.  0.
         -6    2    1    2    0  502 -0.82271206474E+02 -0.36015035474E+02  0.31420278026E+02  0.19625085941E+03  0.17164361844E+03 0.  0.
        -24    2    5    5    0    0 -0.64417863507E+00 -0.59217111931E+02  0.49880658875E+02  0.10927854377E+03  0.77114451871E+02 0.  0.
          5    1    3    3  501    0  0.64315504211E+02  0.30149908651E+02 -0.82081311395E+03  0.82389426452E+03  0.47000000000E+01 0. -1.
        -11    1    4    4    0    0  0.47256375591E+02 -0.59206818003E+01 -0.13663398799E+03  0.14469646223E+03  0.00000000000E+00 0.  1.
         12    1    4    4    0    0 -0.29300673328E+02  0.11785808623E+02 -0.65956222495E+02  0.73127683049E+02  0.00000000000E+00 0. -1.
         -5    1    5    5    0  502 -0.81627027839E+02  0.23202076457E+02 -0.18460380849E+02  0.86972315634E+02  0.47000000000E+01 0.  1.
         13    1    6    6    0    0 -0.34495595348E+02 -0.52151303698E+02  0.34716791452E+02  0.71518949828E+02  0.00000000000E+00 0. -1.
        -14    1    6    6    0    0  0.33851416713E+02 -0.70658082333E+01  0.15163867423E+02  0.37759593943E+02  0.00000000000E+00 0.  1.
</event>
<event>
12    1  0.8356052E-002  0.2235834E+03  0.7818608E-02  0.1131334E+00
         21   -1    0    0  503  502  0.00000000000E+00  0.00000000000E+00  0.96056111122E+02  0.96056111122E+02  0.00000000000E+00 0.  1.
         21   -1    0    0  501  503 -0.00000000000E+00 -0.00000000000E+00 -0.10608613573E+04  0.10608613573E+04  0.00000000000E+00 0.  1.
          6    2    1    2  501    0 -0.39024415660E+02  0.13770413130E+03 -0.89546338079E+03  0.92282807593E+03  0.17108962155E+03 0.  0.
         24    2    3    3    0    0 -0.74256231601E+02  0.14270469367E+03 -0.62641610780E+03  0.65139703206E+03  0.77732462524E+02 0.  0.
         -6    2    1    2    0  502  0.39024415660E+02 -0.13770413130E+03 -0.69341865417E+02  0.23408939252E+03  0.17176791492E+03 0.  0.
        -24    2    5    5    0    0  0.35067521052E+02 -0.15653725774E+03 -0.18298687900E+02  0.17933686164E+03  0.78059104969E+02 0.  0.
          5    1    3    3  501    0  0.35231815941E+02 -0.50005623700E+01 -0.26904727298E+03  0.27143104387E+03  0.47000000000E+01 0. -1.
        -13    1    4    4    0    0 -0.77552960717E+02  0.99831025539E+02 -0.36039702468E+03  0.38192500674E+03  0.00000000000E+00 0.  1.
         14    1    4    4    0    0  0.32967291153E+01  0.42873668130E+02 -0.26601908313E+03  0.26947202532E+03  0.00000000000E+00 0. -1.
         -5    1    5    5    0  502  0.39568946083E+01  0.18833126446E+02 -0.51043177517E+02  0.54752530879E+02  0.47000000000E+01 0.  1.
         13    1    6    6    0    0  0.49985837291E+02 -0.76653424207E+02 -0.31959760753E+02  0.96931716583E+02  0.00000000000E+00 0. -1.
        -14    1    6    6    0    0 -0.14918316239E+02 -0.79883833538E+02  0.13661072854E+02  0.82405145056E+02  0.00000000000E+00 0.  1.
</event>
<event>
12    1  0.8356052E-002  0.2390653E+03  0.7818608E-02  0.1120527E+00
         21   -1    0    0  503  502  0.00000000000E+00  0.00000000000E+00  0.10761260030E+04  0.10761260030E+04  0.00000000000E+00 0.  1.
         21   -1    0    0  501  503 -0.00000000000E+00 -0.00000000000E+00 -0.62657005927E+02  0.62657005927E+02  0.00000000000E+00 0.  1.
          6    2    1    2  501    0 -0.10866166699E+03 -0.12438934301E+03  0.28336601078E+03  0.37074046341E+03  0.17283555368E+03 0.  0.
         24    2    3    3    0    0 -0.22149688272E+02 -0.59186559809E+02  0.48934791475E+02  0.11244642170E+03  0.79094414359E+02 0.  0.
         -6    2    1    2    0  502  0.10866166699E+03  0.12438934301E+03  0.73010298627E+03  0.76804254549E+03  0.17192706187E+03 0.  0.
        -24    2    5    5    0    0  0.14532014550E+03  0.10809170310E+03  0.58800014635E+03  0.62031047644E+03  0.78988316269E+02 0.  0.
          5    1    3    3  501    0 -0.86511978717E+02 -0.65202783205E+02  0.23443121931E+03  0.25829404171E+03  0.47000000000E+01 0. -1.
        -11    1    4    4    0    0 -0.15327243057E+00 -0.27996083263E+02  0.65201444999E+02  0.70957963615E+02  0.00000000000E+00 0.  1.
         12    1    4    4    0    0 -0.21996415841E+02 -0.31190476546E+02 -0.16266653523E+02  0.41488458081E+02  0.00000000000E+00 0. -1.
         -5    1    5    5    0  502 -0.36658478515E+02  0.16297639916E+02  0.14210283992E+03  0.14773206905E+03  0.47000000000E+01 0.  1.
         11    1    6    6    0    0  0.50509843718E+02  0.26608836772E+02  0.87830453010E+02  0.10475429816E+03  0.00000000000E+00 0. -1.
        -12    1    6    6    0    0  0.94810301786E+02  0.81482866326E+02  0.50016969334E+03  0.51555617828E+03  0.00000000000E+00 0.  1.
</event>
<event>
12    1  0.8356052E-002  0.2635548E+03  0.7818608E-02  0.1105105E+00
         21   -1    0    0  503  502  0.00000000000E+00  0.00000000000E+00  0.18827661448E+04  0.18827661448E+04  0.00000000000E+00 0.  1.
         21   -1    0    0  501  503 -0.00000000000E+00 -0.00000000000E+00 -0.50523895432E+02  0.50523895432E+02  0.00000000000E+00 0.  1.
          6    2    1    2  501    0  0.14016912918E+03 -0.14142489707E+03  0.41333886190E+03  0.49021438119E+03  0.17266365709E+03 0.  0.
         24    2    3    3    0    0  0.13559692295E+03 -0.39645445490E+02  0.26980464564E+03  0.31413450422E+03  0.76991253233E+02 0.  0.
         -6    2    1    2    0  502 -0.14016912918E+03  0.14142489707E+03  0.14189033875E+04  0.14430756591E+04  0.17184920269E+03 0.  0.
        -24    2    5    5    0    0 -0.32910115490E+02  0.11454857134E+03  0.97631059452E+03  0.98685498516E+03  0.80597356518E+02 0.  0.
          5    1    3    3  501    0  0.45722062312E+01 -0.10177945158E+03  0.14353421626E+03  0.17607987697E+03  0.47000000000E+01 0. -1.
        -11    1    4    4    0    0  0.93350840049E+02 -0.51551268843E+02  0.23518689009E+03  0.25823397516E+03  0.00000000000E+00 0.  1.
         12    1    4    4    0    0  0.42246082903E+02  0.11905823353E+02  0.34617755546E+02  0.55900529061E+02  0.00000000000E+00 0. -1.
         -5    1    5    5    0  502 -0.10725901369E+03  0.26876325737E+02  0.44259279299E+03  0.45622067391E+03  0.47000000000E+01 0.  1.
         13    1    6    6    0    0 -0.43181362242E+01 -0.11542051238E+02  0.14827177811E+03  0.14878301459E+03  0.00000000000E+00 0. -1.
        -14    1    6    6    0    0 -0.28591979266E+02  0.12609062257E+03  0.82803881641E+03  0.83807197057E+03  0.00000000000E+00 0.  1.
</event>
<event>
12    1  0.8356052E-002  0.2224916E+03  0.7818608E-02  0.1132075E+00
         21   -1    0    0  503  502  0.00000000000E+00  0.00000000000E+00  0.65919404991E+03  0.65919404991E+03  0.00000000000E+00 0. -1.
         21   -1    0    0  501  503 -0.00000000000E+00 -0.00000000000E+00 -0.16622595608E+03  0.16622595608E+03  0.00000000000E+00 0. -1.
          6    2    1    2  501    0 -0.11446884868E+03  0.84049224806E+02 -0.59255747731E+02  0.23005988867E+03  0.17102315407E+03 0.  0.
         24    2    3    3    0    0 -0.96347842805E+02 -0.89742835170E+01  0.28852428698E+01  0.11663442121E+03  0.65052432755E+02 0.  0.
         -6    2    1    2    0  502  0.11446884868E+03 -0.84049224806E+02  0.55222384156E+03  0.59536011731E+03  0.17127495027E+03 0.  0.
        -24    2    5    5    0    0  0.10449653008E+03 -0.12473498995E+03  0.44968923891E+03  0.48449888259E+03  0.77720094714E+02 0.  0.
          5    1    3    3  501    0 -0.18121005870E+02  0.93023508323E+02 -0.62140990601E+02  0.11342546745E+03  0.47000000000E+01 0. -1.
        -11    1    4    4    0    0  0.63407813052E+01 -0.11745313166E+02  0.38921593422E+01  0.13903481337E+02  0.00000000000E+00 0.  1.
         12    1    4    4    0    0 -0.10268862411E+03  0.27710296494E+01 -0.10069164725E+01  0.10273093988E+03  0.00000000000E+00 0. -1.
         -5    1    5    5    0  502  0.99723185973E+01  0.40685765146E+02  0.10253460265E+03  0.11086123473E+03  0.47000000000E+01 0.  1.
         11    1    6    6    0    0  0.29087894268E+02 -0.37626132989E+02  0.24534555844E+03  0.24991253374E+03  0.00000000000E+00 0. -1.
        -12    1    6    6    0    0  0.75408635810E+02 -0.87108856963E+02  0.20434368047E+03  0.23458634884E+03  0.00000000000E+00 0.  1.
</event>
<event>
12    1  0.8356052E-002  0.2856488E+03  0.7818608E-02  0.1092781E+00
         21   -1    0    0  503  502  0.00000000000E+00  0.00000000000E+00  0.37786520732E+03  0.37786520732E+03  0.00000000000E+00 0. -1.
         21   -1    0    0  501  503 -0.00000000000E+00 -0.00000000000E+00 -0.22617903143E+03  0.22617903143E+03  0.00000000000E+00 0.  1.
          6    2    1    2  501    0 -0.18947688252E+03  0.12388901691E+03  0.92982292806E+01  0.28580013808E+03  0.17419897916E+03 0.  0.
         24    2    3    3    0    0 -0.17524120989E+03  0.15050512089E+03 -0.17529913214E+02  0.24514413489E+03  0.80169046108E+02 0.  0.
         -6    2    1    2    0  502  0.18947688252E+03 -0.12388901691E+03  0.14238794661E+03  0.31824410067E+03  0.17249638475E+03 0.  0.
        -24    2    5    5    0    0  0.14709948877E+03 -0.15051351586E+03  0.14471488744E+03  0.26792301067E+03  0.80918248563E+02 0.  0.
          5    1    3    3  501    0 -0.14235672625E+02 -0.26616103978E+02  0.26828142495E+02  0.40656003195E+02  0.47000000000E+01 0. -1.
        -13    1    4    4    0    0 -0.28240744718E+02  0.69252438485E+02 -0.19042984332E+02  0.77175612408E+02  0.00000000000E+00 0.  1.
         14    1    4    4    0    0 -0.14700046518E+03  0.81252682404E+02  0.15130711180E+01  0.16796852248E+03  0.00000000000E+00 0. -1.
         -5    1    5    5    0  502  0.42377393746E+02  0.26624498946E+02 -0.23269408215E+01  0.50321089996E+02  0.47000000000E+01 0.  1.
         13    1    6    6    0    0  0.91662300682E+01 -0.13501437773E+02  0.48160335239E+02  0.50850039193E+02  0.00000000000E+00 0. -1.
        -14    1    6    6    0    0  0.13793325871E+03 -0.13701207808E+03  0.96554552196E+02  0.21707297148E+03  0.00000000000E+00 0.  1.
</event>
<event>
12    1  0.8356052E-002  0.1994594E+03  0.7818608E-02  0.1150270E+00
         21   -1    0    0  501  502  0.00000000000E+00  0.00000000000E+00  0.12717514109E+04  0.12717514109E+04  0.00000000000E+00 0.  1.
         21   -1    0    0  502  503 -0.00000000000E+00 -0.00000000000E+00 -0.45970397384E+02  0.45970397384E+02  0.00000000000E+00 0.  1.
         -6    2    1    2    0  503  0.10219842955E+03  0.17087658826E+02  0.24014510848E+03  0.31217581310E+03  0.17043344176E+03 0.  0.
        -24    2    3    3    0    0  0.18277826331E+02 -0.38162195278E+02  0.70754574221E+02  0.11517211486E+03  0.80423716556E+02 0.  0.
          6    2    1    2  501    0 -0.10219842955E+03 -0.17087658826E+02  0.98563590503E+03  0.10055459952E+04  0.17002383376E+03 0.  0.
         24    2    5    5    0    0 -0.12552916687E+03 -0.22323370089E+02  0.58157935124E+03  0.60075527810E+03  0.80102795108E+02 0.  0.
          5    1    5    5  501    0  0.23330737316E+02  0.52357112634E+01  0.40405655379E+03  0.40479071708E+03  0.47000000000E+01 0. -1.
        -13    1    6    6    0    0 -0.44717287097E+02  0.44309085549E+01  0.77886364392E+02  0.89919711266E+02  0.00000000000E+00 0.  1.
         14    1    6    6    0    0 -0.80811879768E+02 -0.26754278644E+02  0.50369298685E+03  0.51083556683E+03  0.00000000000E+00 0. -1.
         -5    1    3    3    0  503  0.83920603218E+02  0.55249854104E+02  0.16939053425E+03  0.19700369823E+03  0.47000000000E+01 0.  1.
         13    1    4    4    0    0  0.33919126184E+01 -0.36203239964E+02  0.86246536208E+02  0.93598315492E+02  0.00000000000E+00 0. -1.
        -14    1    4    4    0    0  0.14885913713E+02 -0.19589553145E+01 -0.15491961988E+02  0.21573799369E+02  0.00000000000E+00 0.  1.
</event>
<event>
12    1  0.8356052E-002  0.2027326E+03  0.7818608E-02  0.1148259E+00
         21   -1    0    0  501  502  0.00000000000E+00  0.00000000000E+00  0.53779657887E+02  0.53779657887E+02  0.00000000000E+00 0.  1.
         21   -1    0    0  502  503 -0.00000000000E+00 -0.00000000000E+00 -0.75049094014E+03  0.75049094014E+03  0.00000000000E+00 0. -1.
         -6    2    1    2    0  503  0.95511785403E+02  0.43526623602E+02 -0.33288831878E+03  0.38777610194E+03  0.16893372766E+03 0.  0.
        -24    2    3    3    0    0  0.38725269757E+02 -0.45671206091E+00 -0.29520359899E+03  0.30652666944E+03  0.72894300998E+02 0.  0.
          6    2    1    2  501    0 -0.95511785403E+02 -0.43526623602E+02 -0.36382296348E+03  0.41649449609E+03  0.17344580827E+03 0.  0.
         24    2    5    5    0    0 -0.88006078013E+02  0.24400106894E+02 -0.28121086065E+03  0.30917615706E+03  0.90387570834E+02 0.  0.
          5    1    5    5  501    0 -0.75057073894E+01 -0.67926730496E+02 -0.82612102829E+02  0.10731833903E+03  0.47000000000E+01 0. -1.
        -11    1    6    6    0    0 -0.23997807533E+02 -0.31035918399E+02 -0.54372770242E+02  0.67048647571E+02  0.00000000000E+00 0.  1.
         12    1    6    6    0    0 -0.64008270480E+02  0.55436025293E+02 -0.22683809041E+03  0.24212750948E+03  0.00000000000E+00 0. -1.
         -5    1    3    3    0  503  0.56786515646E+02  0.43983335663E+02 -0.37684719782E+02  0.81249432492E+02  0.47000000000E+01 0.  1.
         13    1    4    4    0    0 -0.13469098702E+02 -0.18915592192E+02 -0.49684270964E+02  0.54842894062E+02  0.00000000000E+00 0. -1.
        -14    1    4    4    0    0  0.52194368459E+02  0.18458880131E+02 -0.24551932803E+03  0.25168377538E+03  0.00000000000E+00 0.  1.
</event>
<event>
12    1  0.8356052E-002  0.2059440E+03  0.7818608E-02  0.1146182E+00
         21   -1    0    0  503  502  0.00000000000E+00  0.00000000000E+00  0.20886984394E+03  0.20886984394E+03  0.00000000000E+00 0.  1.
         21   -1    0    0  501  503 -0.00000000000E+00 -0.00000000000E+00 -0.19709022507E+03  0.19709022507E+03  0.00000000000E+00 0.  1.
          6    2    1    2  501    0  0.58274546788E+02 -0.89002682078E+02  0.16028866888E+02  0.20656678667E+03  0.17633919746E+03 0.  0.
         24    2    3    3    0    0 -0.26869861040E+02 -0.18551449860E+01  0.86372611784E+01  0.84415285485E+02  0.79535571587E+02 0.  0.
         -6    2    1    2    0  502 -0.58274546788E+02  0.89002682078E+02 -0.42492480233E+01  0.19939328235E+03  0.16858892228E+03 0.  0.
        -24    2    5    5    0    0  0.20947518215E+02  0.51135587211E+02  0.34387424071E+02  0.10334675775E+03  0.80277086419E+02 0.  0.
          5    1    3    3  501    0  0.85144407828E+02 -0.87147537092E+02  0.73916057100E+01  0.12215150118E+03  0.47000000000E+01 0. -1.
        -11    1    4    4    0    0  0.17995542428E+02  0.25567281245E+01  0.29570785731E+02  0.34710341034E+02  0.00000000000E+00 0.  1.
         12    1    4    4    0    0 -0.44865403468E+02 -0.44118731105E+01 -0.20933524552E+02  0.49704944451E+02  0.00000000000E+00 0. -1.
         -5    1    5    5    0  502 -0.79222065003E+02  0.37867094866E+02 -0.38636672094E+02  0.96046524598E+02  0.47000000000E+01 0.  1.
         13    1    6    6    0    0  0.79122002491E+01  0.69000133752E+02  0.95745970730E+01  0.70109159742E+02  0.00000000000E+00 0. -1.
        -14    1    6    6    0    0  0.13035317966E+02 -0.17864546541E+02  0.24812826998E+02  0.33237598006E+02  0.00000000000E+00 0.  1.
</event>
<event>
12    1  0.8356052E-002  0.1985428E+03  0.7818608E-02  0.1151237E+00
         21   -1    0    0  503  502  0.00000000000E+00  0.00000000000E+00  0.26491866832E+02  0.26491866832E+02  0.00000000000E+00 0.  1.
         21   -1    0    0  501  503 -0.00000000000E+00 -0.00000000000E+00 -0.25345958989E+04  0.25345958989E+04  0.00000000000E+00 0.  1.
          6    2    1    2  501    0  0.93821268843E+02 -0.32886610531E+02 -0.20827975752E+04  0.20922392257E+04  0.17185830937E+03 0.  0.
         24    2    3    3    0    0  0.11592693578E+03  0.11853909170E+02 -0.12345296737E+04  0.12424916765E+04  0.78373983511E+02 0.  0.
         -6    2    1    2    0  502 -0.93821268843E+02  0.32886610531E+02 -0.42530645685E+03  0.46884854005E+03  0.17043887946E+03 0.  0.
        -24    2    5    5    0    0 -0.59747028693E+02  0.14530652634E+02 -0.10045879495E+03  0.14166955467E+03  0.78723858736E+02 0.  0.
          5    1    3    3  501    0 -0.22105666934E+02 -0.44740519702E+02 -0.84826790155E+03  0.84974754923E+03  0.47000000000E+01 0. -1.
        -11    1    4    4    0    0  0.97714849383E+02  0.41079067875E+02 -0.93421211026E+03  0.94020633297E+03  0.00000000000E+00 0.  1.
         12    1    4    4    0    0  0.18212086394E+02 -0.29225158705E+02 -0.30031756341E+03  0.30228534348E+03  0.00000000000E+00 0. -1.
         -5    1    5    5    0  502 -0.34074240150E+02  0.18355957897E+02 -0.32484766190E+03  0.32717898538E+03  0.47000000000E+01 0.  1.
         13    1    6    6    0    0  0.19027845680E+01 -0.15256092409E+02 -0.60437255577E+02  0.62362094307E+02  0.00000000000E+00 0. -1.
        -14    1    6    6    0    0 -0.61649813261E+02  0.29786745044E+02 -0.40021539368E+02  0.79307460361E+02  0.00000000000E+00 0.  1.
</event>
<event>
12    1  0.8356052E-002  0.1883999E+03  0.7818608E-02  0.1159941E+00
         21   -1    0    0  503  502  0.00000000000E+00  0.00000000000E+00  0.17976742542E+04  0.17976742542E+04  0.00000000000E+00 0. -1.
         21   -1    0    0  501  503 -0.00000000000E+00 -0.00000000000E+00 -0.33703260515E+02  0.33703260515E+02  0.00000000000E+00 0. -1.
          6    2    1    2  501    0  0.12330432877E+02 -0.73573733790E+02  0.29225053795E+03  0.34764720768E+03  0.17286720394E+03 0.  0.
         24    2    3    3    0    0 -0.44746721135E+02 -0.70236399646E+02  0.10439731843E+03  0.15122963873E+03  0.70966066869E+02 0.  0.
         -6    2    1    2    0  502 -0.12330432877E+02  0.73573733790E+02  0.14717204557E+04  0.14837303070E+04  0.17300112804E+03 0.  0.
        -24    2    5    5    0    0 -0.33291450420E+02 -0.16282626077E+02  0.93042130201E+03  0.93460336953E+03  0.80163673361E+02 0.  0.
          5    1    3    3  501    0  0.57077154012E+02 -0.33373341434E+01  0.18785321952E+03  0.19641756895E+03  0.47000000000E+01 0. -1.
        -13    1    4    4    0    0 -0.18513203824E+02 -0.62010677467E+01  0.72405890292E+02  0.74992032283E+02  0.00000000000E+00 0.  1.
         14    1    4    4    0    0 -0.26233517312E+02 -0.64035331900E+02  0.31991428137E+02  0.76237606444E+02  0.00000000000E+00 0. -1.
         -5    1    5    5    0  502  0.20961017543E+02  0.89856359867E+02  0.54129915372E+03  0.54912693750E+03  0.47000000000E+01 0.  1.
         13    1    6    6    0    0 -0.47359874838E+02 -0.34444922815E+01  0.28711511856E+03  0.29101531502E+03  0.00000000000E+00 0. -1.
        -14    1    6    6    0    0  0.14068424418E+02 -0.12838133796E+02  0.64330618345E+03  0.64358805451E+03  0.00000000000E+00 0.  1.
</event>
<event>
12    1  0.8356052E-002  0.2213980E+03  0.7818608E-02  0.1133312E+00
         21   -1    0    0  503  502  0.00000000000E+00  0.00000000000E+00  0.35320789765E+03  0.35320789765E+03  0.00000000000E+00 0.  1.
         21   -1    0    0  501  503 -0.00000000000E+00 -0.00000000000E+00 -0.41163411467E+03  0.41163411467E+03  0.00000000000E+00 0.  1.
          6    2    1    2  501    0  0.31559388654E+02 -0.13219703930E+03 -0.34151396939E+03  0.40699981337E+03  0.17477129221E+03 0.  0.
         24    2    3    3    0    0  0.74264745283E+02 -0.44390865963E+02 -0.23305487500E+03  0.26098907158E+03  0.79466466844E+02 0.  0.
         -6    2    1    2    0  502 -0.31559388654E+02  0.13219703930E+03  0.28308775238E+03  0.35784219894E+03  0.17158179270E+03 0.  0.
        -24    2    5    5    0    0 -0.74156519578E+02  0.37821885869E+02  0.16074481655E+03  0.19749548368E+03  0.78967623625E+02 0.  0.
          5    1    3    3  501    0 -0.42705356629E+02 -0.87806173336E+02 -0.10845909440E+03  0.14601074179E+03  0.47000000000E+01 0. -1.
        -13    1    4    4    0    0  0.69357627534E+02 -0.65534471799E+02 -0.19726172216E+03  0.21912880805E+03  0.00000000000E+00 0.  1.
         14    1    4    4    0    0  0.49071177488E+01  0.21143605836E+02 -0.35793152842E+02  0.41860263529E+02  0.00000000000E+00 0. -1.
         -5    1    5    5    0  502  0.42597130924E+02  0.94375153430E+02  0.12234293583E+03  0.16034671526E+03  0.47000000000E+01 0.  1.
         13    1    6    6    0    0 -0.21207163477E+02 -0.15731842854E+02  0.86657855760E+01  0.27790834856E+02  0.00000000000E+00 0. -1.
        -14    1    6    6    0    0 -0.52949356101E+02  0.53553728723E+02  0.15207903098E+03  0.16970464883E+03  0.00000000000E+00 0.  1.
</event>
<event>
12    1  0.8356052E-002  0.2061570E+03  0.7818608E-02  0.1144746E+00
         21   -1    0    0  503  502  0.00000000000E+00  0.00000000000E+00  0.41866095654E+03  0.41866095654E+03  0.00000000000E+00 0.  1.
         21   -1    0    0  501  503 -0.00000000000E+00 -0.00000000000E+00 -0.22795814709E+03  0.22795814709E+03  0.00000000000E+00 0.  1.
          6    2    1    2  501    0 -0.89587471880E+02 -0.67616865361E+02 -0.14571887621E+03  0.25205572828E+03  0.17233729624E+03 0.  0.
         24    2    3    3    0    0 -0.13011496918E+03 -0.54164023766E+02 -0.12388524997E+03  0.20386595531E+03  0.79687677192E+02 0.  0.
         -6    2    1    2    0  502  0.89587471880E+02  0.67616865361E+02  0.33642168566E+03  0.39456337535E+03  0.17292411915E+03 0.  0.
        -24    2    5    5    0    0  0.62338146678E+01  0.73631406614E+02  0.25678722456E+03  0.27903093717E+03  0.80362557913E+02 0.  0.
          5    1    3    3  501    0  0.40527497302E+02 -0.13452841594E+02 -0.21833626239E+02  0.48189772974E+02  0.47000000000E+01 0. -1.
        -11    1    4    4    0    0 -0.96664638372E+02 -0.74251160871E+02 -0.10316066698E+03  0.15968534815E+03  0.00000000000E+00 0.  1.
         12    1    4    4    0    0 -0.33450330810E+02  0.20087137105E+02 -0.20724582989E+02  0.44180607153E+02  0.00000000000E+00 0. -1.
         -5    1    5    5    0  502  0.83353657213E+02 -0.60145412534E+01  0.79634461106E+02  0.11553243818E+03  0.47000000000E+01 0.  1.
         13    1    6    6    0    0 -0.11493369038E+02  0.35277721348E+02  0.28283779291E+02  0.46653910087E+02  0.00000000000E+00 0. -1.
        -14    1    6    6    0    0  0.17727183706E+02  0.38353685266E+02  0.22850344527E+03  0.23237702708E+03  0.00000000000E+00 0.  1.
</event>
<event>
12    1  0.8356052E-002  0.1987146E+03  0.7818608E-02  0.1150866E+00
         21   -1    0    0  501  502  0.00000000000E+00  0.00000000000E+00  0.25752895472E+04  0.25752895472E+04  0.00000000000E+00 0. -1.
         21   -1    0    0  502  503 -0.00000000000E+00 -0.00000000000E+00 -0.22660295554E+02  0.22660295554E+02  0.00000000000E+00 0. -1.
         -6    2    1    2    0  503  0.98944877707E+02  0.76774690857E+01  0.53658836168E+03  0.57213929589E+03  0.17195136419E+03 0.  0.
        -24    2    3    3    0    0  0.11750300656E+03 -0.39682891008E+02  0.38649051600E+03  0.41358690350E+03  0.79356911451E+02 0.  0.
          6    2    1    2  501    0 -0.98944877707E+02 -0.76774690857E+01  0.20160408900E+04  0.20258105469E+04  0.17215826859E+03 0.  0.
         24    2    5    5    0    0 -0.14895254844E+02  0.23474425278E+02  0.51084634416E+03  0.51794202132E+03  0.80790054140E+02 0.  0.
          5    1    5    5  501    0 -0.84049622863E+02 -0.31151894363E+02  0.15051945458E+04  0.15078685255E+04  0.47000000000E+01 0. -1.
        -11    1    6    6    0    0 -0.32098343363E+02 -0.20559124182E+02  0.23660583665E+03  0.23965663598E+03  0.00000000000E+00 0.  1.
         12    1    6    6    0    0  0.17203088519E+02  0.44033549460E+02  0.27424050751E+03  0.27828538534E+03  0.00000000000E+00 0. -1.
         -5    1    3    3    0  503 -0.18558128849E+02  0.47360360094E+02  0.15009784568E+03  0.15855239239E+03  0.47000000000E+01 0.  1.
         13    1    4    4    0    0  0.24428371259E+02 -0.53606937569E+01  0.15186321823E+02  0.29259301606E+02  0.00000000000E+00 0. -1.
        -14    1    4    4    0    0  0.93074635297E+02 -0.34322197252E+02  0.37130419418E+03  0.38432760189E+03  0.00000000000E+00 0.  1.
</event>
<event>
12    1  0.8356052E-002  0.1807019E+03  0.7818608E-02  0.1167743E+00
         21   -1    0    0  503  502  0.00000000000E+00  0.00000000000E+00  0.10213819726E+04  0.10213819726E+04  0.00000000000E+00 0.  1.
         21   -1    0    0  501  503 -0.00000000000E+00 -0.00000000000E+00 -0.70783440163E+02  0.70783440163E+02  0.00000000000E+00 0.  1.
          6    2    1    2  501    0 -0.47042741927E+02 -0.17866250300E+02  0.70097025750E+02  0.19382146590E+03  0.17355386817E+03 0.  0.
         24    2    3    3    0    0 -0.90227772245E+02  0.26249572902E+02  0.56607468675E+02  0.13045577447E+03  0.70598956222E+02 0.  0.
         -6    2    1    2    0  502  0.47042741927E+02  0.17866250300E+02  0.88050150669E+03  0.89834394687E+03  0.17089973998E+03 0.  0.
        -24    2    5    5    0    0  0.19282836045E+01  0.65816099166E+02  0.61515673057E+03  0.62491307340E+03  0.88108279657E+02 0.  0.
          5    1    3    3  501    0  0.43185030318E+02 -0.44115823202E+02  0.13489557074E+02  0.63365691431E+02  0.47000000000E+01 0. -1.
        -11    1    4    4    0    0 -0.38440434888E+02  0.31425144717E+02 -0.48901305267E+01  0.49891082684E+02  0.00000000000E+00 0.  1.
         12    1    4    4    0    0 -0.51787337358E+02 -0.51755718147E+01  0.61497599202E+02  0.80564691781E+02  0.00000000000E+00 0. -1.
         -5    1    5    5    0  502  0.45114458322E+02 -0.47949848866E+02  0.26534477612E+03  0.27343087347E+03  0.47000000000E+01 0.  1.
         13    1    6    6    0    0 -0.59840067312E+01  0.53598256025E+02  0.14784130862E+03  0.15737100724E+03  0.00000000000E+00 0. -1.
        -14    1    6    6    0    0  0.79122903357E+01  0.12217843141E+02  0.46731542195E+03  0.46754206615E+03  0.00000000000E+00 0.  1.
</event>
<event>
12    1  0.8356052E-002  0.2513948E+03  0.7818608E-02  0.1112710E+00
         21   -1    0    0  501  502  0.00000000000E+00  0.00000000000E+00  0.81406074388E+03  0.81406074388E+03  0.00000000000E+00 0. -1.
         21   -1    0    0  502  503 -0.00000000000E+00 -0.00000000000E+00 -0.77298199130E+02  0.77298199130E+02  0.00000000000E+00 0. -1.
         -6    2    1    2    0  503  0.70167480879E+02 -0.16775529311E+03  0.34602665602E+03  0.42770760744E+03  0.17359158113E+03 0.  0.
        -24    2    3    3    0    0  0.11456878156E+03 -0.11502551336E+03  0.23472056855E+03  0.29669982033E+03  0.81118207877E+02 0.  0.
          6    2    1    2  501    0 -0.70167480879E+02  0.16775529311E+03  0.39073588872E+03  0.46365133557E+03  0.17097576583E+03 0.  0.
         24    2    5    5    0    0 -0.44652445613E+02  0.10019928633E+03  0.10920208947E+03  0.17296559254E+03  0.77189778987E+02 0.  0.
          5    1    5    5  501    0 -0.25515035266E+02  0.67556006785E+02  0.28153379925E+03  0.29068574303E+03  0.47000000000E+01 0. -1.
        -13    1    6    6    0    0 -0.31479907115E+02  0.28370160530E+02  0.95464638910E+00  0.42388228439E+02  0.00000000000E+00 0.  1.
         14    1    6    6    0    0 -0.13172538498E+02  0.71829125796E+02  0.10824744308E+03  0.13057736411E+03  0.00000000000E+00 0. -1.
         -5    1    3    3    0  503 -0.44401300680E+02 -0.52729779752E+02  0.11130608747E+03  0.13100778711E+03  0.47000000000E+01 0.  1.
         13    1    4    4    0    0  0.13349053992E+02 -0.54341732953E+02  0.11858166676E+03  0.13112144323E+03  0.00000000000E+00 0. -1.
        -14    1    4    4    0    0  0.10121972757E+03 -0.60683780406E+02  0.11613890180E+03  0.16557837710E+03  0.00000000000E+00 0.  1.
</event>
<event>
12    1  0.8356052E-002  0.2253020E+03  0.7818608E-02  0.1130079E+00
         21   -1    0    0  501  502  0.00000000000E+00  0.00000000000E+00  0.67155131855E+03  0.67155131855E+03  0.00000000000E+00 0. -1.
         21   -1    0    0  502  503 -0.00000000000E+00 -0.00000000000E+00 -0.83738397909E+02  0.83738397909E+02  0.00000000000E+00 0.  1.
         -6    2    1    2    0  503 -0.11443746933E+03 -0.89075100638E+02  0.17462711719E+03  0.28466938298E+03  0.17178975408E+03 0.  0.
        -24    2    3    3    0    0 -0.64669825384E+02 -0.11039067157E+03  0.85673549551E+02  0.18042927964E+03  0.94055734399E+02 0.  0.
          6    2    1    2  501    0  0.11443746933E+03  0.89075100638E+02  0.41318580345E+03  0.47062033348E+03  0.17242587442E+03 0.  0.
         24    2    5    5    0    0  0.41897058329E+02  0.90612188275E+02  0.15968015980E+03  0.20689381750E+03  0.85681772424E+02 0.  0.
          5    1    5    5  501    0  0.72540411003E+02 -0.15370876370E+01  0.25350564366E+03  0.26372651598E+03  0.47000000000E+01 0. -1.
        -13    1    6    6    0    0  0.39987972503E+02  0.32553879586E+02  0.13362463942E+03  0.14322826984E+03  0.00000000000E+00 0.  1.
         14    1    6    6    0    0  0.19090858268E+01  0.58058308689E+02  0.26055520374E+02  0.63665547657E+02  0.00000000000E+00 0. -1.
         -5    1    3    3    0  503 -0.49767643948E+02  0.21315570936E+02  0.88953567637E+02  0.10424010334E+03  0.47000000000E+01 0.  1.
         11    1    4    4    0    0 -0.19291171087E+02  0.15620027806E+02  0.14824307454E+02  0.28911842592E+02  0.00000000000E+00 0. -1.
        -12    1    4    4    0    0 -0.45378654297E+02 -0.12601069938E+03  0.70849242097E+02  0.15151743705E+03  0.00000000000E+00 0.  1.
</event>
<event>
12    1  0.8356052E-002  0.1953520E+03  0.7818608E-02  0.1153890E+00
         21   -1    0    0  501  502  0.00000000000E+00  0.00000000000E+00  0.33019153988E+02  0.33019153988E+02  0.00000000000E+00 0.  1.
         21   -1    0    0  502  503 -0.00000000000E+00 -0.00000000000E+00 -0.17549942240E+04  0.17549942240E+04  0.00000000000E+00 0.  1.
         -6    2    1    2    0  503 -0.27292841898E+02 -0.87017458478E+02 -0.13865087524E+04  0.14002031711E+04  0.17275839437E+03 0.  0.
        -24    2    3    3    0    0 -0.60634711138E+01 -0.67700819112E+02 -0.40088872754E+03  0.41415411452E+03  0.78687305964E+02 0.  0.
          6    2    1    2  501    0  0.27292841898E+02  0.87017458478E+02 -0.33546631762E+03  0.38781020681E+03  0.17187835509E+03 0.  0.
         24    2    5    5    0    0  0.29611311253E+01  0.12003126462E+03 -0.20311693004E+03  0.24917257145E+03  0.80088765187E+02 0.  0.
          5    1    5    5  501    0  0.24331710773E+02 -0.33013806143E+02 -0.13234938758E+03  0.13863763536E+03  0.47000000000E+01 0. -1.
        -11    1    6    6    0    0 -0.10591775429E+02  0.64232194440E+01  0.36045646714E+01  0.12901020938E+02  0.00000000000E+00 0.  1.
         12    1    6    6    0    0  0.13552906554E+02  0.11360804518E+03 -0.20672149471E+03  0.23627155051E+03  0.00000000000E+00 0. -1.
         -5    1    3    3    0  503 -0.21229370784E+02 -0.19316639366E+02 -0.98562002482E+03  0.98604905662E+03  0.47000000000E+01 0.  1.
         11    1    4    4    0    0 -0.11764372833E+02  0.12123713462E+02 -0.27411312068E+02  0.32198834226E+02  0.00000000000E+00 0. -1.
        -12    1    4    4    0    0  0.57009017189E+01 -0.79824532574E+02 -0.37347741547E+03  0.38195528030E+03  0.00000000000E+00 0.  1.
</event>
<event>
12    1  0.8356052E-002  0.2374528E+03  0.7818608E-02  0.1121832E+00
         21   -1    0    0  501  502  0.00000000000E+00  0.00000000000E+00  0.93887289064E+02  0.93887289064E+02  0.00000000000E+00 0. -1.
         21   -1    0    0  502  503 -0.00000000000E+00 -0.00000000000E+00 -0.59973733935E+03  0.59973733935E+03  0.00000000000E+00 0.  1.
         -6    2    1    2    0  503 -0.25956049249E+02 -0.15875541807E+03 -0.28265067978E+03  0.36915473388E+03  0.17466199216E+03 0.  0.
        -24    2    3    3    0    0 -0.12290184843E+02 -0.13965185483E+03 -0.29470060503E+03  0.34234069508E+03  0.10341670902E+03 0.  0.
          6    2    1    2  501    0  0.25956049249E+02  0.15875541807E+03 -0.22319937050E+03  0.32446989453E+03  0.17200509936E+03 0.  0.
         24    2    5    5    0    0 -0.27928482400E+02  0.13392953189E+02 -0.93422340888E+02  0.12223746300E+03  0.72490635671E+02 0.  0.
          5    1    5    5  501    0  0.53884531649E+02  0.14536246488E+03 -0.12977702961E+03  0.20223243153E+03  0.47000000000E+01 0. -1.
        -13    1    6    6    0    0 -0.17183047609E+02  0.24770459991E+02 -0.10060024198E+03  0.10502019568E+03  0.00000000000E+00 0.  1.
         14    1    6    6    0    0 -0.10745434792E+02 -0.11377506802E+02  0.71779010969E+01  0.17217267322E+02  0.00000000000E+00 0. -1.
         -5    1    3    3    0  503 -0.13665864406E+02 -0.19103563234E+02  0.12049925246E+02  0.26814038798E+02  0.47000000000E+01 0.  1.
         11    1    4    4    0    0  0.26102433091E+02 -0.17235573454E+02 -0.12922123015E+03  0.13295310575E+03  0.00000000000E+00 0. -1.
        -12    1    4    4    0    0 -0.38392617934E+02 -0.12241628138E+03 -0.16547937488E+03  0.20938758934E+03  0.00000000000E+00 0.  1.
</event>
<event>
12    1  0.8356052E-002  0.2744540E+03  0.7818608E-02  0.1098833E+00
         21   -1    0    0  503  502  0.00000000000E+00  0.00000000000E+00  0.17350543017E+03  0.17350543017E+03  0.00000000000E+00 0. -1.
         21   -1    0    0  501  503 -0.00000000000E+00 -0.00000000000E+00 -0.99366294238E+03  0.99366294238E+03  0.00000000000E+00 0.  1.
          6    2    1    2  501    0 -0.31648976344E+02  0.21105090067E+03 -0.84850925359E+03  0.89179197401E+03  0.17257123486E+03 0.  0.
         24    2    3    3    0    0  0.42017913065E+02  0.15217226116E+03 -0.61356505467E+03  0.63858381579E+03  0.80033189255E+02 0.  0.
         -6    2    1    2    0  502  0.31648976344E+02 -0.21105090067E+03  0.28351741384E+02  0.27537639853E+03  0.17170963644E+03 0.  0.
        -24    2    5    5    0    0 -0.34259548201E+02 -0.17060295923E+03 -0.19675015560E+01  0.19218195120E+03  0.81553325873E+02 0.  0.
          5    1    3    3  501    0 -0.73666889409E+02  0.58878639518E+02 -0.23494419892E+03  0.25320815823E+03  0.47000000000E+01 0. -1.
        -11    1    4    4    0    0  0.67382244988E+01  0.11662547194E+03 -0.51429592786E+03  0.52739663043E+03  0.00000000000E+00 0.  1.
         12    1    4    4    0    0  0.35279688566E+02  0.35546789221E+02 -0.99269126810E+02  0.11118718535E+03  0.00000000000E+00 0. -1.
         -5    1    5    5    0  502  0.65908524545E+02 -0.40447941440E+02  0.30319242940E+02  0.83194447332E+02  0.47000000000E+01 0.  1.
         11    1    6    6    0    0 -0.37765789399E+02 -0.11557433324E+03  0.34117037748E+02  0.12628401965E+03  0.00000000000E+00 0. -1.
        -12    1    6    6    0    0  0.35062411982E+01 -0.55028625993E+02 -0.36084539304E+02  0.65897931551E+02  0.00000000000E+00 0.  1.
</event>
<event>
12    1  0.8356052E-002  0.1804692E+03  0.7818608E-02  0.1167429E+00
         21   -1    0    0  503  502  0.00000000000E+00  0.00000000000E+00  0.80471068397E+02  0.80471068397E+02  0.00000000000E+00 0. -1.
         21   -1    0    0  501  503 -0.00000000000E+00 -0.00000000000E+00 -0.41189899733E+03  0.41189899733E+03  0.00000000000E+00 0. -1.
          6    2    1    2  501    0  0.35553602002E+02  0.39714357807E+02 -0.13147192037E+03  0.22301614317E+03  0.17207569682E+03 0.  0.
         24    2    3    3    0    0 -0.23435041559E+02 -0.20702401010E+02 -0.10191724985E+03  0.13343147169E+03  0.80243636749E+02 0.  0.
         -6    2    1    2    0  502 -0.35553602002E+02 -0.39714357807E+02 -0.19995600856E+03  0.26935392256E+03  0.17241763658E+03 0.  0.
        -24    2    5    5    0    0  0.15679586605E+02 -0.80816054653E+02 -0.12465684612E+03  0.16932271261E+03  0.79710523747E+02 0.  0.
          5    1    3    3  501    0  0.58988643561E+02  0.60416758818E+02 -0.29554670516E+02  0.89584671482E+02  0.47000000000E+01 0. -1.
        -13    1    4    4    0    0 -0.49705406768E+02 -0.35134213252E+01 -0.39583333913E+02  0.63638132555E+02  0.00000000000E+00 0.  1.
         14    1    4    4    0    0  0.26270365210E+02 -0.17188979685E+02 -0.62333915941E+02  0.69793339134E+02  0.00000000000E+00 0. -1.
         -5    1    5    5    0  502 -0.51233188607E+02  0.41101696845E+02 -0.75299162443E+02  0.10003120994E+03  0.47000000000E+01 0.  1.
         11    1    6    6    0    0 -0.17176579230E+01 -0.24045249295E+02  0.68261277107E+01  0.25054348563E+02  0.00000000000E+00 0. -1.
        -12    1    6    6    0    0  0.17397244528E+02 -0.56770805358E+02 -0.13148297383E+03  0.14426836405E+03  0.00000000000E+00 0.  1.
</event>
<event>
12    1  0.8356052E-002  0.2531574E+03  0.7818608E-02  0.1111376E+00
         21   -1    0    0  501  502  0.00000000000E+00  0.00000000000E+00  0.63284349074E+03  0.63284349074E+03  0.00000000000E+00 0. -1.
         21   -1    0    0  502  503 -0.00000000000E+00 -0.00000000000E+00 -0.11657570660E+03  0.11657570660E+03  0.00000000000E+00 0.  1.
         -6    2    1    2    0  503  0.11939587951E+03  0.14093561035E+03  0.12165193710E+03  0.28057986638E+03  0.17264890763E+03 0.  0.
        -24    2    3    3    0    0 -0.19756533910E+02  0.74118572814E+02  0.52605006429E+02  0.11141285038E+03  0.61332316612E+02 0.  0.
          6    2    1    2  501    0 -0.11939587951E+03 -0.14093561035E+03  0.39461584704E+03  0.46883933095E+03  0.17311969619E+03 0.  0.
         24    2    5    5    0    0 -0.10099144797E+03 -0.55681138423E+02  0.13056624063E+03  0.19071825529E+03  0.77628911940E+02 0.  0.
          5    1    5    5  501    0 -0.18404431532E+02 -0.85254471932E+02  0.26404960641E+03  0.27812107566E+03  0.47000000000E+01 0. -1.
        -11    1    6    6    0    0  0.74291426688E+01 -0.24404089786E+02  0.17214483583E+02  0.30774830692E+02  0.00000000000E+00 0.  1.
         12    1    6    6    0    0 -0.10842059064E+03 -0.31277048636E+02  0.11335175705E+03  0.15994342460E+03  0.00000000000E+00 0. -1.
         -5    1    3    3    0  503  0.13915241342E+03  0.66817037540E+02  0.69046930671E+02  0.16916701599E+03  0.47000000000E+01 0.  1.
         13    1    4    4    0    0 -0.10913521373E+01 -0.16427680783E+01  0.30156702618E+02  0.30221125877E+02  0.00000000000E+00 0. -1.
        -14    1    4    4    0    0 -0.18665181773E+02  0.75761340893E+02  0.22448303811E+02  0.81191724507E+02  0.00000000000E+00 0.  1.
</event>
<event>
12    1  0.8356052E-002  0.1754493E+03  0.7818608E-02  0.1172388E+00
         21   -1    0    0  501  502  0.00000000000E+00  0.00000000000E+00  0.13186083793E+03  0.13186083793E+03  0.00000000000E+00 0. -1.
         21   -1    0    0  502  503 -0.00000000000E+00 -0.00000000000E+00 -0.29217176772E+03  0.29217176772E+03  0.00000000000E+00 0. -1.
         -6    2    1    2    0  503 -0.31581275616E+02  0.15241396120E+02 -0.17574280613E+03  0.24833037148E+03  0.17190916894E+03 0.  0.
        -24    2    3    3    0    0  0.53349674173E+01 -0.70015462722E+00 -0.37775403113E+02  0.10454568406E+03  0.97333791054E+02 0.  0.
          6    2    1    2  501    0  0.31581275616E+02 -0.15241396120E+02  0.15431876343E+02  0.17570223417E+03  0.17147435715E+03 0.  0.
         24    2    5    5    0    0  0.15992603345E+02 -0.58386396141E+02 -0.36548168459E+02  0.10621473323E+03  0.79253178614E+02 0.  0.
          5    1    5    5  501    0  0.15588672271E+02  0.43145000021E+02  0.51980044801E+02  0.69487500944E+02  0.47000000000E+01 0. -1.
        -11    1    6    6    0    0 -0.14685194756E+02 -0.93331345417E+01  0.19171412604E+02  0.25890256983E+02  0.00000000000E+00 0.  1.
         12    1    6    6    0    0  0.30677798102E+02 -0.49053261599E+02 -0.55719581062E+02  0.80324476243E+02  0.00000000000E+00 0. -1.
         -5    1    3    3    0  503 -0.36916243033E+02  0.15941550747E+02 -0.13796740302E+03  0.14378468742E+03  0.47000000000E+01 0.  1.
         11    1    4    4    0    0  0.95310162459E+01  0.41836393032E+02  0.60442095975E+01  0.43331934209E+02  0.00000000000E+00 0. -1.
        -12    1    4    4    0    0 -0.41960488287E+01 -0.42536547659E+02 -0.43819612710E+02  0.61213749849E+02  0.00000000000E+00 0.  1.
</event>
<event>
12    1  0.8356052E-002  0.2066621E+03  0.7818608E-02  0.1144264E+00
         21   -1    0    0  503  502  0.00000000000E+00  0.00000000000E+00  0.12372330336E+03  0.12372330336E+03  0.00000000000E+00 0. -1.
         21   -1    0    0  501  503 -0.00000000000E+00 -0.00000000000E+00 -0.46240754487E+03  0.46240754487E+03  0.00000000000E+00 0. -1.
          6    2    1    2  501    0 -0.60229320409E+02  0.97892282451E+02 -0.31707108248E+03  0.37847494465E+03  0.17175197927E+03 0.  0.
         24    2    3    3    0    0 -0.12714383265E+02  0.70453736611E+02 -0.73944357538E+02  0.12918949094E+03  0.78081828958E+02 0.  0.
         -6    2    1    2    0  502  0.60229320409E+02 -0.97892282451E+02 -0.21613159031E+02  0.20765590358E+03  0.17159072133E+03 0.  0.
        -24    2    5    5    0    0  0.10397714016E+03 -0.59534318711E+02 -0.33215450990E+02  0.14814196997E+03  0.80543133187E+02 0.  0.
          5    1    3    3  501    0 -0.47514937145E+02  0.27438545841E+02 -0.24312672495E+03  0.24928545371E+03  0.47000000000E+01 0. -1.
        -13    1    4    4    0    0 -0.22914475118E+02 -0.52689996601E+01 -0.96870471056E+00  0.23532401411E+02  0.00000000000E+00 0.  1.
         14    1    4    4    0    0  0.10200091853E+02  0.75722736271E+02 -0.72975652828E+02  0.10565708953E+03  0.00000000000E+00 0. -1.
         -5    1    5    5    0  502 -0.43747819746E+02 -0.38357963740E+02  0.11602291959E+02  0.59513933608E+02  0.47000000000E+01 0.  1.
         13    1    6    6    0    0  0.47623611752E+02  0.13333967403E+02  0.20698829501E+01  0.49498358543E+02  0.00000000000E+00 0. -1.
        -14    1    6    6    0    0  0.56353528403E+02 -0.72868286114E+02 -0.35285333940E+02  0.98643611430E+02  0.00000000000E+00 0.  1.
</event>
<event>
12    1  0.8356052E-002  0.1969479E+03  0.7818608E-02  0.1152880E+00
         21   -1    0    0  503  502  0.00000000000E+00  0.00000000000E+00  0.10645580477E+04  0.10645580477E+04  0.00000000000E+00 0. -1.
         21   -1    0    0  501  503 -0.00000000000E+00 -0.00000000000E+00 -0.45268140467E+02  0.45268140467E+02  0.00000000000E+00 0. -1.
          6    2    1    2  501    0 -0.89365914732E+02 -0.11319707506E+02  0.26082543868E+03  0.32683080302E+03  0.17514012060E+03 0.  0.
         24    2    3    3    0    0 -0.11696780791E+03  0.98877607430E+01  0.25425567561E+03  0.29109744321E+03  0.79451475530E+02 0.  0.
         -6    2    1    2    0  502  0.89365914732E+02  0.11319707506E+02  0.75846446852E+03  0.78299538512E+03  0.17233403787E+03 0.  0.
        -24    2    5    5    0    0  0.38877104928E+02  0.64869140934E+02  0.30445229150E+03  0.32303255117E+03  0.77067480674E+02 0.  0.
          5    1    3    3  501    0  0.27601893175E+02 -0.21207468249E+02  0.65697630685E+01  0.35733359808E+02  0.47000000000E+01 0. -1.
        -13    1    4    4    0    0 -0.98699587606E+01  0.50504700812E+01  0.11411670071E+03  0.11465402180E+03  0.00000000000E+00 0.  1.
         14    1    4    4    0    0 -0.10709784915E+03  0.48372906618E+01  0.14013897490E+03  0.17644342141E+03  0.00000000000E+00 0. -1.
         -5    1    5    5    0  502  0.50488809804E+02 -0.53549433428E+02  0.45401217702E+03  0.45996283395E+03  0.47000000000E+01 0.  1.
         13    1    6    6    0    0  0.17072273725E+02  0.57771873507E+02  0.28939835211E+03  0.29560185741E+03  0.00000000000E+00 0. -1.
        -14    1    6    6    0    0  0.21804831203E+02  0.70972674275E+01  0.15053939392E+02  0.27430693757E+02  0.00000000000E+00 0.  1.
</event>
<event>
12    1  0.8356052E-002  0.1768894E+03  0.7818608E-02  0.1171172E+00
         21   -1    0    0  501  502  0.00000000000E+00  0.00000000000E+00  0.26701956093E+03  0.26701956093E+03  0.00000000000E+00 0. -1.
         21   -1    0    0  502  503 -0.00000000000E+00 -0.00000000000E+00 -0.11976857156E+03  0.11976857156E+03  0.00000000000E+00 0. -1.
         -6    2    1    2    0  503  0.60780877056E+01 -0.34477272447E+02  0.40536397713E+02  0.18020190399E+03  0.17205784259E+03 0.  0.
        -24    2    3    3    0    0 -0.29138973523E+02  0.37419394851E+02  0.62747056660E+01  0.92993385419E+02  0.79744008624E+02 0.  0.
          6    2    1    2  501    0 -0.60780877056E+01  0.34477272447E+02  0.10671459165E+03  0.20658622850E+03  0.17339042726E+03 0.  0.
         24    2    5    5    0    0  0.45496418443E+02  0.36804050067E+02  0.14788494810E+02  0.10105025899E+03  0.81043155607E+02 0.  0.
          5    1    5    5  501    0 -0.51574506149E+02 -0.23267776191E+01  0.91926096844E+02  0.10553596951E+03  0.47000000000E+01 0. -1.
        -13    1    6    6    0    0  0.40473479433E+02  0.32392543727E+02  0.45893007925E+02  0.69235450478E+02  0.00000000000E+00 0.  1.
         14    1    6    6    0    0  0.50229390104E+01  0.44115063398E+01 -0.31104513116E+02  0.31814808512E+02  0.00000000000E+00 0. -1.
         -5    1    3    3    0  503  0.35217061229E+02 -0.71896667299E+02  0.34261692047E+02  0.87208518576E+02  0.47000000000E+01 0.  1.
         13    1    4    4    0    0  0.11548010691E+02 -0.16714811264E+02 -0.11003255435E+02  0.23104395614E+02  0.00000000000E+00 0. -1.
        -14    1    4    4    0    0 -0.40686984215E+02  0.54134206115E+02  0.17277961101E+02  0.69888989805E+02  0.00000000000E+00 0.  1.
</event>
<event>
12    1  0.8356052E-002  0.2926201E+03  0.7818608E-02  0.1089125E+00
         21   -1    0    0  503  502  0.00000000000E+00  0.00000000000E+00  0.30565206833E+03  0.30565206833E+03  0.00000000000E+00 0.  1.
         21   -1    0    0  501  503 -0.00000000000E+00 -0.00000000000E+00 -0.27916317812E+03  0.27916317812E+03  0.00000000000E+00 0. -1.
          6    2    1    2  501    0  0.23165794307E+03  0.46489011123E+02  0.10364801654E+02  0.29175128954E+03  0.17083546206E+03 0.  0.
         24    2    3    3    0    0  0.63481448839E+02  0.30929335181E+02 -0.43765140288E+02  0.11433207598E+03  0.78548825404E+02 0.  0.
         -6    2    1    2    0  502 -0.23165794307E+03 -0.46489011123E+02  0.16124088556E+02  0.29306395691E+03  0.17262637650E+03 0.  0.
        -24    2    5    5    0    0 -0.13222376954E+03 -0.25132797708E+02 -0.58352847588E+02  0.16692059904E+03  0.79640748430E+02 0.  0.
          5    1    3    3  501    0  0.16817649423E+03  0.15559675942E+02  0.54129941942E+02  0.17741921356E+03  0.47000000000E+01 0. -1.
        -13    1    4    4    0    0  0.24743623769E+02 -0.19234018295E+02 -0.40034853975E+02  0.50842737041E+02  0.00000000000E+00 0.  1.
         14    1    4    4    0    0  0.38737825070E+02  0.50163353477E+02 -0.37302863136E+01  0.63489338941E+02  0.00000000000E+00 0. -1.
         -5    1    5    5    0  502 -0.99434173530E+02 -0.21356213415E+02  0.74476936144E+02  0.12614335787E+03  0.47000000000E+01 0.  1.
         13    1    6    6    0    0 -0.55324851707E+02 -0.36421134207E+02 -0.59721991607E+02  0.89185506193E+02  0.00000000000E+00 0. -1.
        -14    1    6    6    0    0 -0.76898917829E+02  0.11288336499E+02  0.13691440196E+01  0.77735092845E+02  0.00000000000E+00 0.  1.
</event>
<event>
12    1  0.8356052E-002  0.2071214E+03  0.7818608E-02  0.1144000E+00
         21   -1    0    0  503  502  0.00000000000E+00  0.00000000000E+00  0.88719192280E+02  0.88719192280E+02  0.00000000000E+00 0. -1.
         21   -1    0    0  501  503 -0.00000000000E+00 -0.00000000000E+00 -0.54828123525E+03  0.54828123525E+03  0.00000000000E+00 0. -1.
          6    2    1    2  501    0 -0.10944959589E+03 -0.33751514151E+02 -0.34020475944E+03  0.39794933833E+03  0.17177316084E+03 0.  0.
         24    2    3    3    0    0 -0.37115168090E+02 -0.66516631406E+02 -0.26973893243E+03  0.29167918669E+03  0.80719627858E+02 0.  0.
         -6    2    1    2    0  502  0.10944959589E+03  0.33751514151E+02 -0.11935728353E+03  0.23905108920E+03  0.17257138630E+03 0.  0.
        -24    2    5    5    0    0  0.12928429209E+03  0.23308561902E+02 -0.14012695618E+03  0.20813281424E+03  0.80162255935E+02 0.  0.
          5    1    3    3  501    0 -0.72334427800E+02  0.32765117256E+02 -0.70465827007E+02  0.10627015164E+03  0.47000000000E+01 0. -1.
        -13    1    4    4    0    0  0.18940506095E+02  0.54731016583E+01 -0.45408790765E+02  0.49504099746E+02  0.00000000000E+00 0.  1.
         14    1    4    4    0    0 -0.56055674185E+02 -0.71989733065E+02 -0.22433014167E+03  0.24217508694E+03  0.00000000000E+00 0. -1.
         -5    1    5    5    0  502 -0.19834696195E+02  0.10442952249E+02  0.20769672647E+02  0.30918274963E+02  0.47000000000E+01 0.  1.
         11    1    6    6    0    0  0.10569836001E+03  0.12251556754E+02 -0.56362994475E+02  0.12041192257E+03  0.00000000000E+00 0. -1.
        -12    1    6    6    0    0  0.23585932080E+02  0.11057005148E+02 -0.83763961700E+02  0.87720891666E+02  0.00000000000E+00 0.  1.
</event>
<event>
12    1  0.8356052E-002  0.2937666E+03  0.7818608E-02  0.1088933E+00
         21   -1    0    0  503  502  0.00000000000E+00  0.00000000000E+00  0.69254320780E+03  0.69254320780E+03  0.00000000000E+00 0.  1.
         21   -1    0    0  501  503 -0.00000000000E+00 -0.00000000000E+00 -0.27395052292E+03  0.27395052292E+03  0.00000000000E+00 0. -1.
          6    2    1    2  501    0 -0.11037179346E+03 -0.20430434167E+03 -0.14891053691E+03  0.32935268471E+03  0.17993511638E+03 0.  0.
         24    2    3    3    0    0 -0.10781548254E+03 -0.21921791737E+03 -0.16613666578E+03  0.30594800609E+03  0.79511742192E+02 0.  0.
         -6    2    1    2    0  502  0.11037179346E+03  0.20430434167E+03  0.56750322179E+03  0.63714104601E+03  0.17310866226E+03 0.  0.
        -24    2    5    5    0    0  0.65643515639E+02  0.16194642107E+03  0.25901326017E+03  0.32252547313E+03  0.79994358752E+02 0.  0.
          5    1    3    3  501    0 -0.25563109208E+01  0.14913575696E+02  0.17226128867E+02  0.23404678620E+02  0.47000000000E+01 0. -1.
        -11    1    4    4    0    0 -0.37069907299E+02 -0.73674598136E+02 -0.13649901046E+02  0.83596915232E+02  0.00000000000E+00 0.  1.
         12    1    4    4    0    0 -0.70745575242E+02 -0.14554331923E+03 -0.15248676473E+03  0.22235109086E+03  0.00000000000E+00 0. -1.
         -5    1    5    5    0  502  0.44728277822E+02  0.42357920597E+02  0.30848996162E+03  0.31461557288E+03  0.47000000000E+01 0.  1.
         11    1    6    6    0    0  0.62854734043E+02  0.71802126208E+02  0.17470654567E+03  0.19906943517E+03  0.00000000000E+00 0. -1.
        -12    1    6    6    0    0  0.27887815963E+01  0.90144294864E+02  0.84306714500E+02  0.12345603796E+03  0.00000000000E+00 0.  1.
</event>
<event>
12    1  0.8356052E-002  0.2874342E+03  0.7818608E-02  0.1092585E+00
         21   -1    0    0  503  502  0.00000000000E+00  0.00000000000E+00  0.88519999670E+02  0.88519999670E+02  0.00000000000E+00 0. -1.
         21   -1    0    0  501  503 -0.00000000000E+00 -0.00000000000E+00 -0.12694388689E+04  0.12694388689E+04  0.00000000000E+00 0. -1.
          6    2    1    2  501    0  0.18755860802E+03 -0.13301260487E+03 -0.94583638675E+03  0.98663392030E+03  0.16115035736E+03 0.  0.
         24    2    3    3    0    0  0.37861961087E+02 -0.73641805240E+02 -0.31688919737E+03  0.33738001389E+03  0.80931247279E+02 0.  0.
         -6    2    1    2    0  502 -0.18755860802E+03  0.13301260487E+03 -0.23508248251E+03  0.37132494831E+03  0.17247567700E+03 0.  0.
        -24    2    5    5    0    0 -0.21342248998E+03  0.11680549301E+03 -0.20385073773E+03  0.32740316844E+03  0.80280938002E+02 0.  0.
          5    1    3    3  501    0  0.14969664694E+03 -0.59370799625E+02 -0.62894718938E+03  0.64925390641E+03  0.47000000000E+01 0. -1.
        -11    1    4    4    0    0 -0.45439028544E+01 -0.54382606966E+01 -0.16852064696E+03  0.16866958879E+03  0.00000000000E+00 0.  1.
         12    1    4    4    0    0  0.42405863942E+02 -0.68203544544E+02 -0.14836855041E+03  0.16871042510E+03  0.00000000000E+00 0. -1.
         -5    1    5    5    0  502  0.25863881955E+02  0.16207111857E+02 -0.31231744779E+02  0.43921779865E+02  0.47000000000E+01 0.  1.
         11    1    6    6    0    0 -0.85502841576E+02  0.88674397667E+02 -0.11945661196E+03  0.17159186129E+03  0.00000000000E+00 0. -1.
        -12    1    6    6    0    0 -0.12791964840E+03  0.28131095341E+02 -0.84394125775E+02  0.15581130716E+03  0.00000000000E+00 0.  1.
</event>
<event>
12    1  0.8356052E-002  0.3286758E+03  0.7818608E-02  0.1072205E+00
         21   -1    0    0  503  502  0.00000000000E+00  0.00000000000E+00  0.22817601581E+03  0.22817601581E+03  0.00000000000E+00 0. -1.
         21   -1    0    0  501  503 -0.00000000000E+00 -0.00000000000E+00 -0.82617737245E+03  0.82617737245E+03  0.00000000000E+00 0.  1.
          6    2    1    2  501    0 -0.12023191263E+03  0.24670141479E+03 -0.64756648146E+03  0.72620254493E+03  0.18086040882E+03 0.  0.
         24    2    3    3    0    0 -0.11597489584E+03  0.26972280793E+03 -0.60984520662E+03  0.68155849371E+03  0.80063941507E+02 0.  0.
         -6    2    1    2    0  502  0.12023191263E+03 -0.24670141479E+03  0.49565124815E+02  0.32815084334E+03  0.17294211028E+03 0.  0.
        -24    2    5    5    0    0  0.11884853515E+03 -0.23600225607E+03 -0.13664518010E+01  0.27587751144E+03  0.79274806531E+02 0.  0.
          5    1    3    3  501    0 -0.42570167885E+01 -0.23021393134E+02 -0.37721274839E+02  0.44644051219E+02  0.47000000000E+01 0. -1.
        -11    1    4    4    0    0 -0.12627776737E+03  0.22748980997E+03 -0.50583764083E+03  0.56883161572E+03  0.00000000000E+00 0.  1.
         12    1    4    4    0    0  0.10302871524E+02  0.42232997960E+02 -0.10400756579E+03  0.11272687798E+03  0.00000000000E+00 0. -1.
         -5    1    5    5    0  502  0.13833774774E+01 -0.10699158717E+02  0.50931576615E+02  0.52273331892E+02  0.47000000000E+01 0.  1.
         13    1    6    6    0    0 -0.51463052155E+01 -0.55574940420E+01  0.11618806413E+02  0.13869638058E+02  0.00000000000E+00 0. -1.
        -14    1    6    6    0    0  0.12399484037E+03 -0.23044476203E+03 -0.12985258214E+02  0.26200787339E+03  0.00000000000E+00 0.  1.
</event>
<event>
12    1  0.8356052E-002  0.1892261E+03  0.7818608E-02  0.1160204E+00
         21   -1    0    0  501  502  0.00000000000E+00  0.00000000000E+00  0.49349575808E+03  0.49349575808E+03  0.00000000000E+00 0.  1.
         21   -1    0    0  502  503 -0.00000000000E+00 -0.00000000000E+00 -0.83495960877E+02  0.83495960877E+02  0.00000000000E+00 0. -1.
         -6    2    1    2    0  503 -0.39658853904E+02 -0.69202964062E+02  0.31948361965E+03  0.37131699611E+03  0.17159444470E+03 0.  0.
        -24    2    3    3    0    0 -0.23306079555E+01  0.24271796943E+02  0.18871135522E+03  0.20622791702E+03  0.79519974293E+02 0.  0.
          6    2    1    2  501    0  0.39658853904E+02  0.69202964062E+02  0.90516177561E+02  0.20567472285E+03  0.16657442268E+03 0.  0.
         24    2    5    5    0    0  0.74330316816E+01 -0.13761815545E+02  0.83344250018E+02  0.11625892549E+03  0.79531353672E+02 0.  0.
          5    1    5    5  501    0  0.32225822222E+02  0.82964779607E+02  0.71719275428E+01  0.89415797362E+02  0.47000000000E+01 0. -1.
        -13    1    6    6    0    0  0.55501498578E+01  0.21015197598E+02  0.78063345888E+02  0.81032886317E+02  0.00000000000E+00 0.  1.
         14    1    6    6    0    0  0.18828818238E+01 -0.34777013143E+02  0.52809041295E+01  0.35226039169E+02  0.00000000000E+00 0. -1.
         -5    1    3    3    0  503 -0.37328245948E+02 -0.93474761005E+02  0.13077226443E+03  0.16508907909E+03  0.47000000000E+01 0.  1.
         11    1    4    4    0    0 -0.28955305433E+02  0.29017764276E+02  0.48828444145E+02  0.63754665037E+02  0.00000000000E+00 0. -1.
        -12    1    4    4    0    0  0.26624697477E+02 -0.47459673331E+01  0.13988291107E+03  0.14247325199E+03  0.00000000000E+00 0.  1.
</event>
<event>
12    1  0.8356052E-002  0.2465125E+03  0.7818608E-02  0.1116743E+00
         21   -1    0    0  501  502  0.00000000000E+00  0.00000000000E+00  0.11947869134E+03  0.11947869134E+03  0.00000000000E+00 0. -1.
         21   -1    0    0  502  503 -0.00000000000E+00 -0.00000000000E+00 -0.56107089709E+03  0.56107089709E+03  0.00000000000E+00 0.  1.
         -6    2    1    2    0  503 -0.98154456564E+02  0.13472113483E+03 -0.34192224569E+03  0.42152014985E+03  0.18161589446E+03 0.  0.
        -24    2    3    3    0    0  0.18847079541E+02  0.70872859884E+02 -0.22086331490E+03  0.24139986674E+03  0.64149178628E+02 0.  0.
          6    2    1    2  501    0  0.98154456564E+02 -0.13472113483E+03 -0.99669960066E+02  0.25902943859E+03  0.17140031390E+03 0.  0.
         24    2    5    5    0    0  0.31432219945E+02 -0.68056761593E+02 -0.12171395858E+03  0.16205509462E+03  0.76340413480E+02 0.  0.
          5    1    5    5  501    0  0.66722236619E+02 -0.66664373235E+02  0.22043998510E+02  0.96974343971E+02  0.47000000000E+01 0. -1.
        -13    1    6    6    0    0  0.14114719829E+02  0.13250063536E+02 -0.74340770702E+01  0.20737767514E+02  0.00000000000E+00 0.  1.
         14    1    6    6    0    0  0.17317500116E+02 -0.81306825129E+02 -0.11427988151E+03  0.14131732710E+03  0.00000000000E+00 0. -1.
         -5    1    3    3    0  503 -0.11700153611E+03  0.63848274943E+02 -0.12105893079E+03  0.18012028311E+03  0.47000000000E+01 0.  1.
         11    1    4    4    0    0  0.37635736365E+02  0.33982600094E+02 -0.81223473701E+02  0.95752380863E+02  0.00000000000E+00 0. -1.
        -12    1    4    4    0    0 -0.18788656823E+02  0.36890259791E+02 -0.13963984120E+03  0.14564748588E+03  0.00000000000E+00 0.  1.
</event>
<event>
12    1  0.8356052E-002  0.1925996E+03  0.7818608E-02  0.1156188E+00
         21   -1    0    0  503  502  0.00000000000E+00  0.00000000000E+00  0.69920872568E+03  0.69920872568E+03  0.00000000000E+00 0.  1.
         21   -1    0    0  501  503 -0.00000000000E+00 -0.00000000000E+00 -0.10758104873E+03  0.10758104873E+03  0.00000000000E+00 0. -1.
          6    2    1    2  501    0 -0.81600272520E+01 -0.85939444698E+02  0.83687236383E+01  0.19255396766E+03  0.17191515561E+03 0.  0.
         24    2    3    3    0    0 -0.13495390606E+02 -0.27700276718E+02  0.67565380616E+02  0.10920769608E+03  0.80073774284E+02 0.  0.
         -6    2    1    2    0  502  0.81600272520E+01  0.85939444698E+02  0.58325895331E+03  0.61423580675E+03  0.17216981579E+03 0.  0.
        -24    2    5    5    0    0  0.52330159603E+02  0.15341612479E+02  0.41722730043E+03  0.42843038631E+03  0.80623600813E+02 0.  0.
          5    1    3    3  501    0  0.53353633536E+01 -0.58239167981E+02 -0.59196656978E+02  0.83346271582E+02  0.47000000000E+01 0. -1.
        -11    1    4    4    0    0 -0.55465461409E+01  0.27700315189E+02  0.32940020676E+02  0.43394891379E+02  0.00000000000E+00 0.  1.
         12    1    4    4    0    0 -0.79488444648E+01 -0.55400591907E+02  0.34625359940E+02  0.65812804703E+02  0.00000000000E+00 0. -1.
         -5    1    5    5    0  502 -0.44170132351E+02  0.70597832219E+02  0.16603165288E+03  0.18580542044E+03  0.47000000000E+01 0.  1.
         13    1    6    6    0    0  0.21791105532E+02 -0.33215426397E+02  0.18589749462E+03  0.19009470097E+03  0.00000000000E+00 0. -1.
        -14    1    6    6    0    0  0.30539054070E+02  0.48557038876E+02  0.23132980581E+03  0.23833568534E+03  0.00000000000E+00 0.  1.
</event>
<event>
12    1  0.8356052E-002  0.1961205E+03  0.7818608E-02  0.1154010E+00
         21   -1    0    0  501  502  0.00000000000E+00  0.00000000000E+00  0.23120784710E+03  0.23120784710E+03  0.00000000000E+00 0. -1.
         21   -1    0    0  502  503 -0.00000000000E+00 -0.00000000000E+00 -0.36298664060E+03  0.36298664060E+03  0.00000000000E+00 0. -1.
         -6    2    1    2    0  503  0.17263502136E+02  0.87751140620E+02 -0.28691707478E+03  0.34754087219E+03  0.17454214064E+03 0.  0.
        -24    2    3    3    0    0  0.29827081123E+02  0.12551062347E+03 -0.19722375633E+03  0.24930338731E+03  0.81316649531E+02 0.  0.
          6    2    1    2  501    0 -0.17263502136E+02 -0.87751140620E+02  0.15513828128E+03  0.24665361551E+03  0.16962260622E+03 0.  0.
         24    2    5    5    0    0 -0.28675149147E+02 -0.38449832555E+02  0.11471718369E+02  0.94262618524E+02  0.80331731754E+02 0.  0.
          5    1    5    5  501    0  0.11411647011E+02 -0.49301308065E+02  0.14366656291E+03  0.15239099699E+03  0.47000000000E+01 0. -1.
        -13    1    6    6    0    0 -0.77601973458E+01  0.24513489463E+02  0.10864661050E+02  0.27913664901E+02  0.00000000000E+00 0.  1.
         14    1    6    6    0    0 -0.20914951801E+02 -0.62963322017E+02  0.60705731909E+00  0.66348953623E+02  0.00000000000E+00 0. -1.
         -5    1    3    3    0  503 -0.12563578987E+02 -0.37759482851E+02 -0.89693318448E+02  0.98237484884E+02  0.47000000000E+01 0.  1.
         11    1    4    4    0    0  0.49608470879E+02  0.43553689016E+02 -0.10775568484E+03  0.12636934685E+03  0.00000000000E+00 0. -1.
        -12    1    4    4    0    0 -0.19781389756E+02  0.81956934455E+02 -0.89468071493E+02  0.12293404046E+03  0.00000000000E+00 0.  1.
</event>
<event>
12    1  0.8356052E-002  0.1789904E+03  0.7818608E-02  0.1168983E+00
         21   -1    0    0  503  502  0.00000000000E+00  0.00000000000E+00  0.50133904473E+03  0.50133904473E+03  0.00000000000E+00 0. -1.
         21   -1    0    0  501  503 -0.00000000000E+00 -0.00000000000E+00 -0.65065912150E+02  0.65065912150E+02  0.00000000000E+00 0. -1.
          6    2    1    2  501    0  0.59189081035E+01 -0.43225394631E+02  0.26094886475E+03  0.31643620791E+03  0.17359174937E+03 0.  0.
         24    2    3    3    0    0 -0.55745280554E+02  0.35285717652E+00  0.10236886983E+03  0.14073407081E+03  0.78860841768E+02 0.  0.
         -6    2    1    2    0  502 -0.59189081035E+01  0.43225394631E+02  0.17532426783E+03  0.24996874897E+03  0.17274926442E+03 0.  0.
        -24    2    5    5    0    0 -0.61890311067E+01  0.76028960053E+02  0.18448613172E+03  0.21558595355E+03  0.81384665005E+02 0.  0.
          5    1    3    3  501    0  0.61664188658E+02 -0.43578251807E+02  0.15857999492E+03  0.17570213710E+03  0.47000000000E+01 0. -1.
        -11    1    4    4    0    0 -0.19034019967E+01  0.29375814089E+02  0.12400681427E+02  0.31942734579E+02  0.00000000000E+00 0.  1.
         12    1    4    4    0    0 -0.53841878558E+02 -0.29022956912E+02  0.89968188404E+02  0.10879133623E+03  0.00000000000E+00 0. -1.
         -5    1    5    5    0  502  0.27012300328E+00 -0.32803565422E+02 -0.91618638899E+01  0.34382795418E+02  0.47000000000E+01 0.  1.
         13    1    6    6    0    0  0.37112722822E+02  0.37257374659E+02  0.74560596546E+02  0.91240060934E+02  0.00000000000E+00 0. -1.
        -14    1    6    6    0    0 -0.43301753929E+02  0.38771585393E+02  0.10992553517E+03  0.12434589261E+03  0.00000000000E+00 0.  1.
</event>
<event>
12    1  0.8356052E-002  0.1981348E+03  0.7818608E-02  0.1151546E+00
         21   -1    0    0  501  502  0.00000000000E+00  0.00000000000E+00  0.26769886482E+03  0.26769886482E+03  0.00000000000E+00 0. -1.
         21   -1    0    0  502  503 -0.00000000000E+00 -0.00000000000E+00 -0.22123245979E+03  0.22123245979E+03  0.00000000000E+00 0. -1.
         -6    2    1    2    0  503 -0.95620027966E+02  0.13555277324E+02 -0.11940416500E+03  0.23133257639E+03  0.17300425136E+03 0.  0.
        -24    2    3    3    0    0 -0.13083185786E+03  0.16898620771E+02 -0.11965198467E+03  0.19565061562E+03  0.80993996953E+02 0.  0.
          6    2    1    2  501    0  0.95620027966E+02 -0.13555277324E+02  0.16587057004E+03  0.25759874822E+03  0.17180551153E+03 0.  0.
         24    2    5    5    0    0  0.11778572283E+03  0.30798547862E+02  0.13730338066E+03  0.20018138024E+03  0.79989621842E+02 0.  0.
          5    1    5    5  501    0 -0.22165694859E+02 -0.44353825186E+02  0.28567189378E+02  0.57417367984E+02  0.47000000000E+01 0. -1.
        -11    1    6    6    0    0 -0.10787673220E+02  0.80853948373E+01  0.52151161569E+01  0.14454927869E+02  0.00000000000E+00 0.  1.
         12    1    6    6    0    0  0.12857339605E+03  0.22713153025E+02  0.13208826450E+03  0.18572645237E+03  0.00000000000E+00 0. -1.
         -5    1    3    3    0  503  0.35211829892E+02 -0.33433434465E+01  0.24781966797E+00  0.35681960769E+02  0.47000000000E+01 0.  1.
         11    1    4    4    0    0 -0.57289986198E+02 -0.30546029781E+02 -0.34407126254E+02  0.73478247060E+02  0.00000000000E+00 0. -1.
        -12    1    4    4    0    0 -0.73541871659E+02  0.47444650551E+02 -0.85244858416E+02  0.12217236856E+03  0.00000000000E+00 0.  1.
</event>
<event>
12    1  0.8356052E-002  0.1748405E+03  0.7818608E-02  0.1173849E+00
         21   -1    0    0  501  502  0.00000000000E+00  0.00000000000E+00  0.14652278650E+03  0.14652278650E+03  0.00000000000E+00 0.  1.
         21   -1    0    0  502  503 -0.00000000000E+00 -0.00000000000E+00 -0.20957274688E+03  0.20957274688E+03  0.00000000000E+00 0.  1.
         -6    2    1    2    0  503 -0.33471982110E+02  0.10811431301E+02 -0.60466054387E+02  0.18500090126E+03  0.17126566819E+03 0.  0.
        -24    2    3    3    0    0  0.24484241874E+02  0.97262420867E+01 -0.85951640912E+02  0.12150517972E+03  0.81741949068E+02 0.  0.
          6    2    1    2  501    0  0.33471982110E+02 -0.10811431301E+02 -0.25839059994E+01  0.17109463212E+03  0.16741993888E+03 0.  0.
         24    2    5    5    0    0  0.60252071413E+02 -0.25259389970E+02 -0.51061782319E+02  0.11366544803E+03  0.77744321788E+02 0.  0.
          5    1    5    5  501    0 -0.26780089303E+02  0.14447958669E+02  0.48477876320E+02  0.57429184090E+02  0.47000000000E+01 0. -1.
        -13    1    6    6    0    0 -0.18393146120E+00  0.17914133556E+02 -0.32496229872E+02  0.37107343852E+02  0.00000000000E+00 0.  1.
         14    1    6    6    0    0  0.60436002874E+02 -0.43173523527E+02 -0.18565552447E+02  0.76558104174E+02  0.00000000000E+00 0. -1.
         -5    1    3    3    0  503 -0.57956223984E+02  0.10851892146E+01  0.25485586525E+02  0.63495721546E+02  0.47000000000E+01 0.  1.
         13    1    4    4    0    0  0.13889600883E+02  0.46021945652E+02 -0.48108436891E+02  0.68010015398E+02  0.00000000000E+00 0. -1.
        -14    1    4    4    0    0  0.10594640991E+02 -0.36295703566E+02 -0.37843204021E+02  0.53495164320E+02  0.00000000000E+00 0.  1.
</event>
<event>
12    1  0.8356052E-002  0.1766279E+03  0.7818608E-02  0.1172135E+00
         21   -1    0    0  503  502  0.00000000000E+00  0.00000000000E+00  0.61277579823E+03  0.61277579823E+03  0.00000000000E+00 0. -1.
         21   -1    0    0  501  503 -0.00000000000E+00 -0.00000000000E+00 -0.52021631778E+02  0.52021631778E+02  0.00000000000E+00 0. -1.
          6    2    1    2  501    0  0.40444257659E+02 -0.28400734653E+01  0.20761133388E+03  0.26994649453E+03  0.16770462117E+03 0.  0.
         24    2    3    3    0    0  0.14679008278E+02 -0.51362258584E+02  0.59867410488E+02  0.11224865871E+03  0.78499042369E+02 0.  0.
         -6    2    1    2    0  502 -0.40444257659E+02  0.28400734653E+01  0.35314283258E+03  0.39485093548E+03  0.17191159662E+03 0.  0.
        -24    2    5    5    0    0  0.36736062282E+02 -0.26390060829E+02  0.19534030908E+03  0.21670793405E+03  0.82210210708E+02 0.  0.
          5    1    3    3  501    0  0.25765249381E+02  0.48522185119E+02  0.14774392339E+03  0.15769783582E+03  0.47000000000E+01 0.  1.
        -13    1    4    4    0    0 -0.23667595434E+02 -0.30122480259E+02  0.56528028811E+02  0.68285700786E+02  0.00000000000E+00 0.  1.
         14    1    4    4    0    0  0.38346603711E+02 -0.21239778324E+02  0.33393816773E+01  0.43962957924E+02  0.00000000000E+00 0. -1.
         -5    1    5    5    0  502 -0.77180319941E+02  0.29230134294E+02  0.15780252350E+03  0.17814300143E+03  0.47000000000E+01 0.  1.
         11    1    6    6    0    0  0.16140641197E+00  0.26075288610E+02  0.87766962421E+02  0.91558650169E+02  0.00000000000E+00 0. -1.
        -12    1    6    6    0    0  0.36574655870E+02 -0.52465349439E+02  0.10757334666E+03  0.12514928388E+03  0.00000000000E+00 0.  1.
</event>
<event>
12    1  0.8356052E-002  0.2483017E+03  0.7818608E-02  0.1114531E+00
         21   -1    0    0  501  502  0.00000000000E+00  0.00000000000E+00  0.52904426840E+03  0.52904426840E+03  0.00000000000E+00 0.  1.
         21   -1    0    0  502  503 -0.00000000000E+00 -0.00000000000E+00 -0.12447843555E+03  0.12447843555E+03  0.00000000000E+00 0. -1.
         -6    2    1    2    0  503 -0.79498267354E+02  0.15901689976E+03  0.11716393305E+03  0.27371542487E+03  0.17200696987E+03 0.  0.
        -24    2    3    3    0    0 -0.35102749841E+02  0.17720348552E+03  0.10660991622E+03  0.22436776891E+03  0.79636318112E+02 0.  0.
          6    2    1    2  501    0  0.79498267354E+02 -0.15901689976E+03  0.28740189981E+03  0.37980727908E+03  0.17334176736E+03 0.  0.
         24    2    5    5    0    0  0.27411414292E+02 -0.17339010752E+03  0.23982986416E+03  0.30766285491E+03  0.79514486275E+02 0.  0.
          5    1    5    5  501    0  0.52086853062E+02  0.14373207768E+02  0.47572035649E+02  0.72144424173E+02  0.47000000000E+01 0. -1.
        -13    1    6    6    0    0  0.43289459489E+02 -0.12921231882E+03  0.21502126273E+03  0.25456618799E+03  0.00000000000E+00 0.  1.
         14    1    6    6    0    0 -0.15878045196E+02 -0.44177788701E+02  0.24808601430E+02  0.53096666926E+02  0.00000000000E+00 0. -1.
         -5    1    3    3    0  503 -0.44395517514E+02 -0.18186585766E+02  0.10554016823E+02  0.49347655955E+02  0.47000000000E+01 0.  1.
         11    1    4    4    0    0 -0.21760828269E+02  0.14654745012E+03  0.45970805398E+02  0.15512254425E+03  0.00000000000E+00 0. -1.
        -12    1    4    4    0    0 -0.13341921572E+02  0.30656035400E+02  0.60639110824E+02  0.69245224667E+02  0.00000000000E+00 0.  1.
</event>
<event>
12    1  0.8356052E-002  0.1766568E+03  0.7818608E-02  0.1171174E+00
         21   -1    0    0  503  502  0.00000000000E+00  0.00000000000E+00  0.14599525362E+04  0.14599525362E+04  0.00000000000E+00 0.  1.
         21   -1    0    0  501  503 -0.00000000000E+00 -0.00000000000E+00 -0.77986037315E+02  0.77986037315E+02  0.00000000000E+00 0.  1.
          6    2    1    2  501    0 -0.20905635217E+02 -0.22934501531E+02  0.35346966954E+02  0.17978107345E+03  0.17351884437E+03 0.  0.
         24    2    3    3    0    0 -0.66488141754E+02 -0.56704826405E+02  0.10417697185E+02  0.11763802689E+03  0.78064502970E+02 0.  0.
         -6    2    1    2    0  502  0.20905635217E+02  0.22934501531E+02  0.13466195319E+04  0.13581575001E+04  0.17390973024E+03 0.  0.
        -24    2    5    5    0    0 -0.12248268270E+01  0.10117318158E+02  0.28886629894E+03  0.30008470983E+03  0.80642631924E+02 0.  0.
          5    1    3    3  501    0  0.45582506538E+02  0.33770324873E+02  0.24929269769E+02  0.62143046558E+02  0.47000000000E+01 0. -1.
        -11    1    4    4    0    0 -0.15503599654E+02 -0.13113567479E+02 -0.32270533896E+02  0.38127609579E+02  0.00000000000E+00 0.  1.
         12    1    4    4    0    0 -0.50984542100E+02 -0.43591258926E+02  0.42688231081E+02  0.79510417309E+02  0.00000000000E+00 0. -1.
         -5    1    5    5    0  502  0.22130462044E+02  0.12817183374E+02  0.10577532330E+04  0.10580727903E+04  0.47000000000E+01 0.  1.
         13    1    6    6    0    0  0.42762428110E+01  0.33312900675E+02  0.26209347666E+03  0.26423668578E+03  0.00000000000E+00 0. -1.
        -14    1    6    6    0    0 -0.55010696379E+01 -0.23195582517E+02  0.26772822275E+02  0.35848024046E+02  0.00000000000E+00 0.  1.
</event>
<event>
12    1  0.8356052E-002  0.1802621E+03  0.7818608E-02  0.1167679E+00
         21   -1    0    0  503  502  0.00000000000E+00  0.00000000000E+00  0.98321365178E+02  0.98321365178E+02  0.00000000000E+00 0.  1.
         21   -1    0    0  501  503 -0.00000000000E+00 -0.00000000000E+00 -0.38121028342E+03  0.38121028342E+03  0.00000000000E+00 0.  1.
          6    2    1    2  501    0  0.16165186059E+01  0.55847731348E+02 -0.52964590680E+02  0.18736798451E+03  0.17082134388E+03 0.  0.
         24    2    3    3    0    0 -0.43312836035E+02  0.86065824351E+02 -0.47324318396E+02  0.13272658332E+03  0.78060405587E+02 0.  0.
         -6    2    1    2    0  502 -0.16165186059E+01 -0.55847731348E+02 -0.22992432757E+03  0.29216366409E+03  0.17138502846E+03 0.  0.
        -24    2    5    5    0    0 -0.46930589647E+02  0.13217541348E+02 -0.95034640518E+02  0.13392114579E+03  0.80784322407E+02 0.  0.
          5    1    3    3  501    0  0.44929354641E+02 -0.30218093003E+02 -0.56402722841E+01  0.54641401195E+02  0.47000000000E+01 0. -1.
        -11    1    4    4    0    0 -0.35566552518E+02  0.52472537527E+02  0.11614401431E+02  0.64445645106E+02  0.00000000000E+00 0.  1.
         12    1    4    4    0    0 -0.77462835172E+01  0.33593286824E+02 -0.58938719827E+02  0.68280938210E+02  0.00000000000E+00 0. -1.
         -5    1    5    5    0  502  0.45314071042E+02 -0.69065272697E+02 -0.13488968705E+03  0.15824251830E+03  0.47000000000E+01 0.  1.
         11    1    6    6    0    0 -0.26339539904E+02 -0.24819420413E+02 -0.80551269768E+02  0.88307882170E+02  0.00000000000E+00 0. -1.
        -12    1    6    6    0    0 -0.20591049743E+02  0.38036961762E+02 -0.14483370749E+02  0.45613263618E+02  0.00000000000E+00 0.  1.
</event>
<event>
12    1  0.8356052E-002  0.5191230E+03  0.7818608E-02  0.1008908E+00
         21   -1    0    0  501  502  0.00000000000E+00  0.00000000000E+00  0.23148423851E+04  0.23148423851E+04  0.00000000000E+00 0.  1.
         21   -1    0    0  502  503 -0.00000000000E+00 -0.00000000000E+00 -0.20512305575E+03  0.20512305575E+03  0.00000000000E+00 0. -1.
         -6    2    1    2    0  503 -0.71001820660E+02  0.48471998098E+03  0.22620570627E+03  0.56622231020E+03  0.17159243725E+03 0.  0.
        -24    2    3    3    0    0  0.18258461869E+02  0.19140114173E+03  0.12979755560E+03  0.24478808518E+03  0.78141107768E+02 0.  0.
          6    2    1    2  501    0  0.71001820660E+02 -0.48471998098E+03  0.18835136231E+04  0.19537431307E+04  0.17173797999E+03 0.  0.
         24    2    5    5    0    0  0.24551834139E+02 -0.18156914290E+03  0.94406364446E+03  0.96548892034E+03  0.85688647459E+02 0.  0.
          5    1    5    5  501    0  0.46449986521E+02 -0.30315083808E+03  0.93944997864E+03  0.98825421033E+03  0.47000000000E+01 0. -1.
        -13    1    6    6    0    0  0.32386890769E+02 -0.18713824025E+03  0.85125942174E+03  0.87218818769E+03  0.00000000000E+00 0.  1.
         14    1    6    6    0    0 -0.78350566302E+01  0.55690973515E+01  0.92804222723E+02  0.93300732650E+02  0.00000000000E+00 0. -1.
         -5    1    3    3    0  503 -0.89260282528E+02  0.29331883925E+03  0.96408150678E+02  0.32143422502E+03  0.47000000000E+01 0.  1.
         13    1    4    4    0    0  0.23717316876E+02  0.15536535804E+03  0.64253890415E+02  0.16979242631E+03  0.00000000000E+00 0. -1.
        -14    1    4    4    0    0 -0.54588550069E+01  0.36035783684E+02  0.65543665180E+02  0.74995658867E+02  0.00000000000E+00 0.  1.
</event>
<event>
12    1  0.8356052E-002  0.2134474E+03  0.7818608E-02  0.1138946E+00
         21   -1    0    0  501  502  0.00000000000E+00  0.00000000000E+00  0.84908440118E+02  0.84908440118E+02  0.00000000000E+00 0. -1.
         21   -1    0    0  502  503 -0.00000000000E+00 -0.00000000000E+00 -0.74900807302E+03  0.74900807302E+03  0.00000000000E+00 0.  1.
         -6    2    1    2    0  503  0.71948388250E+02 -0.10366321166E+03 -0.55489107846E+03  0.59452828610E+03  0.17215441323E+03 0.  0.
        -24    2    3    3    0    0  0.51291832271E+00 -0.77373005581E+02 -0.45821738447E+03  0.47139382947E+03  0.79133595630E+02 0.  0.
          6    2    1    2  501    0 -0.71948388250E+02  0.10366321166E+03 -0.10920855444E+03  0.23938822703E+03  0.17163211488E+03 0.  0.
         24    2    5    5    0    0  0.26270121432E+02  0.77630534848E+02 -0.52315572530E+02  0.12284005117E+03  0.75074228750E+02 0.  0.
          5    1    5    5  501    0 -0.98218509681E+02  0.26032676811E+02 -0.56892981908E+02  0.11654817586E+03  0.47000000000E+01 0. -1.
        -13    1    6    6    0    0  0.14863111791E+02  0.38681653516E+01  0.15625347895E+02  0.21909502325E+02  0.00000000000E+00 0.  1.
         14    1    6    6    0    0  0.11407009641E+02  0.73762369496E+02 -0.67940920425E+02  0.10093054885E+03  0.00000000000E+00 0. -1.
         -5    1    3    3    0  503  0.71435469927E+02 -0.26290206078E+02 -0.96673693993E+02  0.12313445663E+03  0.47000000000E+01 0.  1.
         11    1    4    4    0    0 -0.31045669133E+02 -0.49567579177E+02 -0.16259754748E+03  0.17279681977E+03  0.00000000000E+00 0. -1.
        -12    1    4    4    0    0  0.31558587455E+02 -0.27805426404E+02 -0.29561983699E+03  0.29859700970E+03  0.00000000000E+00 0.  1.
</event>
<event>
12    1  0.8356052E-002  0.1878219E+03  0.7818608E-02  0.1163446E+00
         21   -1    0    0  503  502  0.00000000000E+00  0.00000000000E+00  0.28525527957E+02  0.28525527957E+02  0.00000000000E+00 0.  1.
         21   -1    0    0  501  503 -0.00000000000E+00 -0.00000000000E+00 -0.12366411240E+04  0.12366411240E+04  0.00000000000E+00 0.  1.
          6    2    1    2  501    0 -0.34611491082E+02 -0.50778070883E+01 -0.74705351194E+03  0.76731596833E+03  0.17164237853E+03 0.  0.
         24    2    3    3    0    0  0.15820956928E+02 -0.59805390724E+02 -0.43315568338E+03  0.44468231076E+03  0.79319127684E+02 0.  0.
         -6    2    1    2    0  502  0.34611491082E+02  0.50778070883E+01 -0.46106208413E+03  0.49785068365E+03  0.18453541220E+03 0.  0.
        -24    2    5    5    0    0  0.10111449504E+02 -0.58445158276E+02 -0.37718460923E+03  0.38971678536E+03  0.78056808877E+02 0.  0.
          5    1    3    3  501    0 -0.50432448011E+02  0.54727583636E+02 -0.31389782856E+03  0.32263365757E+03  0.47000000000E+01 0. -1.
        -13    1    4    4    0    0  0.19915467721E+01  0.32363349278E+01  0.23184391064E+01  0.44514359707E+01  0.00000000000E+00 0.  1.
         14    1    4    4    0    0  0.13829410156E+02 -0.63041725652E+02 -0.43547412249E+03  0.44023087479E+03  0.00000000000E+00 0. -1.
         -5    1    5    5    0  502  0.24500041578E+02  0.63522965364E+02 -0.83877474897E+02  0.10813389830E+03  0.47000000000E+01 0.  1.
         13    1    6    6    0    0 -0.20706920345E+02 -0.84794106536E+01 -0.29057070794E+02  0.36674109646E+02  0.00000000000E+00 0. -1.
        -14    1    6    6    0    0  0.30818369849E+02 -0.49965747622E+02 -0.34812753844E+03  0.35304267571E+03  0.00000000000E+00 0.  1.
</event>
<event>
12    1  0.8356052E-002  0.1956153E+03  0.7818608E-02  0.1153501E+00
         21   -1    0    0  501  502  0.00000000000E+00  0.00000000000E+00  0.13081889841E+03  0.13081889841E+03  0.00000000000E+00 0.  1.
         21   -1    0    0  502  503 -0.00000000000E+00 -0.00000000000E+00 -0.10413557593E+04  0.10413557593E+04  0.00000000000E+00 0. -1.
         -6    2    1    2    0  503 -0.79421670528E+02 -0.48867508037E+02 -0.95227995250E+03  0.97215508550E+03  0.17190860138E+03 0.  0.
        -24    2    3    3    0    0 -0.60801410747E+02 -0.87284897855E+02 -0.48186655313E+03  0.49978503329E+03  0.79210097411E+02 0.  0.
          6    2    1    2  501    0  0.79421670528E+02  0.48867508037E+02  0.41743091614E+02  0.20001957221E+03  0.17195786833E+03 0.  0.
         24    2    5    5    0    0  0.10630262617E+03  0.78138874249E+02  0.34706010101E+02  0.15938696004E+03  0.82424291884E+02 0.  0.
          5    1    5    5  501    0 -0.26880955642E+02 -0.29271366212E+02  0.70370815125E+01  0.40632612177E+02  0.47000000000E+01 0. -1.
        -11    1    6    6    0    0  0.89329194849E+02  0.31944687080E+02  0.50792668295E+02  0.10761070224E+03  0.00000000000E+00 0.  1.
         12    1    6    6    0    0  0.16973431321E+02  0.46194187169E+02 -0.16086658193E+02  0.51776257791E+02  0.00000000000E+00 0. -1.
         -5    1    3    3    0  503 -0.18620259781E+02  0.38417389818E+02 -0.47041339937E+03  0.47237005221E+03  0.47000000000E+01 0.  1.
         11    1    4    4    0    0 -0.44767087282E+02 -0.85003771148E+02 -0.46997125885E+03  0.47969023063E+03  0.00000000000E+00 0. -1.
        -12    1    4    4    0    0 -0.16034323465E+02 -0.22811267076E+01 -0.11895294280E+02  0.20094802663E+02  0.00000000000E+00 0.  1.
</event>
<event>
12    1  0.8356052E-002  0.2107605E+03  0.7818608E-02  0.1141035E+00
         21   -1    0    0  503  502  0.00000000000E+00  0.00000000000E+00  0.56348559949E+02  0.56348559949E+02  0.00000000000E+00 0.  1.
         21   -1    0    0  501  503 -0.00000000000E+00 -0.00000000000E+00 -0.78775204169E+03  0.78775204169E+03  0.00000000000E+00 0.  1.
          6    2    1    2  501    0 -0.51492123167E+02 -0.10871962508E+03 -0.35215090961E+03  0.41021984456E+03  0.17262288987E+03 0.  0.
         24    2    3    3    0    0 -0.49694075626E+01  0.11501119218E+02 -0.13351820564E+03  0.15637000770E+03  0.80420751782E+02 0.  0.
         -6    2    1    2    0  502  0.51492123167E+02  0.10871962508E+03 -0.37925257213E+03  0.43388075707E+03  0.17305664467E+03 0.  0.
        -24    2    5    5    0    0  0.89134915768E+02  0.88421190722E+02 -0.19841772237E+03  0.24799816198E+03  0.79813254640E+02 0.  0.
          5    1    3    3  501    0 -0.46522715604E+02 -0.12022074430E+03 -0.21863270398E+03  0.25384983686E+03  0.47000000000E+01 0. -1.
        -11    1    4    4    0    0 -0.30834570729E+02 -0.13086030417E+02 -0.24061938862E+02  0.41243082401E+02  0.00000000000E+00 0.  1.
         12    1    4    4    0    0  0.25865163167E+02  0.24587149636E+02 -0.10945626677E+03  0.11512692530E+03  0.00000000000E+00 0. -1.
         -5    1    5    5    0  502 -0.37642792601E+02  0.20298434362E+02 -0.18083484976E+03  0.18588259509E+03  0.47000000000E+01 0.  1.
         13    1    6    6    0    0  0.15960562541E+02  0.27451305551E+02 -0.46578171614E+01  0.32093753189E+02  0.00000000000E+00 0. -1.
        -14    1    6    6    0    0  0.73174353227E+02  0.60969885172E+02 -0.19375990521E+03  0.21590440879E+03  0.00000000000E+00 0.  1.
</event>
<event>
12    1  0.8356052E-002  0.1763116E+03  0.7818608E-02  0.1173018E+00
         21   -1    0    0  503  502  0.00000000000E+00  0.00000000000E+00  0.62320263244E+03  0.62320263244E+03  0.00000000000E+00 0.  1.
         21   -1    0    0  501  503 -0.00000000000E+00 -0.00000000000E+00 -0.31322117696E+03  0.31322117696E+03  0.00000000000E+00 0.  1.
          6    2    1    2  501    0  0.12174818935E+02  0.27518631882E+02 -0.27618361051E+03  0.32431656724E+03  0.16732706820E+03 0.  0.
         24    2    3    3    0    0 -0.18459933381E+02  0.71502004760E+02 -0.13420002770E+03  0.17247963850E+03  0.79286016665E+02 0.  0.
         -6    2    1    2    0  502 -0.12174818935E+02 -0.27518631882E+02  0.58616506599E+03  0.61210724217E+03  0.17372475359E+03 0.  0.
        -24    2    5    5    0    0 -0.52073893869E+02 -0.19045266769E+02  0.18393341779E+03  0.20778543604E+03  0.79176212595E+02 0.  0.
          5    1    3    3  501    0  0.30634752317E+02 -0.43983372878E+02 -0.14198358281E+03  0.15183692873E+03  0.47000000000E+01 0. -1.
        -13    1    4    4    0    0  0.29629734641E+02  0.40314761971E+02 -0.74294116851E+02  0.89570179225E+02  0.00000000000E+00 0.  1.
         14    1    4    4    0    0 -0.48089668022E+02  0.31187242789E+02 -0.59905910848E+02  0.82909459278E+02  0.00000000000E+00 0. -1.
         -5    1    5    5    0  502  0.39899074934E+02 -0.84733651131E+01  0.40223164820E+03  0.40432180612E+03  0.47000000000E+01 0.  1.
         11    1    6    6    0    0 -0.41952876431E+02 -0.25773281469E+02  0.40267597240E+02  0.63606487610E+02  0.00000000000E+00 0. -1.
        -12    1    6    6    0    0 -0.10121017438E+02  0.67280146997E+01  0.14366582055E+03  0.14417894843E+03  0.00000000000E+00 0.  1.
</event>
<event>
12    1  0.8356052E-002  0.2761166E+03  0.7818608E-02  0.1097869E+00
         21   -1    0    0  503  502  0.00000000000E+00  0.00000000000E+00  0.14948643825E+04  0.14948643825E+04  0.00000000000E+00 0.  1.
         21   -1    0    0  501  503 -0.00000000000E+00 -0.00000000000E+00 -0.60145109149E+02  0.60145109149E+02  0.00000000000E+00 0. -1.
          6    2    1    2  501    0  0.15271765382E+01  0.21571231953E+03  0.41364172419E+03  0.49733273893E+03  0.17235498295E+03 0.  0.
         24    2    3    3    0    0 -0.59890987687E+01  0.14531467613E+03  0.14755976108E+03  0.22195295811E+03  0.79605327208E+02 0.  0.
         -6    2    1    2    0  502 -0.15271765382E+01 -0.21571231953E+03  0.10210775492E+04  0.10576767528E+04  0.17189128772E+03 0.  0.
        -24    2    5    5    0    0  0.59230032561E+01 -0.44849690966E+02  0.22562003100E+03  0.24402799791E+03  0.81232312707E+02 0.  0.
          5    1    3    3  501    0  0.75162753069E+01  0.70397643403E+02  0.26608196311E+03  0.27537978082E+03  0.47000000000E+01 0. -1.
        -11    1    4    4    0    0  0.58021944951E+01  0.88634580451E+02  0.13674000018E+03  0.16305698992E+03  0.00000000000E+00 0.  1.
         12    1    4    4    0    0 -0.11791293264E+02  0.56680095675E+02  0.10819760902E+02  0.58895968186E+02  0.00000000000E+00 0. -1.
         -5    1    5    5    0  502 -0.74501797943E+01 -0.17086262856E+03  0.79545751820E+03  0.81364875486E+03  0.47000000000E+01 0.  1.
         13    1    6    6    0    0 -0.23623954682E+02 -0.44731918130E+01  0.16884865696E+02  0.29380254754E+02  0.00000000000E+00 0. -1.
        -14    1    6    6    0    0  0.29546957938E+02 -0.40376499153E+02  0.20873516530E+03  0.21464774316E+03  0.00000000000E+00 0.  1.
</event>
<event>
12    1  0.8356052E-002  0.2145151E+03  0.7818608E-02  0.1138272E+00
         21   -1    0    0  501  502  0.00000000000E+00  0.00000000000E+00  0.81009833251E+03  0.81009833251E+03  0.00000000000E+00 0.  1.
         21   -1    0    0  502  503 -0.00000000000E+00 -0.00000000000E+00 -0.62313721982E+02  0.62313721982E+02  0.00000000000E+00 0.  1.
         -6    2    1    2    0  503  0.16954001311E+02 -0.12712472302E+03  0.23954751554E+03  0.32075848650E+03  0.17045486528E+03 0.  0.
        -24    2    3    3    0    0 -0.20671366492E+02 -0.11841048404E+03  0.10343290364E+03  0.17919265787E+03  0.83446359757E+02 0.  0.
          6    2    1    2  501    0 -0.16954001311E+02  0.12712472302E+03  0.50823709499E+03  0.55165356800E+03  0.17195517146E+03 0.  0.
         24    2    5    5    0    0 -0.27213612791E+02  0.10577032257E+03  0.50984405296E+03  0.52744732170E+03  0.79572463662E+02 0.  0.
          5    1    5    5  501    0  0.10259611480E+02  0.21354400442E+02 -0.16069579625E+01  0.24206246298E+02  0.47000000000E+01 0. -1.
        -11    1    6    6    0    0  0.23126096574E+02  0.70166589176E+01  0.83111892306E+02  0.86554240149E+02  0.00000000000E+00 0.  1.
         12    1    6    6    0    0 -0.50339709366E+02  0.98753663657E+02  0.42673216065E+03  0.44089308155E+03  0.00000000000E+00 0. -1.
         -5    1    3    3    0  503  0.37625367803E+02 -0.87142389801E+01  0.13611461189E+03  0.14156582863E+03  0.47000000000E+01 0.  1.
         11    1    4    4    0    0 -0.47327500627E+02 -0.35393820580E+02  0.39797730888E+02  0.71249380591E+02  0.00000000000E+00 0. -1.
        -12    1    4    4    0    0  0.26656134135E+02 -0.83016663457E+02  0.63635172754E+02  0.10794327728E+03  0.00000000000E+00 0.  1.
</event>
<event>
12    1  0.8356052E-002  0.2299677E+03  0.7818608E-02  0.1126676E+00
         21   -1    0    0  503  502  0.00000000000E+00  0.00000000000E+00  0.46828422827E+03  0.46828422827E+03  0.00000000000E+00 0.  1.
         21   -1    0    0  501  503 -0.00000000000E+00 -0.00000000000E+00 -0.11418577817E+03  0.11418577817E+03  0.00000000000E+00 0.  1.
          6    2    1    2  501    0 -0.90917292989E+02  0.12310679687E+03  0.14613930183E+03  0.27247354108E+03  0.17165050962E+03 0.  0.
         24    2    3    3    0    0 -0.10404285941E+03  0.11798731448E+03  0.61278528005E+02  0.18632291411E+03  0.78836840089E+02 0.  0.
         -6    2    1    2    0  502  0.90917292989E+02 -0.12310679687E+03  0.20795914827E+03  0.30999646535E+03  0.17155046949E+03 0.  0.
        -24    2    5    5    0    0  0.47459786149E+01 -0.28787962757E+01  0.90086101528E+02  0.12079706605E+03  0.80284579446E+02 0.  0.
          5    1    3    3  501    0  0.13125566420E+02  0.51194823897E+01  0.84860773828E+02  0.86150626977E+02  0.47000000000E+01 0. -1.
        -11    1    4    4    0    0 -0.27103411079E+02  0.84997336860E+02  0.14374738232E+02  0.90364679298E+02  0.00000000000E+00 0.  1.
         12    1    4    4    0    0 -0.76939448330E+02  0.32989977618E+02  0.46903789773E+02  0.95958234809E+02  0.00000000000E+00 0. -1.
         -5    1    5    5    0  502  0.86171314374E+02 -0.12022800059E+03  0.11787304674E+03  0.18919939930E+03  0.47000000000E+01 0.  1.
         11    1    6    6    0    0 -0.22136560936E+01  0.26060669523E+02  0.87031102736E+02  0.90876133350E+02  0.00000000000E+00 0. -1.
        -12    1    6    6    0    0  0.69596347085E+01 -0.28939465799E+02  0.30549987923E+01  0.29920932700E+02  0.00000000000E+00 0.  1.
</event>
<event>
12    1  0.8356052E-002  0.1810577E+03  0.7818608E-02  0.1167205E+00
         21   -1    0    0  503  502  0.00000000000E+00  0.00000000000E+00  0.16666568344E+03  0.16666568344E+03  0.00000000000E+00 0.  1.
         21   -1    0    0  501  503 -0.00000000000E+00 -0.00000000000E+00 -0.19488003651E+03  0.19488003651E+03  0.00000000000E+00 0.  1.
          6    2    1    2  501    0  0.52694366771E+02  0.14574236189E+02 -0.17853678254E+02  0.18193580838E+03  0.17260585127E+03 0.  0.
         24    2    3    3    0    0 -0.24645902841E+02  0.48188339588E+02 -0.96390285610E+01  0.97077127499E+02  0.80009507014E+02 0.  0.
         -6    2    1    2    0  502 -0.52694366771E+02 -0.14574236189E+02 -0.10360674815E+02  0.17960991156E+03  0.17077257420E+03 0.  0.
        -24    2    5    5    0    0  0.22687894508E+02 -0.33269701440E+02  0.30725693439E+02  0.91620222436E+02  0.76345159183E+02 0.  0.
          5    1    3    3  501    0  0.77340269612E+02 -0.33614103399E+02 -0.82146496929E+01  0.84858680879E+02  0.47000000000E+01 0. -1.
        -11    1    4    4    0    0  0.73266140001E+01 -0.19029417543E+02  0.54978422749E+01  0.21119286787E+02  0.00000000000E+00 0.  1.
         12    1    4    4    0    0 -0.31972516841E+02  0.67217757131E+02 -0.15136870836E+02  0.75957840712E+02  0.00000000000E+00 0. -1.
         -5    1    5    5    0  502 -0.75382261279E+02  0.18695465251E+02 -0.41086368254E+02  0.87989689128E+02  0.47000000000E+01 0.  1.
         13    1    6    6    0    0  0.62424223866E+01 -0.16706989442E+02  0.55075061344E+02  0.57890877654E+02  0.00000000000E+00 0. -1.
        -14    1    6    6    0    0  0.16445472122E+02 -0.16562711998E+02 -0.24349367905E+02  0.33729344782E+02  0.00000000000E+00 0.  1.
</event>
<event>
12    1  0.8356052E-002  0.2368040E+03  0.7818608E-02  0.1122138E+00
         21   -1    0    0  501  502  0.00000000000E+00  0.00000000000E+00  0.14604585541E+04  0.14604585541E+04  0.00000000000E+00 0.  1.
         21   -1    0    0  502  503 -0.00000000000E+00 -0.00000000000E+00 -0.41282329993E+02  0.41282329993E+02  0.00000000000E+00 0.  1.
         -6    2    1    2    0  503 -0.14786714593E+03  0.64396791838E+02  0.50304279658E+03  0.55549746605E+03  0.17179563427E+03 0.  0.
        -24    2    3    3    0    0 -0.67906375596E+01  0.21655923961E+02  0.16802193230E+03  0.18945043014E+03  0.84528125160E+02 0.  0.
          6    2    1    2  501    0  0.14786714593E+03 -0.64396791838E+02  0.91613342755E+03  0.94624341806E+03  0.17339120368E+03 0.  0.
         24    2    5    5    0    0  0.16864789823E+03 -0.36323705009E+02  0.85402898554E+03  0.87483620843E+03  0.78812171129E+02 0.  0.
          5    1    5    5  501    0 -0.20780752299E+02 -0.28073086829E+02  0.62104442008E+02  0.71407209631E+02  0.47000000000E+01 0. -1.
        -11    1    6    6    0    0  0.66364307004E+02 -0.69014348560E+01  0.17084705295E+03  0.18341364875E+03  0.00000000000E+00 0.  1.
         12    1    6    6    0    0  0.10228359122E+03 -0.29422270153E+02  0.68318193259E+03  0.69142255968E+03  0.00000000000E+00 0. -1.
         -5    1    3    3    0  503 -0.14107650837E+03  0.42740867877E+02  0.33502086428E+03  0.36604703592E+03  0.47000000000E+01 0.  1.
         13    1    4    4    0    0  0.53389641705E+01 -0.30729096583E+02  0.84948975517E+02  0.90493703408E+02  0.00000000000E+00 0. -1.
        -14    1    4    4    0    0 -0.12129601730E+02  0.52385020544E+02  0.83072956788E+02  0.98956726729E+02  0.00000000000E+00 0.  1.
</event>
<event>
12    1  0.8356052E-002  0.2407608E+03  0.7818608E-02  0.1119394E+00
         21   -1    0    0  503  502  0.00000000000E+00  0.00000000000E+00  0.11978709001E+04  0.11978709001E+04  0.00000000000E+00 0.  1.
         21   -1    0    0  501  503 -0.00000000000E+00 -0.00000000000E+00 -0.48698474478E+02  0.48698474478E+02  0.00000000000E+00 0.  1.
          6    2    1    2  501    0 -0.33250909939E+01 -0.16905028504E+03  0.63436442761E+03  0.67851602762E+03  0.17139637574E+03 0.  0.
         24    2    3    3    0    0 -0.43624346338E+02 -0.37176156612E+02  0.12935209151E+03  0.15499490546E+03  0.63295394206E+02 0.  0.
         -6    2    1    2    0  502  0.33250909939E+01  0.16905028504E+03  0.51480799802E+03  0.56805334696E+03  0.17049420833E+03 0.  0.
        -24    2    5    5    0    0  0.60878864247E+02  0.12079547075E+03  0.40351559017E+03  0.43370657938E+03  0.83539114297E+02 0.  0.
          5    1    3    3  501    0  0.40299255344E+02 -0.13187412842E+03  0.50501233610E+03  0.52352112216E+03  0.47000000000E+01 0. -1.
        -13    1    4    4    0    0  0.12412985310E+02 -0.22319064299E+02  0.25697337360E+02  0.36229490514E+02  0.00000000000E+00 0.  1.
         14    1    4    4    0    0 -0.56037331648E+02 -0.14857092312E+02  0.10365475415E+03  0.11876541495E+03  0.00000000000E+00 0. -1.
         -5    1    5    5    0  502 -0.57553773254E+02  0.48254814281E+02  0.11129240785E+03  0.13434676759E+03  0.47000000000E+01 0.  1.
         13    1    6    6    0    0  0.14237192621E+02 -0.11642155907E+02  0.40402766791E+02  0.44391677286E+02  0.00000000000E+00 0. -1.
        -14    1    6    6    0    0  0.46641671626E+02  0.13243762666E+03  0.36311282338E+03  0.38931490209E+03  0.00000000000E+00 0.  1.
</event>
<event>
12    1  0.8356052E-002  0.2749085E+03  0.7818608E-02  0.1098522E+00
         21   -1    0    0  501  502  0.00000000000E+00  0.00000000000E+00  0.16029193487E+04  0.16029193487E+04  0.00000000000E+00 0. -1.
         21   -1    0    0  502  503 -0.00000000000E+00 -0.00000000000E+00 -0.50231573659E+02  0.50231573659E+02  0.00000000000E+00 0. -1.
         -6    2    1    2    0  503  0.79409598381E+02 -0.19950828925E+03  0.57095611497E+03  0.63369199822E+03  0.17165436668E+03 0.  0.
        -24    2    3    3    0    0  0.82944558303E+02 -0.19019821628E+03  0.57894820042E+03  0.62008549866E+03  0.79182356980E+02 0.  0.
          6    2    1    2  501    0 -0.79409598381E+02  0.19950828925E+03  0.98173166009E+03  0.10194589242E+04  0.17143513004E+03 0.  0.
         24    2    5    5    0    0 -0.61590170148E+02  0.22229783314E+03  0.87147699234E+03  0.90537528337E+03  0.83800834624E+02 0.  0.
          5    1    5    5  501    0 -0.17819428233E+02 -0.22789543884E+02  0.11025466776E+03  0.11408364079E+03  0.47000000000E+01 0. -1.
        -11    1    6    6    0    0 -0.27213314413E+02  0.32048121628E+02  0.27908391545E+03  0.28223302153E+03  0.00000000000E+00 0.  1.
         12    1    6    6    0    0 -0.34376855735E+02  0.19024971151E+03  0.59239307689E+03  0.62314226183E+03  0.00000000000E+00 0. -1.
         -5    1    3    3    0  503 -0.35349599218E+01 -0.93100729724E+01 -0.79920854522E+01  0.13606499560E+02  0.47000000000E+01 0.  1.
         11    1    4    4    0    0  0.64909472179E+02 -0.75851137498E+02  0.34358295920E+03  0.35779307496E+03  0.00000000000E+00 0. -1.
        -12    1    4    4    0    0  0.18035086124E+02 -0.11434707878E+03  0.23536524122E+03  0.26229242371E+03  0.00000000000E+00 0.  1.
</event>
<event>
12    1  0.8356052E-002  0.1843526E+03  0.7818608E-02  0.1163786E+00
         21   -1    0    0  503  502  0.00000000000E+00  0.00000000000E+00  0.43902152651E+03  0.43902152651E+03  0.00000000000E+00 0.  1.
         21   -1    0    0  501  503 -0.00000000000E+00 -0.00000000000E+00 -0.14799889086E+03  0.14799889086E+03  0.00000000000E+00 0.  1.
          6    2    1    2  501    0  0.62309047124E+02 -0.17879894705E+02 -0.57407577773E+02  0.19308420184E+03  0.17257975265E+03 0.  0.
         24    2    3    3    0    0  0.79566325534E+02  0.19288144896E+02 -0.84682009119E+02  0.14363461710E+03  0.82201142738E+02 0.  0.
         -6    2    1    2    0  502 -0.62309047124E+02  0.17879894705E+02  0.34843021342E+03  0.39393621553E+03  0.17198843071E+03 0.  0.
        -24    2    5    5    0    0 -0.33779900548E+02  0.27274215913E+02  0.35213152308E+03  0.36331016178E+03  0.78183755128E+02 0.  0.
          5    1    3    3  501    0 -0.17257278410E+02 -0.37168039601E+02  0.27274431346E+02  0.49449584742E+02  0.47000000000E+01 0. -1.
        -13    1    4    4    0    0  0.81465820109E+02  0.41210577455E+02 -0.54647014844E+02  0.10640154027E+03  0.00000000000E+00 0.  1.
         14    1    4    4    0    0 -0.18994945752E+01 -0.21922432559E+02 -0.30034994275E+02  0.37233076827E+02  0.00000000000E+00 0. -1.
         -5    1    5    5    0  502 -0.28529146575E+02 -0.93943212084E+01 -0.37013096687E+01  0.30626053754E+02  0.47000000000E+01 0.  1.
         13    1    6    6    0    0  0.16660297061E+02  0.18325081818E+02  0.40322785662E+02  0.47321254900E+02  0.00000000000E+00 0. -1.
        -14    1    6    6    0    0 -0.50440197610E+02  0.89491340953E+01  0.31180873742E+03  0.31598890688E+03  0.00000000000E+00 0.  1.
</event>
<event>
12    1  0.8356052E-002  0.1784881E+03  0.7818608E-02  0.1170051E+00
         21   -1    0    0  501  502  0.00000000000E+00  0.00000000000E+00  0.16402578258E+02  0.16402578258E+02  0.00000000000E+00 0.  1.
         21   -1    0    0  502  503 -0.00000000000E+00 -0.00000000000E+00 -0.19284445916E+04  0.19284445916E+04  0.00000000000E+00 0.  1.
         -6    2    1    2    0  503 -0.45734529280E+02  0.14017814727E+02 -0.84794588534E+03  0.86588537073E+03  0.16869233676E+03 0.  0.
        -24    2    3    3    0    0 -0.22659226629E+02 -0.52713224033E+02 -0.39105928034E+03  0.40355111831E+03  0.81449492415E+02 0.  0.
          6    2    1    2  501    0  0.45734529280E+02 -0.14017814727E+02 -0.10640961280E+04  0.10789617991E+04  0.17195885569E+03 0.  0.
         24    2    5    5    0    0  0.87946448256E+01  0.32641047738E+02 -0.90223871450E+03  0.90644653368E+03  0.80422861713E+02 0.  0.
          5    1    5    5  501    0  0.36939884454E+02 -0.46658862465E+02 -0.16185741350E+03  0.17251526545E+03  0.47000000000E+01 0. -1.
        -11    1    6    6    0    0  0.11292782885E+02  0.42336565706E+01 -0.17527848160E+02  0.21276189846E+02  0.00000000000E+00 0.  1.
         12    1    6    6    0    0 -0.24981380595E+01  0.28407391167E+02 -0.88471086634E+03  0.88517034383E+03  0.00000000000E+00 0. -1.
         -5    1    3    3    0  503 -0.23075302650E+02  0.66731038760E+02 -0.45688660500E+03  0.46233425241E+03  0.47000000000E+01 0.  1.
         13    1    4    4    0    0  0.29403813369E+02 -0.74425956143E+01 -0.13445694445E+03  0.13783557734E+03  0.00000000000E+00 0. -1.
        -14    1    4    4    0    0 -0.52063039999E+02 -0.45270628419E+02 -0.25660233589E+03  0.26571554097E+03  0.00000000000E+00 0.  1.
</event>
<event>
12    1  0.8356052E-002  0.2091173E+03  0.7818608E-02  0.1142675E+00
         21   -1    0    0  501  502  0.00000000000E+00  0.00000000000E+00  0.22424973868E+03  0.22424973868E+03  0.00000000000E+00 0. -1.
         21   -1    0    0  502  503 -0.00000000000E+00 -0.00000000000E+00 -0.19768723656E+03  0.19768723656E+03  0.00000000000E+00 0.  1.
         -6    2    1    2    0  503  0.15150366927E+02  0.11459209759E+03 -0.18768588478E+02  0.20995790476E+03  0.17426755123E+03 0.  0.
        -24    2    3    3    0    0  0.36456516694E+02  0.11899407695E+02 -0.47504663218E+02  0.10111125774E+03  0.80598510542E+02 0.  0.
          6    2    1    2  501    0 -0.15150366927E+02 -0.11459209759E+03  0.45331090593E+02  0.21197907048E+03  0.17181192071E+03 0.  0.
         24    2    5    5    0    0  0.46786749589E+02 -0.93888081707E+02  0.56048427654E+02  0.14563290262E+03  0.84044894305E+02 0.  0.
          5    1    5    5  501    0 -0.61937116516E+02 -0.20704015887E+02 -0.10717337061E+02  0.66346167861E+02  0.47000000000E+01 0. -1.
        -11    1    6    6    0    0  0.26543960134E+02 -0.10475760004E+02  0.52466349726E+02  0.59724711977E+02  0.00000000000E+00 0.  1.
         12    1    6    6    0    0  0.20242789455E+02 -0.83412321703E+02  0.35820779284E+01  0.85908190640E+02  0.00000000000E+00 0. -1.
         -5    1    3    3    0  503 -0.21306149767E+02  0.10269268990E+03  0.28736074740E+02  0.10884664702E+03  0.47000000000E+01 0.  1.
         13    1    4    4    0    0 -0.10693424230E+02 -0.25289638694E+02 -0.59793516977E+01  0.28101028340E+02  0.00000000000E+00 0. -1.
        -14    1    4    4    0    0  0.47149940923E+02  0.37189046389E+02 -0.41525311521E+02  0.73010229402E+02  0.00000000000E+00 0.  1.
</event>
<event>
12    1  0.8356052E-002  0.2431632E+03  0.7818608E-02  0.1117927E+00
         21   -1    0    0  501  502  0.00000000000E+00  0.00000000000E+00  0.61601127102E+02  0.61601127102E+02  0.00000000000E+00 0. -1.
         21   -1    0    0  502  503 -0.00000000000E+00 -0.00000000000E+00 -0.98791350952E+03  0.98791350952E+03  0.00000000000E+00 0. -1.
         -6    2    1    2    0  503 -0.62523078251E+02 -0.15854930395E+03 -0.56092390362E+03  0.61136237813E+03  0.17343965705E+03 0.  0.
        -24    2    3    3    0    0 -0.30017024301E+02 -0.11874690579E+03 -0.53544444124E+03  0.55381094508E+03  0.70738701206E+02 0.  0.
          6    2    1    2  501    0  0.62523078251E+02  0.15854930395E+03 -0.36538847880E+03  0.43815225850E+03  0.17152738583E+03 0.  0.
         24    2    5    5    0    0  0.86062764251E+02  0.48472786416E+02 -0.20707121593E+03  0.24383961801E+03  0.82600607937E+02 0.  0.
          5    1    5    5  501    0 -0.23539686000E+02  0.11007651754E+03 -0.15831726287E+03  0.19431264049E+03  0.47000000000E+01 0. -1.
        -13    1    6    6    0    0  0.77209005500E+02  0.11582113734E+02 -0.18287222789E+03  0.19884070917E+03  0.00000000000E+00 0.  1.
         14    1    6    6    0    0  0.88537587503E+01  0.36890672682E+02 -0.24198988041E+02  0.44998908844E+02  0.00000000000E+00 0. -1.
         -5    1    3    3    0  503 -0.32506053950E+02 -0.39802398161E+02 -0.25479462375E+02  0.57551433047E+02  0.47000000000E+01 0.  1.
         13    1    4    4    0    0 -0.37592163560E+02 -0.88631393808E+02 -0.27185813559E+03  0.28840170009E+03  0.00000000000E+00 0. -1.
        -14    1    4    4    0    0  0.75751392595E+01 -0.30115511985E+02 -0.26358630565E+03  0.26540924499E+03  0.00000000000E+00 0.  1.
</event>
<event>
12    1  0.8356052E-002  0.2545489E+03  0.7818608E-02  0.1110545E+00
         21   -1    0    0  501  502  0.00000000000E+00  0.00000000000E+00  0.19668879709E+03  0.19668879709E+03  0.00000000000E+00 0.  1.
         21   -1    0    0  502  503 -0.00000000000E+00 -0.00000000000E+00 -0.47379606695E+03  0.47379606695E+03  0.00000000000E+00 0. -1.
         -6    2    1    2    0  503 -0.17188456002E+03 -0.74849156515E+02 -0.32394645290E+03  0.41166242967E+03  0.17139998090E+03 0.  0.
        -24    2    3    3    0    0 -0.14489291458E+03 -0.11742986818E+03 -0.24098510631E+03  0.31447014110E+03  0.77678295205E+02 0.  0.
          6    2    1    2  501    0  0.17188456002E+03  0.74849156515E+02  0.46839183040E+02  0.25882243436E+03  0.17218723896E+03 0.  0.
         24    2    5    5    0    0  0.12481263109E+03  0.84291045304E+02 -0.25317125325E+02  0.17202647482E+03  0.79176877972E+02 0.  0.
          5    1    5    5  501    0  0.47071928927E+02 -0.94418887895E+01  0.72156308364E+02  0.86795959546E+02  0.47000000000E+01 0. -1.
        -13    1    6    6    0    0  0.41024867725E+02 -0.11551183283E+02 -0.24894675819E+01  0.42692704950E+02  0.00000000000E+00 0.  1.
         14    1    6    6    0    0  0.83787763364E+02  0.95842228587E+02 -0.22827657743E+02  0.12933376987E+03  0.00000000000E+00 0. -1.
         -5    1    3    3    0  503 -0.26991645433E+02  0.42580711663E+02 -0.82961346595E+02  0.97192288571E+02  0.47000000000E+01 0.  1.
         13    1    4    4    0    0 -0.12660437145E+03 -0.96869261095E+02 -0.23846005596E+03  0.28683709471E+03  0.00000000000E+00 0. -1.
        -14    1    4    4    0    0 -0.18288543131E+02 -0.20560607082E+02 -0.25250503490E+01  0.27633046388E+02  0.00000000000E+00 0.  1.
</event>
<event>
12    1  0.8356052E-002  0.2254442E+03  0.7818608E-02  0.1130416E+00
         21   -1    0    0  501  502  0.00000000000E+00  0.00000000000E+00  0.70535197590E+02  0.70535197590E+02  0.00000000000E+00 0.  1.
         21   -1    0    0  502  503 -0.00000000000E+00 -0.00000000000E+00 -0.99056973259E+03  0.99056973259E+03  0.00000000000E+00 0. -1.
         -6    2    1    2    0  503 -0.30124754616E+02  0.14227477472E+03 -0.73957007267E+03  0.77232730441E+03  0.16845165594E+03 0.  0.
        -24    2    3    3    0    0  0.10746000255E+02  0.15393058716E+03 -0.52254191482E+03  0.55112697017E+03  0.82950481146E+02 0.  0.
          6    2    1    2  501    0  0.30124754616E+02 -0.14227477472E+03 -0.18046446232E+03  0.28877762576E+03  0.17226573257E+03 0.  0.
         24    2    5    5    0    0 -0.10981579102E+02 -0.15730367462E+03 -0.16578913143E+03  0.24237661456E+03  0.79970907561E+02 0.  0.
          5    1    5    5  501    0  0.41106333718E+02  0.15028899902E+02 -0.14675330893E+02  0.46401011205E+02  0.47000000000E+01 0. -1.
        -13    1    6    6    0    0 -0.19434298668E+01 -0.58621479951E+02 -0.12698302739E+02  0.60012513060E+02  0.00000000000E+00 0.  1.
         14    1    6    6    0    0 -0.90381492355E+01 -0.98682194669E+02 -0.15309082869E+03  0.18236410150E+03  0.00000000000E+00 0. -1.
         -5    1    3    3    0  503 -0.40870754871E+02 -0.11655812443E+02 -0.21702815786E+03  0.22120033424E+03  0.47000000000E+01 0.  1.
         11    1    4    4    0    0  0.28274026564E+02  0.59659815980E+02 -0.32381306089E+03  0.33047482903E+03  0.00000000000E+00 0. -1.
        -12    1    4    4    0    0 -0.17528026309E+02  0.94270771181E+02 -0.19872885393E+03  0.22065214114E+03  0.00000000000E+00 0.  1.
</event>
<event>
12    1  0.8356052E-002  0.2521024E+03  0.7818608E-02  0.1112019E+00
         21   -1    0    0  503  502  0.00000000000E+00  0.00000000000E+00  0.35486306544E+03  0.35486306544E+03  0.00000000000E+00 0. -1.
         21   -1    0    0  501  503 -0.00000000000E+00 -0.00000000000E+00 -0.18574840885E+03  0.18574840885E+03  0.00000000000E+00 0.  1.
          6    2    1    2  501    0 -0.91680761910E+02 -0.15907163704E+03  0.13635433017E+03  0.28661495636E+03  0.17276134417E+03 0.  0.
         24    2    3    3    0    0  0.12758904094E+02 -0.10712206224E+03  0.70889493453E+02  0.15277125273E+03  0.81705627252E+02 0.  0.
         -6    2    1    2    0  502  0.91680761910E+02  0.15907163704E+03  0.32760326419E+02  0.25399651793E+03  0.17242924438E+03 0.  0.
        -24    2    5    5    0    0 -0.17168745978E+02  0.93409498285E+02  0.25945197673E+02  0.12660629925E+03  0.79598376366E+02 0.  0.
          5    1    3    3  501    0 -0.10443966600E+03 -0.51949574801E+02  0.65464836714E+02  0.13384370364E+03  0.47000000000E+01 0. -1.
        -11    1    4    4    0    0  0.16752856650E+02 -0.23199455534E+02 -0.15264181349E+02  0.32432517251E+02  0.00000000000E+00 0.  1.
         12    1    4    4    0    0 -0.39939525556E+01 -0.83922606708E+02  0.86153674802E+02  0.12033873547E+03  0.00000000000E+00 0. -1.
         -5    1    5    5    0  502  0.10884950789E+03  0.65662138757E+02  0.68151287459E+01  0.12739021867E+03  0.47000000000E+01 0.  1.
         11    1    6    6    0    0 -0.27953368746E+02  0.67504330600E+01  0.26750126408E+02  0.39275035755E+02  0.00000000000E+00 0. -1.
        -12    1    6    6    0    0  0.10784622768E+02  0.86659065225E+02 -0.80492873541E+00  0.87331263498E+02  0.00000000000E+00 0.  1.
</event>
<event>
12    1  0.8356052E-002  0.2107708E+03  0.7818608E-02  0.1142443E+00
         21   -1    0    0  503  502  0.00000000000E+00  0.00000000000E+00  0.48955746895E+03  0.48955746895E+03  0.00000000000E+00 0. -1.
         21   -1    0    0  501  503 -0.00000000000E+00 -0.00000000000E+00 -0.14874187399E+03  0.14874187399E+03  0.00000000000E+00 0. -1.
          6    2    1    2  501    0 -0.90432783495E+02  0.58204877969E+02 -0.36005536067E+02  0.20653728176E+03  0.17261330765E+03 0.  0.
         24    2    3    3    0    0  0.47556159220E+01  0.49279815944E+02  0.20243556310E+02  0.95512336321E+02  0.79130832645E+02 0.  0.
         -6    2    1    2    0  502  0.90432783495E+02 -0.58204877969E+02  0.37682113103E+03  0.43176206118E+03  0.18126890668E+03 0.  0.
        -24    2    5    5    0    0  0.61143194764E+02 -0.41439994309E+02  0.82094910209E+02  0.13507270078E+03  0.77777225586E+02 0.  0.
          5    1    3    3  501    0 -0.95188399417E+02  0.89250620249E+01 -0.56249092377E+02  0.11102494544E+03  0.47000000000E+01 0. -1.
        -13    1    4    4    0    0  0.13935020151E+02  0.67005668583E+02  0.19979690513E+01  0.68468505820E+02  0.00000000000E+00 0.  1.
         14    1    4    4    0    0 -0.91794042288E+01 -0.17725852639E+02  0.18245587259E+02  0.27043830502E+02  0.00000000000E+00 0. -1.
         -5    1    5    5    0  502  0.29289588731E+02 -0.16764883660E+02  0.29472622082E+03  0.29668936040E+03  0.47000000000E+01 0.  1.
         11    1    6    6    0    0 -0.10883790780E+02 -0.31707335551E+02  0.35013936916E+02  0.48474609930E+02  0.00000000000E+00 0. -1.
        -12    1    6    6    0    0  0.72026985543E+02 -0.97326587576E+01  0.47080973293E+02  0.86598090852E+02  0.00000000000E+00 0.  1.
</event>
<event>
12    1  0.8356052E-002  0.1800865E+03  0.7818608E-02  0.1168492E+00
         21   -1    0    0  503  502  0.00000000000E+00  0.00000000000E+00  0.43085481572E+03  0.43085481572E+03  0.00000000000E+00 0. -1.
         21   -1    0    0  501  503 -0.00000000000E+00 -0.00000000000E+00 -0.12390996310E+03  0.12390996310E+03  0.00000000000E+00 0. -1.
          6    2    1    2  501    0  0.37419789728E+02 -0.23466503518E+02 -0.23460417930E+02  0.17846865264E+03  0.17131769119E+03 0.  0.
         24    2    3    3    0    0 -0.26144208358E+02  0.31603541653E+02  0.55479473636E+01  0.89380679354E+02  0.79220089915E+02 0.  0.
         -6    2    1    2    0  502 -0.37419789728E+02  0.23466503518E+02  0.33040527056E+03  0.37629612618E+03  0.17458583653E+03 0.  0.
        -24    2    5    5    0    0 -0.37307814112E+01  0.58885340081E+02  0.99805544417E+02  0.14052554498E+03  0.79403275049E+02 0.  0.
          5    1    3    3  501    0  0.63563998086E+02 -0.55070045170E+02 -0.29008365294E+02  0.89087973289E+02  0.47000000000E+01 0. -1.
        -13    1    4    4    0    0 -0.15876174893E+02  0.18048950579E+02  0.42430742038E+02  0.48766642453E+02  0.00000000000E+00 0.  1.
         14    1    4    4    0    0 -0.10268033465E+02  0.13554591073E+02 -0.36882794674E+02  0.40614036901E+02  0.00000000000E+00 0. -1.
         -5    1    5    5    0  502 -0.33689008316E+02 -0.35418836564E+02  0.23059972614E+03  0.23577058120E+03  0.47000000000E+01 0.  1.
         13    1    6    6    0    0  0.24775402879E+02 -0.69934757008E+01  0.37434652517E+02  0.45432174714E+02  0.00000000000E+00 0. -1.
        -14    1    6    6    0    0 -0.28506184290E+02  0.65878815782E+02  0.62370891900E+02  0.95093370264E+02  0.00000000000E+00 0.  1.
</event>
<event>
12    1  0.8356052E-002  0.2351629E+03  0.7818608E-02  0.1123090E+00
         21   -1    0    0  503  502  0.00000000000E+00  0.00000000000E+00  0.65024963389E+02  0.65024963389E+02  0.00000000000E+00 0.  1.
         21   -1    0    0  501  503 -0.00000000000E+00 -0.00000000000E+00 -0.14150240351E+04  0.14150240351E+04  0.00000000000E+00 0. -1.
          6    2    1    2  501    0  0.96065058807E+02  0.12881277058E+03 -0.11428821772E+04  0.11668252949E+04  0.17169849305E+03 0.  0.
         24    2    3    3    0    0  0.91614381628E+02  0.24953330055E+02 -0.48042535673E+03  0.49624515735E+03  0.80217636491E+02 0.  0.
         -6    2    1    2    0  502 -0.96065058807E+02 -0.12881277058E+03 -0.20711689455E+03  0.31322370361E+03  0.17143644625E+03 0.  0.
        -24    2    5    5    0    0 -0.82564492640E+00 -0.58238205937E+02 -0.37350366602E+02  0.10611484541E+03  0.80454584774E+02 0.  0.
          5    1    3    3  501    0  0.44506771786E+01  0.10385944053E+03 -0.66245682048E+03  0.67058013757E+03  0.47000000000E+01 0. -1.
        -11    1    4    4    0    0 -0.15014284594E+02  0.42031414656E+01 -0.54611066864E+02  0.56793166526E+02  0.00000000000E+00 0.  1.
         12    1    4    4    0    0  0.10662866622E+03  0.20750188589E+02 -0.42581428986E+03  0.43945199082E+03  0.00000000000E+00 0. -1.
         -5    1    5    5    0  502 -0.95239413880E+02 -0.70574564647E+02 -0.16976652795E+03  0.20710885819E+03  0.47000000000E+01 0.  1.
         11    1    6    6    0    0  0.32669471973E+02 -0.43376299264E+02 -0.42702476927E+02  0.69081830264E+02  0.00000000000E+00 0. -1.
        -12    1    6    6    0    0 -0.33495116899E+02 -0.14861906672E+02  0.53521103255E+01  0.37033015148E+02  0.00000000000E+00 0.  1.
</event>
<event>
12    1  0.8356052E-002  0.2237749E+03  0.7818608E-02  0.1131580E+00
         21   -1    0    0  503  502  0.00000000000E+00  0.00000000000E+00  0.11941915690E+04  0.11941915690E+04  0.00000000000E+00 0. -1.
         21   -1    0    0  501  503 -0.00000000000E+00 -0.00000000000E+00 -0.29225229878E+03  0.29225229878E+03  0.00000000000E+00 0. -1.
          6    2    1    2  501    0  0.96035085087E+02 -0.10516553249E+03 -0.23791600572E+03  0.32483065924E+03  0.16919930440E+03 0.  0.
         24    2    3    3    0    0  0.11244058072E+03 -0.10512092748E+03 -0.24954063237E+03  0.30418207040E+03  0.81011796425E+02 0.  0.
         -6    2    1    2    0  502 -0.96035085087E+02  0.10516553249E+03  0.11398552759E+04  0.11616132085E+04  0.17260553108E+03 0.  0.
        -24    2    5    5    0    0 -0.11603937711E+03  0.44795658687E+02  0.95002852985E+03  0.96136092542E+03  0.78669138232E+02 0.  0.
          5    1    3    3  501    0 -0.16405495630E+02 -0.44605015532E-01  0.11624626647E+02  0.20648588841E+02  0.47000000000E+01 0. -1.
        -13    1    4    4    0    0 -0.64198981253E+01 -0.19488563115E+02 -0.87003048961E+01  0.22287092442E+02  0.00000000000E+00 0.  1.
         14    1    4    4    0    0  0.11886047884E+03 -0.85632364362E+02 -0.24084032748E+03  0.28189497795E+03  0.00000000000E+00 0. -1.
         -5    1    5    5    0  502  0.20004292021E+02  0.60369873806E+02  0.18982674606E+03  0.20025228309E+03  0.47000000000E+01 0.  1.
         13    1    6    6    0    0 -0.26591734390E+01  0.32785115482E+02  0.23786596063E+03  0.24012944473E+03  0.00000000000E+00 0. -1.
        -14    1    6    6    0    0 -0.11338020367E+03  0.12010543206E+02  0.71216256922E+03  0.72123148069E+03  0.00000000000E+00 0.  1.
</event>
<event>
12    1  0.8356052E-002  0.2086940E+03  0.7818608E-02  0.1142855E+00
         21   -1    0    0  503  502  0.00000000000E+00  0.00000000000E+00  0.68175991118E+03  0.68175991118E+03  0.00000000000E+00 0.  1.
         21   -1    0    0  501  503 -0.00000000000E+00 -0.00000000000E+00 -0.63656896483E+02  0.63656896483E+02  0.00000000000E+00 0. -1.
          6    2    1    2  501    0 -0.29056342415E+02 -0.11302608735E+03  0.29156874320E+03  0.35856031428E+03  0.17301444884E+03 0.  0.
         24    2    3    3    0    0  0.42016699468E+02 -0.10125734995E+03  0.20578297395E+03  0.24643909119E+03  0.79794356580E+02 0.  0.
         -6    2    1    2    0  502  0.29056342415E+02  0.11302608735E+03  0.32653427150E+03  0.38685649339E+03  0.17150553506E+03 0.  0.
        -24    2    5    5    0    0  0.65352941707E+02  0.12890920359E+03  0.28286512965E+03  0.32770583446E+03  0.80559559382E+02 0.  0.
          5    1    3    3  501    0 -0.71073041883E+02 -0.11768737393E+02  0.85785769245E+02  0.11212122309E+03  0.47000000000E+01 0. -1.
        -11    1    4    4    0    0 -0.12891853908E+02 -0.30681021536E+02  0.11207844583E+03  0.11691493916E+03  0.00000000000E+00 0.  1.
         12    1    4    4    0    0  0.54908553376E+02 -0.70576328417E+02  0.93704528122E+02  0.12952415202E+03  0.00000000000E+00 0. -1.
         -5    1    5    5    0  502 -0.36296599292E+02 -0.15883116241E+02  0.43669141855E+02  0.59150658932E+02  0.47000000000E+01 0.  1.
         13    1    6    6    0    0  0.81074518231E+01  0.26383995420E+02  0.78888286915E+01  0.28706786785E+02  0.00000000000E+00 0. -1.
        -14    1    6    6    0    0  0.57245489884E+02  0.10252520817E+03  0.27497630096E+03  0.29899904767E+03  0.00000000000E+00 0.  1.
</event>
<event>
12    1  0.8356052E-002  0.2787267E+03  0.7818608E-02  0.1096653E+00
         21   -1    0    0  501  502  0.00000000000E+00  0.00000000000E+00  0.30901107143E+03  0.30901107143E+03  0.00000000000E+00 0. -1.
         21   -1    0    0  502  503 -0.00000000000E+00 -0.00000000000E+00 -0.33659053489E+03  0.33659053489E+03  0.00000000000E+00 0.  1.
         -6    2    1    2    0  503  0.85808930913E+02  0.20185290957E+03 -0.17779170241E+03  0.32897521860E+03  0.16884026558E+03 0.  0.
        -24    2    3    3    0    0  0.26818922118E+02  0.66636827205E+01 -0.69595634721E+02  0.98091840074E+02  0.63362429451E+02 0.  0.
          6    2    1    2  501    0 -0.85808930913E+02 -0.20185290957E+03  0.15021223895E+03  0.31662638772E+03  0.17199064783E+03 0.  0.
         24    2    5    5    0    0 -0.48532425225E+02 -0.48767818281E+02  0.11598700050E+02  0.10672072744E+03  0.80753250234E+02 0.  0.
          5    1    5    5  501    0 -0.37276505688E+02 -0.15308509129E+03  0.13861353890E+03  0.20990566028E+03  0.47000000000E+01 0. -1.
        -13    1    6    6    0    0 -0.83973112572E+01 -0.32317866101E+02 -0.31262091266E+02  0.45741421665E+02  0.00000000000E+00 0.  1.
         14    1    6    6    0    0 -0.40135113967E+02 -0.16449952180E+02  0.42860791316E+02  0.60979305770E+02  0.00000000000E+00 0. -1.
         -5    1    3    3    0  503  0.58990008795E+02  0.19518922685E+03 -0.10819606769E+03  0.23088337853E+03  0.47000000000E+01 0.  1.
         13    1    4    4    0    0  0.10976082590E+02 -0.28066020149E+01  0.10771413754E+02  0.15632490465E+02  0.00000000000E+00 0. -1.
        -14    1    4    4    0    0  0.15842839529E+02  0.94702847354E+01 -0.80367048475E+02  0.82459349609E+02  0.00000000000E+00 0.  1.
</event>
<event>
12    1  0.8356052E-002  0.2330645E+03  0.7818608E-02  0.1126551E+00
         21   -1    0    0  503  502  0.00000000000E+00  0.00000000000E+00  0.15593123724E+03  0.15593123724E+03  0.00000000000E+00 0.  1.
         21   -1    0    0  501  503 -0.00000000000E+00 -0.00000000000E+00 -0.39225972775E+03  0.39225972775E+03  0.00000000000E+00 0. -1.
          6    2    1    2  501    0  0.75795268143E+02  0.11806835559E+03 -0.22362988795E+03  0.31478078644E+03  0.17143966128E+03 0.  0.
         24    2    3    3    0    0  0.11380012066E+03  0.10404176925E+03 -0.14573084775E+03  0.22685204026E+03  0.80306979621E+02 0.  0.
         -6    2    1    2    0  502 -0.75795268143E+02 -0.11806835559E+03 -0.12698602558E+02  0.23341017855E+03  0.18610211627E+03 0.  0.
        -24    2    5    5    0    0  0.48286175419E+02 -0.61495431670E+02 -0.15854015048E+02  0.96923010711E+02  0.55040688217E+02 0.  0.
          5    1    3    3  501    0 -0.38004852514E+02  0.14026586331E+02 -0.77899040207E+02  0.87928746175E+02  0.47000000000E+01 0. -1.
        -13    1    4    4    0    0  0.12820279951E+02 -0.84344430902E+01 -0.38724446830E+02  0.41654317790E+02  0.00000000000E+00 0.  1.
         14    1    4    4    0    0  0.10097984071E+03  0.11247621234E+03 -0.10700640092E+03  0.18519772247E+03  0.00000000000E+00 0. -1.
         -5    1    5    5    0  502 -0.12408144356E+03 -0.56572923916E+02  0.31554124894E+01  0.13648716784E+03  0.47000000000E+01 0.  1.
         13    1    6    6    0    0  0.40136347012E+02 -0.72978307757E+01 -0.58825101460E+01  0.41216363390E+02  0.00000000000E+00 0. -1.
        -14    1    6    6    0    0  0.81498284068E+01 -0.54197600894E+02 -0.99715049016E+01  0.55706647321E+02  0.00000000000E+00 0.  1.
</event>
<event>
12    1  0.8356052E-002  0.1798561E+03  0.7818608E-02  0.1167967E+00
         21   -1    0    0  501  502  0.00000000000E+00  0.00000000000E+00  0.34052849790E+02  0.34052849790E+02  0.00000000000E+00 0.  1.
         21   -1    0    0  502  503 -0.00000000000E+00 -0.00000000000E+00 -0.28600105490E+04  0.28600105490E+04  0.00000000000E+00 0.  1.
         -6    2    1    2    0  503 -0.36589471993E+02 -0.35690852859E+02 -0.25958301613E+04  0.26020535068E+04  0.17244013319E+03 0.  0.
        -24    2    3    3    0    0  0.10838829447E+02 -0.15940084756E+02 -0.62230443431E+03  0.62785356209E+03  0.81029130224E+02 0.  0.
          6    2    1    2  501    0  0.36589471993E+02  0.35690852859E+02 -0.23012753788E+03  0.29200989195E+03  0.17233243128E+03 0.  0.
         24    2    5    5    0    0 -0.31230074965E+02  0.32134651488E+02 -0.62121527549E+02  0.11073593623E+03  0.79971307219E+02 0.  0.
          5    1    5    5  501    0  0.67819546959E+02  0.35562013707E+01 -0.16800601033E+03  0.18127395573E+03  0.47000000000E+01 0. -1.
        -13    1    6    6    0    0 -0.51161296216E+02  0.34697572988E+02 -0.65825946931E+02  0.90302021523E+02  0.00000000000E+00 0.  1.
         14    1    6    6    0    0  0.19931221251E+02 -0.25629214999E+01  0.37044193814E+01  0.20433914704E+02  0.00000000000E+00 0. -1.
         -5    1    3    3    0  503 -0.47428301440E+02 -0.19750768103E+02 -0.19735257270E+04  0.19741999447E+04  0.47000000000E+01 0.  1.
         11    1    4    4    0    0  0.64401544854E+00 -0.29542590008E+02 -0.59470852949E+03  0.59544220074E+03  0.00000000000E+00 0. -1.
        -12    1    4    4    0    0  0.10194813998E+02  0.13602505252E+02 -0.27595904824E+02  0.32411361351E+02  0.00000000000E+00 0.  1.
</event>
<event>
12    1  0.8356052E-002  0.1983331E+03  0.7818608E-02  0.1151370E+00
         21   -1    0    0  503  502  0.00000000000E+00  0.00000000000E+00  0.47177236230E+03  0.47177236230E+03  0.00000000000E+00 0. -1.
         21   -1    0    0  501  503 -0.00000000000E+00 -0.00000000000E+00 -0.15305806890E+03  0.15305806890E+03  0.00000000000E+00 0.  1.
          6    2    1    2  501    0 -0.85824612933E+02  0.41045106864E+02 -0.52300405534E+02  0.20413110703E+03  0.17286876946E+03 0.  0.
         24    2    3    3    0    0 -0.10581100460E+02  0.79939147269E+02 -0.28491740053E+02  0.11602165748E+03  0.78402925964E+02 0.  0.
         -6    2    1    2    0  502  0.85824612933E+02 -0.41045106864E+02  0.37101469893E+03  0.42069932418E+03  0.17402715178E+03 0.  0.
        -24    2    5    5    0    0  0.73476811980E+02 -0.20222946920E+02  0.37941195482E+03  0.39464871114E+03  0.77371598563E+02 0.  0.
          5    1    3    3  501    0 -0.75243512473E+02 -0.38894040405E+02 -0.23808665481E+02  0.88109449552E+02  0.47000000000E+01 0. -1.
        -11    1    4    4    0    0 -0.32616074262E+02  0.12878809262E+02 -0.28887163448E+02  0.45432810174E+02  0.00000000000E+00 0.  1.
         12    1    4    4    0    0  0.22034973802E+02  0.67060338007E+02  0.39542339513E+00  0.70588847305E+02  0.00000000000E+00 0. -1.
         -5    1    5    5    0  502  0.12347800953E+02 -0.20822159944E+02 -0.83972558867E+01  0.26050613036E+02  0.47000000000E+01 0.  1.
         11    1    6    6    0    0  0.38527874263E+02  0.28628347022E+02  0.18818507462E+03  0.19421019968E+03  0.00000000000E+00 0. -1.
        -12    1    6    6    0    0  0.34948937717E+02 -0.48851293942E+02  0.19122688020E+03  0.20043851146E+03  0.00000000000E+00 0.  1.
</event>
<event>
12    1  0.8356052E-002  0.1789152E+03  0.7818608E-02  0.1169202E+00
         21   -1    0    0  501  502  0.00000000000E+00  0.00000000000E+00  0.28328749106E+03  0.28328749106E+03  0.00000000000E+00 0. -1.
         21   -1    0    0  502  503 -0.00000000000E+00 -0.00000000000E+00 -0.11430978785E+03  0.11430978785E+03  0.00000000000E+00 0.  1.
         -6    2    1    2    0  503  0.10688999074E+02 -0.44340165298E+02  0.56584327330E+02  0.18630852968E+03  0.17154817740E+03 0.  0.
        -24    2    3    3    0    0 -0.33623476920E+02 -0.70814345924E+02  0.73878211763E+02  0.13166746264E+03  0.75717374193E+02 0.  0.
          6    2    1    2  501    0 -0.10688999074E+02  0.44340165298E+02  0.11239337588E+03  0.21128874923E+03  0.17300392958E+03 0.  0.
         24    2    5    5    0    0  0.38761162661E+02 -0.23902502091E+02  0.36724323344E+02  0.97929692870E+02  0.78535288141E+02 0.  0.
          5    1    5    5  501    0 -0.49450161735E+02  0.68242667390E+02  0.75669052532E+02  0.11335905636E+03  0.47000000000E+01 0. -1.
        -13    1    6    6    0    0  0.56799116146E+02  0.44043244578E+01  0.19589657922E+02  0.60243608510E+02  0.00000000000E+00 0.  1.
         14    1    6    6    0    0 -0.18037953485E+02 -0.28306826549E+02  0.17134665423E+02  0.37686084359E+02  0.00000000000E+00 0. -1.
         -5    1    3    3    0  503  0.44312475994E+02  0.26474180625E+02 -0.17293884433E+02  0.54641067040E+02  0.47000000000E+01 0.  1.
         13    1    4    4    0    0 -0.95095041586E+01 -0.67045716564E+00  0.54057640089E+02  0.54891790226E+02  0.00000000000E+00 0. -1.
        -14    1    4    4    0    0 -0.24113972761E+02 -0.70143888758E+02  0.19820571674E+02  0.76775672409E+02  0.00000000000E+00 0.  1.
</event>
<event>
12    1  0.8356052E-002  0.1750006E+03  0.7818608E-02  0.1173709E+00
         21   -1    0    0  501  502  0.00000000000E+00  0.00000000000E+00  0.68272338441E+02  0.68272338441E+02  0.00000000000E+00 0. -1.
         21   -1    0    0  502  503 -0.00000000000E+00 -0.00000000000E+00 -0.57712271690E+03  0.57712271690E+03  0.00000000000E+00 0. -1.
         -6    2    1    2    0  503  0.31585027318E+02 -0.49036727103E+01 -0.41027127010E+03  0.44453923449E+03  0.16813969184E+03 0.  0.
        -24    2    3    3    0    0 -0.24181403401E+02 -0.17028604472E+02 -0.11011897526E+03  0.13897353146E+03  0.79452753851E+02 0.  0.
          6    2    1    2  501    0 -0.31585027318E+02  0.49036727103E+01 -0.98579108360E+02  0.20085582086E+03  0.17205685168E+03 0.  0.
         24    2    5    5    0    0  0.64649912972E+01 -0.59041646564E+02 -0.44056685080E+02  0.10848920127E+03  0.79380118105E+02 0.  0.
          5    1    5    5  501    0 -0.38050018615E+02  0.63945319274E+02 -0.54522423280E+02  0.92366619587E+02  0.47000000000E+01 0. -1.
        -13    1    6    6    0    0 -0.25248401399E+02  0.64901147228E+01 -0.15198217306E+02  0.30175970102E+02  0.00000000000E+00 0.  1.
         14    1    6    6    0    0  0.31713392696E+02 -0.65531761286E+02 -0.28858467774E+02  0.78313231168E+02  0.00000000000E+00 0. -1.
         -5    1    3    3    0  503  0.55766430719E+02  0.12124931762E+02 -0.30015229485E+03  0.30556570303E+03  0.47000000000E+01 0.  1.
         13    1    4    4    0    0 -0.39522576742E+02  0.17645059958E+02 -0.78337975785E+02  0.89499836108E+02  0.00000000000E+00 0. -1.
        -14    1    4    4    0    0  0.15341173341E+02 -0.34673664430E+02 -0.31780999471E+02  0.49473695353E+02  0.00000000000E+00 0.  1.
</event>
<event>
12    1  0.8356052E-002  0.2061548E+03  0.7818608E-02  0.1145246E+00
         21   -1    0    0  501  502  0.00000000000E+00  0.00000000000E+00  0.54188375274E+03  0.54188375274E+03  0.00000000000E+00 0.  1.
         21   -1    0    0  502  503 -0.00000000000E+00 -0.00000000000E+00 -0.83154808965E+02  0.83154808965E+02  0.00000000000E+00 0. -1.
         -6    2    1    2    0  503  0.58588141210E+02  0.92219990528E+02  0.14505439540E+03  0.24968335667E+03  0.17135899168E+03 0.  0.
        -24    2    3    3    0    0  0.84420223622E+02  0.49569206938E+02  0.15274411243E+03  0.19901179097E+03  0.81798830248E+02 0.  0.
          6    2    1    2  501    0 -0.58588141210E+02 -0.92219990528E+02  0.31367454837E+03  0.37535520503E+03  0.17482194000E+03 0.  0.
         24    2    5    5    0    0 -0.70095447171E+02 -0.12796288979E+02  0.25141271127E+03  0.27367350158E+03  0.81312467382E+02 0.  0.
          5    1    5    5  501    0  0.11507305962E+02 -0.79423701549E+02  0.62261837106E+02  0.10168170346E+03  0.47000000000E+01 0. -1.
        -13    1    6    6    0    0  0.26319107297E+01 -0.30686771925E+02  0.10186913773E+03  0.10642333459E+03  0.00000000000E+00 0.  1.
         14    1    6    6    0    0 -0.72727357901E+02  0.17890482946E+02  0.14954357354E+03  0.16725016698E+03  0.00000000000E+00 0. -1.
         -5    1    3    3    0  503 -0.25832082412E+02  0.42650783590E+02 -0.76897170319E+01  0.50671565701E+02  0.47000000000E+01 0.  1.
         13    1    4    4    0    0  0.42284174352E+02  0.38838441441E+02  0.22438313467E+02  0.61642954548E+02  0.00000000000E+00 0. -1.
        -14    1    4    4    0    0  0.42136049270E+02  0.10730765497E+02  0.13030579897E+03  0.13736883642E+03  0.00000000000E+00 0.  1.
</event>
<event>
12    1  0.8356052E-002  0.1800815E+03  0.7818608E-02  0.1168335E+00
         21   -1    0    0  503  502  0.00000000000E+00  0.00000000000E+00  0.15276141472E+03  0.15276141472E+03  0.00000000000E+00 0.  1.
         21   -1    0    0  501  503 -0.00000000000E+00 -0.00000000000E+00 -0.27084169173E+03  0.27084169173E+03  0.00000000000E+00 0.  1.
          6    2    1    2  501    0  0.34847237981E+02 -0.25226687596E+02  0.41563863529E+02  0.18481585521E+03  0.17486746359E+03 0.  0.
         24    2    3    3    0    0  0.75524753305E+02 -0.22408344120E+02  0.72938008991E+02  0.13315319639E+03  0.78763559496E+02 0.  0.
         -6    2    1    2    0  502 -0.34847237981E+02  0.25226687596E+02 -0.15964414053E+03  0.23878725125E+03  0.17228576258E+03 0.  0.
        -24    2    5    5    0    0 -0.10485700496E+02  0.79192370549E+02 -0.12695918108E+03  0.17099214803E+03  0.82087146131E+02 0.  0.
          5    1    3    3  501    0 -0.40677515324E+02 -0.28183434761E+01 -0.31374145462E+02  0.51662658820E+02  0.47000000000E+01 0. -1.
        -13    1    4    4    0    0  0.60519774451E+02  0.22079116790E+02  0.43663267572E+02  0.77824234226E+02  0.00000000000E+00 0.  1.
         14    1    4    4    0    0  0.15004978854E+02 -0.44487460910E+02  0.29274741419E+02  0.55328962161E+02  0.00000000000E+00 0. -1.
         -5    1    5    5    0  502 -0.24361537485E+02 -0.53965682953E+02 -0.32684959452E+02  0.67795103212E+02  0.47000000000E+01 0.  1.
         11    1    6    6    0    0 -0.42608443037E+02  0.52396729682E+02 -0.52319939852E+02  0.85429929214E+02  0.00000000000E+00 0. -1.
        -12    1    6    6    0    0  0.32122742541E+02  0.26795640867E+02 -0.74639241231E+02  0.85562218819E+02  0.00000000000E+00 0.  1.
</event>
<event>
12    1  0.8356052E-002  0.2691267E+03  0.7818608E-02  0.1102134E+00
         21   -1    0    0  501  502  0.00000000000E+00  0.00000000000E+00  0.29803387493E+02  0.29803387493E+02  0.00000000000E+00 0. -1.
         21   -1    0    0  502  503 -0.00000000000E+00 -0.00000000000E+00 -0.24340112115E+04  0.24340112115E+04  0.00000000000E+00 0.  1.
         -6    2    1    2    0  503  0.15594105558E+03 -0.13223801345E+03 -0.13235808462E+04  0.13501791822E+04  0.17121057964E+03 0.  0.
        -24    2    3    3    0    0  0.15121980297E+03 -0.54847407534E+02 -0.10749257999E+04  0.10896738690E+04  0.77768880275E+02 0.  0.
          6    2    1    2  501    0 -0.15594105558E+03  0.13223801345E+03 -0.10806269778E+04  0.11136354168E+04  0.17499906106E+03 0.  0.
         24    2    5    5    0    0 -0.18605683382E+02  0.94788510660E+01 -0.40038659352E+03  0.40888022042E+03  0.80234595477E+02 0.  0.
          5    1    5    5  501    0 -0.13733537220E+03  0.12275916239E+03 -0.68024038428E+03  0.70475519638E+03  0.47000000000E+01 0. -1.
        -13    1    6    6    0    0  0.10989523965E+02  0.21385392014E+02 -0.33759310930E+03  0.33844824135E+03  0.00000000000E+00 0.  1.
         14    1    6    6    0    0 -0.29595207347E+02 -0.11906540948E+02 -0.62793484224E+02  0.70431979074E+02  0.00000000000E+00 0. -1.
         -5    1    3    3    0  503  0.47212526099E+01 -0.77390605919E+02 -0.24865504638E+03  0.26050531319E+03  0.47000000000E+01 0.  1.
         11    1    4    4    0    0  0.28051046544E+02  0.12742787091E+02 -0.98896676660E+02  0.10358471166E+03  0.00000000000E+00 0. -1.
        -12    1    4    4    0    0  0.12316875643E+03 -0.67590194625E+02 -0.97602912320E+03  0.98608915738E+03  0.00000000000E+00 0.  1.
</event>
<event>
12    1  0.8356052E-002  0.2138532E+03  0.7818608E-02  0.1140530E+00
         21   -1    0    0  503  502  0.00000000000E+00  0.00000000000E+00  0.58964612868E+02  0.58964612868E+02  0.00000000000E+00 0. -1.
         21   -1    0    0  501  503 -0.00000000000E+00 -0.00000000000E+00 -0.74517683860E+03  0.74517683860E+03  0.00000000000E+00 0. -1.
          6    2    1    2  501    0 -0.63213373128E+02  0.87568375680E+02 -0.30094578909E+03  0.36350168877E+03  0.17291893710E+03 0.  0.
         24    2    3    3    0    0 -0.40029621096E+02  0.16427355457E+02 -0.58375555872E+02  0.10961009939E+03  0.82063632579E+02 0.  0.
         -6    2    1    2    0  502  0.63213373128E+02 -0.87568375680E+02 -0.38526643664E+03  0.44063976269E+03  0.18457795725E+03 0.  0.
        -24    2    5    5    0    0  0.61758435199E+02 -0.12823452175E+03 -0.34861619744E+03  0.38567447988E+03  0.83386776105E+02 0.  0.
          5    1    3    3  501    0 -0.23183752032E+02  0.71141020223E+02 -0.24257023322E+03  0.25389158938E+03  0.47000000000E+01 0. -1.
        -13    1    4    4    0    0  0.37671855927E+01 -0.16375647293E+02  0.11865726770E+02  0.20570585391E+02  0.00000000000E+00 0.  1.
         14    1    4    4    0    0 -0.43796806689E+02  0.32803002750E+02 -0.70241282642E+02  0.89039513997E+02  0.00000000000E+00 0. -1.
         -5    1    5    5    0  502  0.14549379292E+01  0.40666146074E+02 -0.36650239202E+02  0.54965282810E+02  0.47000000000E+01 0.  1.
         13    1    6    6    0    0  0.29372484332E+02 -0.12819916832E+03 -0.26101176979E+03  0.29227540705E+03  0.00000000000E+00 0. -1.
        -14    1    6    6    0    0  0.32385950867E+02 -0.35353430930E-01 -0.87604427646E+02  0.93399072836E+02  0.00000000000E+00 0.  1.
</event>
<event>
12    1  0.8356052E-002  0.2055369E+03  0.7818608E-02  0.1145197E+00
         21   -1    0    0  503  502  0.00000000000E+00  0.00000000000E+00  0.51498808315E+03  0.51498808315E+03  0.00000000000E+00 0.  1.
         21   -1    0    0  501  503 -0.00000000000E+00 -0.00000000000E+00 -0.11557852187E+03  0.11557852187E+03  0.00000000000E+00 0.  1.
          6    2    1    2  501    0 -0.97686807274E+02 -0.53859445297E+02  0.29531559387E+02  0.20741752600E+03  0.17235534494E+03 0.  0.
         24    2    3    3    0    0 -0.11729581293E+03 -0.42448109939E+02  0.67274100474E+02  0.16313072114E+03  0.80781667584E+02 0.  0.
         -6    2    1    2    0  502  0.97686807274E+02  0.53859445297E+02  0.36987800189E+03  0.42314907902E+03  0.17263213672E+03 0.  0.
        -24    2    5    5    0    0  0.13149365981E+02  0.75151042273E+02  0.26661836004E+03  0.28792868589E+03  0.77440256118E+02 0.  0.
          5    1    3    3  501    0  0.19609005653E+02 -0.11411335358E+02 -0.37742541088E+02  0.44286804864E+02  0.47000000000E+01 0. -1.
        -13    1    4    4    0    0 -0.27466355223E+02  0.15371277855E+01 -0.17001665547E+02  0.32339141337E+02  0.00000000000E+00 0.  1.
         14    1    4    4    0    0 -0.89829457704E+02 -0.43985237725E+02  0.84275766021E+02  0.13079157980E+03  0.00000000000E+00 0. -1.
         -5    1    5    5    0  502  0.84537441292E+02 -0.21291596976E+02  0.10325964185E+03  0.13522039312E+03  0.47000000000E+01 0.  1.
         11    1    6    6    0    0  0.27880751807E+02  0.73143655732E+02  0.13964331345E+03  0.16008618206E+03  0.00000000000E+00 0. -1.
        -12    1    6    6    0    0 -0.14731385826E+02  0.20073865419E+01  0.12697504660E+03  0.12784250384E+03  0.00000000000E+00 0.  1.
</event>
<event>
12    1  0.8356052E-002  0.2152048E+03  0.7818608E-02  0.1137816E+00
         21   -1    0    0  501  502  0.00000000000E+00  0.00000000000E+00  0.76390998593E+02  0.76390998593E+02  0.00000000000E+00 0. -1.
         21   -1    0    0  502  503 -0.00000000000E+00 -0.00000000000E+00 -0.60791370651E+03  0.60791370651E+03  0.00000000000E+00 0.  1.
         -6    2    1    2    0  503  0.86554200020E+02 -0.91058152454E+02 -0.23043263142E+03  0.31421239381E+03  0.17276288412E+03 0.  0.
        -24    2    3    3    0    0  0.16607228819E+02 -0.11295611248E+03 -0.17537309067E+03  0.22242055070E+03  0.75367745410E+02 0.  0.
          6    2    1    2  501    0 -0.86554200020E+02  0.91058152454E+02 -0.30109007650E+03  0.37009231130E+03  0.17472798301E+03 0.  0.
         24    2    5    5    0    0 -0.23624902062E+02  0.38939002619E+01 -0.49971999485E+02  0.96888940151E+02  0.79479352881E+02 0.  0.
          5    1    5    5  501    0 -0.62929297959E+02  0.87164252192E+02 -0.25111807702E+03  0.27320337115E+03  0.47000000000E+01 0. -1.
        -13    1    6    6    0    0  0.15487337983E+02 -0.27898499308E+02 -0.13366954009E+02  0.34595655232E+02  0.00000000000E+00 0.  1.
         14    1    6    6    0    0 -0.39112240044E+02  0.31792399570E+02 -0.36605045476E+02  0.62293284919E+02  0.00000000000E+00 0. -1.
         -5    1    3    3    0  503  0.69946971201E+02  0.21897960023E+02 -0.55059540749E+02  0.91791843107E+02  0.47000000000E+01 0.  1.
         11    1    4    4    0    0  0.22730889588E+02 -0.12227085076E+03 -0.16812477319E+03  0.20912387154E+03  0.00000000000E+00 0. -1.
        -12    1    4    4    0    0 -0.61236607684E+01  0.93147382812E+01 -0.72483174731E+01  0.13296679159E+02  0.00000000000E+00 0.  1.
</event>
<event>
12    1  0.8356052E-002  0.1951719E+03  0.7818608E-02  0.1154372E+00
         21   -1    0    0  503  502  0.00000000000E+00  0.00000000000E+00  0.99170625272E+03  0.99170625272E+03  0.00000000000E+00 0. -1.
         21   -1    0    0  501  503 -0.00000000000E+00 -0.00000000000E+00 -0.47092223733E+02  0.47092223733E+02  0.00000000000E+00 0. -1.
          6    2    1    2  501    0 -0.79455738184E-01 -0.87482977227E+02  0.24146782070E+03  0.30906792886E+03  0.17193893857E+03 0.  0.
         24    2    3    3    0    0 -0.61399511867E+02 -0.29238137668E+02  0.16387116048E+03  0.19419433617E+03  0.78948807552E+02 0.  0.
         -6    2    1    2    0  502  0.79455738184E-01  0.87482977227E+02  0.70314620828E+03  0.72973054759E+03  0.17446720106E+03 0.  0.
        -24    2    5    5    0    0 -0.68193800259E+02  0.61694805551E+02  0.38077214522E+03  0.39916528351E+03  0.76738866004E+02 0.  0.
          5    1    3    3  501    0  0.61320056129E+02 -0.58244839559E+02  0.77596660226E+02  0.11487359269E+03  0.47000000000E+01 0. -1.
        -11    1    4    4    0    0 -0.34090556188E+02 -0.46759720213E+02  0.52295201664E+02  0.77996317687E+02  0.00000000000E+00 0.  1.
         12    1    4    4    0    0 -0.27308955679E+02  0.17521582545E+02  0.11157595881E+03  0.11619801848E+03  0.00000000000E+00 0. -1.
         -5    1    5    5    0  502  0.68273255997E+02  0.25788171676E+02  0.32237406306E+03  0.33056526408E+03  0.47000000000E+01 0.  1.
         13    1    6    6    0    0  0.63408172094E+01  0.42036370728E+02  0.12512033898E+03  0.13214522940E+03  0.00000000000E+00 0. -1.
        -14    1    6    6    0    0 -0.74534617469E+02  0.19658434823E+02  0.25565180624E+03  0.26702005411E+03  0.00000000000E+00 0.  1.
</event>
<event>
12    1  0.8356052E-002  0.1747197E+03  0.7818608E-02  0.1173607E+00
         21   -1    0    0  503  502  0.00000000000E+00  0.00000000000E+00  0.26858299009E+04  0.26858299009E+04  0.00000000000E+00 0.  1.
         21   -1    0    0  501  503 -0.00000000000E+00 -0.00000000000E+00 -0.20077469473E+02  0.20077469473E+02  0.00000000000E+00 0.  1.
          6    2    1    2  501    0 -0.15972007343E+01 -0.27769842258E+02  0.43897467317E+03  0.47246769799E+03  0.17249129477E+03 0.  0.
         24    2    3    3    0    0 -0.50346698099E+00  0.49915361659E+02  0.27982796216E+03  0.29530688747E+03  0.80066675770E+02 0.  0.
         -6    2    1    2    0  502  0.15972007343E+01  0.27769842258E+02  0.22267777582E+04  0.22334396724E+04  0.17011722521E+03 0.  0.
        -24    2    5    5    0    0 -0.65236365851E+02 -0.20306852374E+02  0.11366245229E+04  0.11401719739E+04  0.58383834345E+02 0.  0.
          5    1    3    3  501    0 -0.10937337533E+01 -0.77685203918E+02  0.15914671101E+03  0.17716081052E+03  0.47000000000E+01 0. -1.
        -13    1    4    4    0    0  0.31953039816E+02  0.48863545442E+02  0.13862358002E+03  0.15041655416E+03  0.00000000000E+00 0.  1.
         14    1    4    4    0    0 -0.32456506797E+02  0.10518162172E+01  0.14120438214E+03  0.14489033331E+03  0.00000000000E+00 0. -1.
         -5    1    5    5    0  502  0.66833566585E+02  0.48076694632E+02  0.10901532353E+04  0.10932676985E+04  0.47000000000E+01 0.  1.
         13    1    6    6    0    0 -0.27769423990E+02 -0.38684787086E+02  0.54424213497E+03  0.54632147599E+03  0.00000000000E+00 0. -1.
        -14    1    6    6    0    0 -0.37466941861E+02  0.18377934712E+02  0.59238238798E+03  0.59385049786E+03  0.00000000000E+00 0.  1.
</event>
<event>
12    1  0.8356052E-002  0.1929741E+03  0.7818608E-02  0.1156204E+00
         21   -1    0    0  503  502  0.00000000000E+00  0.00000000000E+00  0.23199335798E+03  0.23199335798E+03  0.00000000000E+00 0. -1.
         21   -1    0    0  501  503 -0.00000000000E+00 -0.00000000000E+00 -0.24353983159E+03  0.24353983159E+03  0.00000000000E+00 0.  1.
          6    2    1    2  501    0  0.16774924031E+02 -0.86507281576E+02 -0.14585246170E+03  0.24189243763E+03  0.17168023461E+03 0.  0.
         24    2    3    3    0    0  0.25558527423E+02  0.18161476762E+02 -0.79350430678E+02  0.11748459707E+03  0.80765476157E+02 0.  0.
         -6    2    1    2    0  502 -0.16774924031E+02  0.86507281576E+02  0.13430598809E+03  0.23364075194E+03  0.16966141191E+03 0.  0.
        -24    2    5    5    0    0  0.37483976252E+02  0.54264276782E+02  0.23057731984E+02  0.10564893930E+03  0.79248843274E+02 0.  0.
          5    1    3    3  501    0 -0.87836033919E+01 -0.10466875834E+03 -0.66502031026E+02  0.12440784055E+03  0.47000000000E+01 0. -1.
        -11    1    4    4    0    0  0.15202615109E+02  0.20947206584E+02 -0.95028203043E+02  0.98489920009E+02  0.00000000000E+00 0.  1.
         12    1    4    4    0    0  0.10355912314E+02 -0.27857298222E+01  0.15677772365E+02  0.18994677066E+02  0.00000000000E+00 0. -1.
         -5    1    5    5    0  502 -0.54258900283E+02  0.32243004793E+02  0.11124825610E+03  0.12799181264E+03  0.47000000000E+01 0.  1.
         13    1    6    6    0    0  0.54176304048E+02  0.13028744713E+02  0.39352737878E+00  0.55722302293E+02  0.00000000000E+00 0. -1.
        -14    1    6    6    0    0 -0.16692327796E+02  0.41235532069E+02  0.22664204605E+02  0.49926637005E+02  0.00000000000E+00 0.  1.
</event>
<event>
12    1  0.8356052E-002  0.2004653E+03  0.7818608E-02  0.1149389E+00
         21   -1    0    0  501  502  0.00000000000E+00  0.00000000000E+00  0.13499312341E+04  0.13499312341E+04  0.00000000000E+00 0. -1.
         21   -1    0    0  502  503 -0.00000000000E+00 -0.00000000000E+00 -0.35262377172E+02  0.35262377172E+02  0.00000000000E+00 0. -1.
         -6    2    1    2    0  503 -0.20562220655E+02 -0.99864753375E+02  0.38351092735E+03  0.43274355722E+03  0.17259948157E+03 0.  0.
        -24    2    3    3    0    0  0.39826952413E+02 -0.80791555343E+02  0.15405464120E+03  0.19466181421E+03  0.77761995093E+02 0.  0.
          6    2    1    2  501    0  0.20562220655E+02  0.99864753375E+02  0.93115792956E+03  0.95245005403E+03  0.17236659117E+03 0.  0.
         24    2    5    5    0    0 -0.22247944113E+02  0.98605503897E+02  0.42170374291E+03  0.44117717756E+03  0.81149484284E+02 0.  0.
          5    1    5    5  501    0  0.42810164767E+02  0.12592494776E+01  0.50945418665E+03  0.51127287646E+03  0.47000000000E+01 0. -1.
        -13    1    6    6    0    0 -0.31147890918E+01  0.21947128334E+02  0.14753404560E+02  0.26627829414E+02  0.00000000000E+00 0.  1.
         14    1    6    6    0    0 -0.19133155021E+02  0.76658375563E+02  0.40695033835E+03  0.41454934815E+03  0.00000000000E+00 0. -1.
         -5    1    3    3    0  503 -0.60389173067E+02 -0.19073198031E+02  0.22945628615E+03  0.23808174302E+03  0.47000000000E+01 0.  1.
         13    1    4    4    0    0  0.27728912953E+02  0.60435628209E+01  0.20941715683E+02  0.35269997460E+02  0.00000000000E+00 0. -1.
        -14    1    4    4    0    0  0.12098039460E+02 -0.86835118164E+02  0.13311292552E+03  0.15939181675E+03  0.00000000000E+00 0.  1.
</event>
<event>
12    1  0.8356052E-002  0.2064606E+03  0.7818608E-02  0.1145777E+00
         21   -1    0    0  503  502  0.00000000000E+00  0.00000000000E+00  0.13881955476E+03  0.13881955476E+03  0.00000000000E+00 0.  1.
         21   -1    0    0  501  503 -0.00000000000E+00 -0.00000000000E+00 -0.30529447079E+03  0.30529447079E+03  0.00000000000E+00 0. -1.
          6    2    1    2  501    0 -0.46013408342E+02  0.10546042341E+03 -0.48420789864E+02  0.21206259673E+03  0.17142589474E+03 0.  0.
         24    2    3    3    0    0 -0.78951127741E+02  0.56923624302E+02 -0.77165120041E+02  0.14657182834E+03  0.77815586723E+02 0.  0.
         -6    2    1    2    0  502  0.46013408342E+02 -0.10546042341E+03 -0.11805412616E+03  0.23205142881E+03  0.16331550526E+03 0.  0.
        -24    2    5    5    0    0 -0.51851832419E+01 -0.12145549672E+03 -0.89371935715E+02  0.17104408336E+03  0.80563091748E+02 0.  0.
          5    1    3    3  501    0  0.32937719400E+02  0.48536799110E+02  0.28744330177E+02  0.65490768391E+02  0.47000000000E+01 0. -1.
        -13    1    4    4    0    0  0.44833278716E+01 -0.70031745973E+00  0.11192182574E+02  0.12077070180E+02  0.00000000000E+00 0.  1.
         14    1    4    4    0    0 -0.83434455613E+02  0.57623941762E+02 -0.88357302615E+02  0.13449475816E+03  0.00000000000E+00 0. -1.
         -5    1    5    5    0  502  0.51198591583E+02  0.15995073304E+02 -0.28682190447E+02  0.61007345451E+02  0.47000000000E+01 0.  1.
         13    1    6    6    0    0  0.22495747470E+02 -0.72332517622E+02 -0.85933577558E+02  0.11455405498E+03  0.00000000000E+00 0. -1.
        -14    1    6    6    0    0 -0.27680930712E+02 -0.49122979095E+02 -0.34383581568E+01  0.56490028386E+02  0.00000000000E+00 0.  1.
</event>
<event>
12    1  0.8356052E-002  0.2309152E+03  0.7818608E-02  0.1126060E+00
         21   -1    0    0  501  502  0.00000000000E+00  0.00000000000E+00  0.97804131722E+02  0.97804131722E+02  0.00000000000E+00 0. -1.
         21   -1    0    0  502  503 -0.00000000000E+00 -0.00000000000E+00 -0.54831358198E+03  0.54831358198E+03  0.00000000000E+00 0.  1.
         -6    2    1    2    0  503  0.64993596009E+02 -0.13958320985E+03 -0.25290174127E+03  0.34246331998E+03  0.17208775320E+03 0.  0.
        -24    2    3    3    0    0 -0.88591711010E+01 -0.11645265188E+03 -0.12126286897E+03  0.18968852945E+03  0.87391931959E+02 0.  0.
          6    2    1    2  501    0 -0.64993596009E+02  0.13958320985E+03 -0.19760770898E+03  0.30365439371E+03  0.17160869495E+03 0.  0.
         24    2    5    5    0    0 -0.88308277109E+02  0.15942565665E+03 -0.16278114998E+03  0.25704670914E+03  0.79752216805E+02 0.  0.
          5    1    5    5  501    0  0.23314681101E+02 -0.19842446803E+02 -0.34826558999E+02  0.46607684577E+02  0.47000000000E+01 0. -1.
        -11    1    6    6    0    0 -0.56681803427E+02  0.27022708512E+02 -0.49976647183E+02  0.80254089482E+02  0.00000000000E+00 0.  1.
         12    1    6    6    0    0 -0.31626473683E+02  0.13240294814E+03 -0.11280450280E+03  0.17679261965E+03  0.00000000000E+00 0. -1.
         -5    1    3    3    0  503  0.73852767110E+02 -0.23130557969E+02 -0.13163887230E+03  0.15277479053E+03  0.47000000000E+01 0.  1.
         13    1    4    4    0    0  0.21330875001E+02 -0.44821235690E+02 -0.50771193729E+01  0.49897159621E+02  0.00000000000E+00 0. -1.
        -14    1    4    4    0    0 -0.30190046102E+02 -0.71631416186E+02 -0.11618574960E+03  0.13979136983E+03  0.00000000000E+00 0.  1.
</event>
<event>
12    1  0.8356052E-002  0.2113239E+03  0.7818608E-02  0.1140925E+00
         21   -1    0    0  501  502  0.00000000000E+00  0.00000000000E+00  0.93781396738E+02  0.93781396738E+02  0.00000000000E+00 0. -1.
         21   -1    0    0  502  503 -0.00000000000E+00 -0.00000000000E+00 -0.89809516640E+03  0.89809516640E+03  0.00000000000E+00 0.  1.
         -6    2    1    2    0  503 -0.11189609572E+03  0.46505497831E+02 -0.74494017303E+03  0.77433432216E+03  0.17313082776E+03 0.  0.
        -24    2    3    3    0    0 -0.57081859734E+02 -0.36538519473E+02 -0.31760205486E+03  0.33553953355E+03  0.84393786531E+02 0.  0.
          6    2    1    2  501    0  0.11189609572E+03 -0.46505497831E+02 -0.59373596628E+02  0.21754224097E+03  0.17063383329E+03 0.  0.
         24    2    5    5    0    0  0.80947973483E+02 -0.57144914595E+02 -0.10222285498E+03  0.16342078126E+03  0.80241659952E+02 0.  0.
          5    1    5    5  501    0  0.30948122240E+02  0.10639416763E+02  0.42849258357E+02  0.54121459709E+02  0.47000000000E+01 0. -1.
        -11    1    6    6    0    0  0.44362760923E+02 -0.67720812131E+02 -0.39592129240E+02  0.90120472980E+02  0.00000000000E+00 0.  1.
         12    1    6    6    0    0  0.36585212560E+02  0.10575897537E+02 -0.62630725745E+02  0.73300308281E+02  0.00000000000E+00 0. -1.
         -5    1    3    3    0  503 -0.54814235989E+02  0.83044017304E+02 -0.42733811817E+03  0.43879478861E+03  0.47000000000E+01 0.  1.
         11    1    4    4    0    0 -0.31285466446E+02 -0.30152295443E+02 -0.48453297221E+02  0.65081974023E+02  0.00000000000E+00 0. -1.
        -12    1    4    4    0    0 -0.25796393289E+02 -0.63862240299E+01 -0.26914875764E+03  0.27045755953E+03  0.00000000000E+00 0.  1.
</event>
<event>
12    1  0.8356052E-002  0.2163151E+03  0.7818608E-02  0.1139986E+00
         21   -1    0    0  503  502  0.00000000000E+00  0.00000000000E+00  0.21887291821E+03  0.21887291821E+03  0.00000000000E+00 0.  1.
         21   -1    0    0  501  503 -0.00000000000E+00 -0.00000000000E+00 -0.54883270938E+03  0.54883270938E+03  0.00000000000E+00 0. -1.
          6    2    1    2  501    0 -0.97495846559E+02  0.25076643425E+02 -0.47436026615E+03  0.52135388568E+03  0.19146261744E+03 0.  0.
         24    2    3    3    0    0 -0.80376855461E+02 -0.49177634269E+02 -0.19179126948E+03  0.22865252681E+03  0.81358517433E+02 0.  0.
         -6    2    1    2    0  502  0.97495846559E+02 -0.25076643425E+02  0.14440047498E+03  0.24635174191E+03  0.17234675926E+03 0.  0.
        -24    2    5    5    0    0  0.10936561235E+03 -0.25610427781E+02  0.43569693266E+02  0.14471457939E+03  0.80170194829E+02 0.  0.
          5    1    3    3  501    0 -0.17118991099E+02  0.74254277695E+02 -0.28256899667E+03  0.29270135888E+03  0.47000000000E+01 0. -1.
        -11    1    4    4    0    0 -0.41068857213E+02  0.19409031052E+02 -0.68293282094E+02  0.82020326129E+02  0.00000000000E+00 0.  1.
         12    1    4    4    0    0 -0.39307998247E+02 -0.68586665322E+02 -0.12349798739E+03  0.14663220068E+03  0.00000000000E+00 0. -1.
         -5    1    5    5    0  502 -0.11869765795E+02  0.53378435594E+00  0.10083078171E+03  0.10163716252E+03  0.47000000000E+01 0.  1.
         11    1    6    6    0    0 -0.26015654676E+01  0.16379677248E+01  0.28306633542E+02  0.28473085249E+02  0.00000000000E+00 0. -1.
        -12    1    6    6    0    0  0.11196717782E+03 -0.27248395506E+02  0.15263059725E+02  0.11624149414E+03  0.00000000000E+00 0.  1.
</event>
<event>
12    1  0.8356052E-002  0.1852981E+03  0.7818608E-02  0.1164824E+00
         21   -1    0    0  501  502  0.00000000000E+00  0.00000000000E+00  0.80433992767E+03  0.80433992767E+03  0.00000000000E+00 0.  1.
         21   -1    0    0  502  503 -0.00000000000E+00 -0.00000000000E+00 -0.93933873483E+02  0.93933873483E+02  0.00000000000E+00 0.  1.
         -6    2    1    2    0  503  0.95809046146E+01  0.39999108090E+02  0.20887319967E+02  0.18647162220E+03  0.18067557491E+03 0.  0.
        -24    2    3    3    0    0  0.49546970536E+02  0.83129284359E+02  0.94282793179E+01  0.12638087297E+03  0.80733217418E+02 0.  0.
          6    2    1    2  501    0 -0.95809046146E+01 -0.39999108090E+02  0.68951873422E+03  0.71180217896E+03  0.17185614549E+03 0.  0.
         24    2    5    5    0    0 -0.42321445308E+02 -0.66125310432E+02  0.30770497688E+03  0.32766892506E+03  0.80752153166E+02 0.  0.
          5    1    5    5  501    0  0.32740540694E+02  0.26126202342E+02  0.38181375734E+03  0.38413325389E+03  0.47000000000E+01 0. -1.
        -11    1    6    6    0    0 -0.58245606990E+02 -0.61808155337E+02  0.29460367321E+03  0.30660091825E+03  0.00000000000E+00 0.  1.
         12    1    6    6    0    0  0.15924161681E+02 -0.43171550957E+01  0.13101303673E+02  0.21068006818E+02  0.00000000000E+00 0. -1.
         -5    1    3    3    0  503 -0.39966065921E+02 -0.43130176269E+02  0.11459040649E+02  0.60090749228E+02  0.47000000000E+01 0.  1.
         11    1    4    4    0    0  0.41371981075E+01 -0.15625593180E+02  0.71169388004E+01  0.17661437888E+02  0.00000000000E+00 0. -1.
        -12    1    4    4    0    0  0.45409772428E+02  0.98754877539E+02  0.23113405176E+01  0.10871943508E+03  0.00000000000E+00 0.  1.
</event>
<event>
12    1  0.8356052E-002  0.1719785E+03  0.7818608E-02  0.1178220E+00
         21   -1    0    0  503  502  0.00000000000E+00  0.00000000000E+00  0.11796799353E+03  0.11796799353E+03  0.00000000000E+00 0.  1.
         21   -1    0    0  501  503 -0.00000000000E+00 -0.00000000000E+00 -0.24691515091E+03  0.24691515091E+03  0.00000000000E+00 0.  1.
          6    2    1    2  501    0  0.93059702126E+01  0.77098914958E+01 -0.98289237744E+02  0.19019335606E+03  0.16237824647E+03 0.  0.
         24    2    3    3    0    0 -0.12184517813E+00  0.93597581293E+00 -0.13197175598E+03  0.15425769590E+03  0.79862390852E+02 0.  0.
         -6    2    1    2    0  502 -0.93059702126E+01 -0.77098914958E+01 -0.30657919632E+02  0.17468978838E+03  0.17155340457E+03 0.  0.
        -24    2    5    5    0    0  0.39716541738E+02 -0.52194321527E+02 -0.31480396766E+02  0.10832083734E+03  0.80254205715E+02 0.  0.
          5    1    3    3  501    0  0.94278153907E+01  0.67739156829E+01  0.33682518233E+02  0.35935660162E+02  0.47000000000E+01 0. -1.
        -11    1    4    4    0    0  0.28678108780E+02 -0.26023318373E+02 -0.49602437517E+02  0.62928918868E+02  0.00000000000E+00 0.  1.
         12    1    4    4    0    0 -0.28799953958E+02  0.26959294186E+02 -0.82369318460E+02  0.91328777034E+02  0.00000000000E+00 0. -1.
         -5    1    5    5    0  502 -0.49022511950E+02  0.44484430031E+02  0.82247713367E+00  0.66368951037E+02  0.47000000000E+01 0.  1.
         13    1    6    6    0    0 -0.69505002597E+01 -0.56185160203E+02 -0.20525275317E+02  0.60219337490E+02  0.00000000000E+00 0. -1.
        -14    1    6    6    0    0  0.46667041997E+02  0.39908386765E+01 -0.10955121449E+02  0.48101499853E+02  0.00000000000E+00 0.  1.
</event>
<event>
12    1  0.8356052E-002  0.2095997E+03  0.7818608E-02  0.1141980E+00
         21   -1    0    0  501  502  0.00000000000E+00  0.00000000000E+00  0.22863396497E+03  0.22863396497E+03  0.00000000000E+00 0.  1.
         21   -1    0    0  502  503 -0.00000000000E+00 -0.00000000000E+00 -0.25904678607E+03  0.25904678607E+03  0.00000000000E+00 0. -1.
         -6    2    1    2    0  503 -0.36128520880E+02 -0.11461814307E+03 -0.13954684127E+03  0.25180418538E+03  0.17172489081E+03 0.  0.
        -24    2    3    3    0    0 -0.86665085697E+02 -0.54044354254E+02 -0.84694280739E+02  0.15560635966E+03  0.81293226485E+02 0.  0.
          6    2    1    2  501    0  0.36128520880E+02  0.11461814307E+03  0.10913402016E+03  0.23587656566E+03  0.17112840539E+03 0.  0.
         24    2    5    5    0    0 -0.34424453425E+02  0.47810914006E+02  0.81259700882E+02  0.13468370171E+03  0.89808874998E+02 0.  0.
          5    1    5    5  501    0  0.70552974305E+02  0.66807229067E+02  0.27874319280E+02  0.10119286395E+03  0.47000000000E+01 0. -1.
        -11    1    6    6    0    0  0.72943210369E+01  0.57914755556E+02  0.23982320495E+02  0.63106875432E+02  0.00000000000E+00 0.  1.
         12    1    6    6    0    0 -0.41718774462E+02 -0.10103841550E+02  0.57277380388E+02  0.71576826283E+02  0.00000000000E+00 0. -1.
         -5    1    3    3    0  503  0.50536564816E+02 -0.60573788819E+02 -0.54852560530E+02  0.96197825713E+02  0.47000000000E+01 0.  1.
         13    1    4    4    0    0 -0.51763438808E+02 -0.35369401711E+02 -0.95803221589E+02  0.11449325500E+03  0.00000000000E+00 0. -1.
        -14    1    4    4    0    0 -0.34901646888E+02 -0.18674952543E+02  0.11108940849E+02  0.41113104660E+02  0.00000000000E+00 0.  1.
</event>
<event>
12    1  0.8356052E-002  0.2894412E+03  0.7818608E-02  0.1090719E+00
         21   -1    0    0  503  502  0.00000000000E+00  0.00000000000E+00  0.16520234122E+04  0.16520234122E+04  0.00000000000E+00 0.  1.
         21   -1    0    0  501  503 -0.00000000000E+00 -0.00000000000E+00 -0.64760561322E+02  0.64760561322E+02  0.00000000000E+00 0. -1.
          6    2    1    2  501    0  0.16513437592E+03 -0.16401688771E+03  0.39298313092E+03  0.48806958817E+03  0.17206184978E+03 0.  0.
         24    2    3    3    0    0  0.50683917097E+02 -0.11634844725E+03  0.28952405219E+03  0.32652374727E+03  0.81778726499E+02 0.  0.
         -6    2    1    2    0  502 -0.16513437592E+03  0.16401688771E+03  0.11942797200E+04  0.12287143853E+04  0.17106750039E+03 0.  0.
        -24    2    5    5    0    0 -0.10536022342E+02  0.67911703544E+02  0.49229666718E+03  0.50349775995E+03  0.80193382025E+02 0.  0.
          5    1    3    3  501    0  0.11445045882E+03 -0.47668440460E+02  0.10345907873E+03  0.16154584090E+03  0.47000000000E+01 0. -1.
        -11    1    4    4    0    0  0.52785166108E+02 -0.10443117923E+03  0.16994142243E+03  0.20633039528E+03  0.00000000000E+00 0.  1.
         12    1    4    4    0    0 -0.21012490112E+01 -0.11917268016E+02  0.11958262976E+03  0.12019335200E+03  0.00000000000E+00 0. -1.
         -5    1    5    5    0  502 -0.15459835358E+03  0.96105184165E+02  0.70198305278E+03  0.72521662539E+03  0.47000000000E+01 0.  1.
         13    1    6    6    0    0 -0.19933059290E+02  0.97276202483E+01  0.33147793378E+03  0.33221916566E+03  0.00000000000E+00 0. -1.
        -14    1    6    6    0    0  0.93970369481E+01  0.58184083295E+02  0.16081873340E+03  0.17127859430E+03  0.00000000000E+00 0.  1.
</event>
<event>
12    1  0.8356052E-002  0.3229519E+03  0.7818608E-02  0.1074448E+00
         21   -1    0    0  503  502  0.00000000000E+00  0.00000000000E+00  0.30098575725E+03  0.30098575725E+03  0.00000000000E+00 0.  1.
         21   -1    0    0  501  503 -0.00000000000E+00 -0.00000000000E+00 -0.39093860571E+03  0.39093860571E+03  0.00000000000E+00 0. -1.
          6    2    1    2  501    0 -0.26351196755E+03 -0.67798642599E+02  0.73549610810E+02  0.32994230250E+03  0.17151432811E+03 0.  0.
         24    2    3    3    0    0 -0.12831778075E+03 -0.25427371110E+02  0.10185462689E+03  0.18538761829E+03  0.82959025658E+02 0.  0.
         -6    2    1    2    0  502  0.26351196755E+03  0.67798642599E+02 -0.16350245927E+03  0.36198206047E+03  0.17396190656E+03 0.  0.
        -24    2    5    5    0    0  0.14529042835E+03 -0.23570474183E+02 -0.50381983547E+02  0.17451745085E+03  0.79076675201E+02 0.  0.
          5    1    3    3  501    0 -0.13519418680E+03 -0.42371271489E+02 -0.28305016079E+02  0.14455468421E+03  0.47000000000E+01 0. -1.
        -13    1    4    4    0    0 -0.33812987122E+02  0.27857533076E+02  0.45381161043E+02  0.63077809290E+02  0.00000000000E+00 0.  1.
         14    1    4    4    0    0 -0.94504793631E+02 -0.53284904186E+02  0.56473465846E+02  0.12230980900E+03  0.00000000000E+00 0. -1.
         -5    1    5    5    0  502  0.11822153920E+03  0.91369116782E+02 -0.11312047572E+03  0.18746460962E+03  0.47000000000E+01 0.  1.
         13    1    6    6    0    0  0.13128802352E+03  0.51410490587E+01 -0.25066244703E+02  0.13375833480E+03  0.00000000000E+00 0. -1.
        -14    1    6    6    0    0  0.14002404834E+02 -0.28711523241E+02 -0.25315738844E+02  0.40759116050E+02  0.00000000000E+00 0.  1.
</event>
<event>
12    1  0.8356052E-002  0.2824742E+03  0.7818608E-02  0.1094880E+00
         21   -1    0    0  501  502  0.00000000000E+00  0.00000000000E+00  0.43667425073E+03  0.43667425073E+03  0.00000000000E+00 0.  1.
         21   -1    0    0  502  503 -0.00000000000E+00 -0.00000000000E+00 -0.47225292396E+03  0.47225292396E+03  0.00000000000E+00 0. -1.
         -6    2    1    2    0  503  0.20698407595E+03  0.70882053699E+02 -0.37513349557E+03  0.46723822565E+03  0.17239416108E+03 0.  0.
        -24    2    3    3    0    0  0.14985912140E+03  0.56764310964E+01 -0.32050613538E+03  0.36466497313E+03  0.88127076834E+02 0.  0.
          6    2    1    2  501    0 -0.20698407595E+03 -0.70882053699E+02  0.33955482233E+03  0.44168894904E+03  0.17867561976E+03 0.  0.
         24    2    5    5    0    0 -0.39482389691E+02  0.13742045280E+02  0.71581978760E+02  0.11450461579E+03  0.78991293509E+02 0.  0.
          5    1    5    5  501    0 -0.16750168626E+03 -0.84624098979E+02  0.26797284357E+03  0.32718433325E+03  0.47000000000E+01 0. -1.
        -11    1    6    6    0    0 -0.46181706395E+02  0.17181458533E+02  0.85498605715E+02  0.98681123332E+02  0.00000000000E+00 0.  1.
         12    1    6    6    0    0  0.66993167032E+01 -0.34394132532E+01 -0.13916626955E+02  0.15823492460E+02  0.00000000000E+00 0. -1.
         -5    1    3    3    0  503  0.57124954555E+02  0.65205622602E+02 -0.54627360185E+02  0.10257325252E+03  0.47000000000E+01 0.  1.
         13    1    4    4    0    0  0.89675036155E+02  0.43981953584E+02 -0.15443316363E+03  0.18391744446E+03  0.00000000000E+00 0. -1.
        -14    1    4    4    0    0  0.60184085242E+02 -0.38305522488E+02 -0.16607297176E+03  0.18074752866E+03  0.00000000000E+00 0.  1.
</event>
<event>
12    1  0.8356052E-002  0.1836754E+03  0.7818608E-02  0.1164389E+00
         21   -1    0    0  501  502  0.00000000000E+00  0.00000000000E+00  0.27491160705E+03  0.27491160705E+03  0.00000000000E+00 0.  1.
         21   -1    0    0  502  503 -0.00000000000E+00 -0.00000000000E+00 -0.13013973939E+03  0.13013973939E+03  0.00000000000E+00 0.  1.
         -6    2    1    2    0  503  0.12895704473E+02 -0.62236283635E+02  0.23063938024E+02  0.18471188267E+03  0.17189205964E+03 0.  0.
        -24    2    3    3    0    0  0.23788261225E+02 -0.20492952133E+02  0.76955099018E+02  0.11552011472E+03  0.80230712211E+02 0.  0.
          6    2    1    2  501    0 -0.12895704473E+02  0.62236283635E+02  0.12170792964E+03  0.22033946377E+03  0.17232818969E+03 0.  0.
         24    2    5    5    0    0  0.82865638942E+01  0.10596067632E+03  0.10139562932E+03  0.16746990208E+03  0.80428616736E+02 0.  0.
          5    1    5    5  501    0 -0.21182268367E+02 -0.43724392687E+02  0.20312300323E+02  0.52869561691E+02  0.47000000000E+01 0. -1.
        -11    1    6    6    0    0  0.24360660106E+02  0.33053775052E+02  0.79811679570E+02  0.89754654485E+02  0.00000000000E+00 0.  1.
         12    1    6    6    0    0 -0.16074096212E+02  0.72906901271E+02  0.21583949747E+02  0.77715247594E+02  0.00000000000E+00 0. -1.
         -5    1    3    3    0  503 -0.10892556752E+02 -0.41743331503E+02 -0.53891160994E+02  0.69191767941E+02  0.47000000000E+01 0.  1.
         13    1    4    4    0    0  0.25359406185E+02  0.25308524428E+02  0.52542220760E+02  0.63594857128E+02  0.00000000000E+00 0. -1.
        -14    1    4    4    0    0 -0.15711449596E+01 -0.45801476561E+02  0.24412878258E+02  0.51925257597E+02  0.00000000000E+00 0.  1.
</event>
<event>
12    1  0.8356052E-002  0.2221900E+03  0.7818608E-02  0.1133114E+00
         21   -1    0    0  503  502  0.00000000000E+00  0.00000000000E+00  0.10530187648E+04  0.10530187648E+04  0.00000000000E+00 0. -1.
         21   -1    0    0  501  503 -0.00000000000E+00 -0.00000000000E+00 -0.57925773094E+02  0.57925773094E+02  0.00000000000E+00 0.  1.
          6    2    1    2  501    0 -0.12656897292E+03 -0.47275693134E+02  0.24878953207E+03  0.33356354629E+03  0.17639079363E+03 0.  0.
         24    2    3    3    0    0 -0.56676787421E+02 -0.31576143742E+01  0.22854469132E+03  0.24833874917E+03  0.78849411215E+02 0.  0.
         -6    2    1    2    0  502  0.12656897292E+03  0.47275693134E+02  0.74630345963E+03  0.77738099159E+03  0.17058035108E+03 0.  0.
        -24    2    5    5    0    0  0.44192944442E+02  0.84839733468E+02  0.37613284987E+03  0.39627045970E+03  0.80022245447E+02 0.  0.
          5    1    3    3  501    0 -0.69892185497E+02 -0.44118078760E+02  0.20244840752E+02  0.85224797120E+02  0.47000000000E+01 0. -1.
        -11    1    4    4    0    0 -0.75041272436E+02 -0.11242890960E+02  0.19510564525E+03  0.20934136709E+03  0.00000000000E+00 0.  1.
         12    1    4    4    0    0  0.18364485015E+02  0.80852765855E+01  0.33439046067E+02  0.38997382082E+02  0.00000000000E+00 0. -1.
         -5    1    5    5    0  502  0.82376028476E+02 -0.37564040334E+02  0.37017060975E+03  0.38111053189E+03  0.47000000000E+01 0.  1.
         11    1    6    6    0    0  0.21376237314E+02  0.85855344353E+02  0.20043296554E+03  0.21909234891E+03  0.00000000000E+00 0. -1.
        -12    1    6    6    0    0  0.22816707128E+02 -0.10156108848E+01  0.17569988433E+03  0.17717811079E+03  0.00000000000E+00 0.  1.
</event>
<event>
12    1  0.8356052E-002  0.1962645E+03  0.7818608E-02  0.1153111E+00
         21   -1    0    0  503  502  0.00000000000E+00  0.00000000000E+00  0.38745599078E+03  0.38745599078E+03  0.00000000000E+00 0. -1.
         21   -1    0    0  501  503 -0.00000000000E+00 -0.00000000000E+00 -0.10062156063E+03  0.10062156063E+03  0.00000000000E+00 0. -1.
          6    2    1    2  501    0 -0.90597238618E+02  0.23784923503E+02  0.17475323422E+03  0.26278971765E+03  0.17247075290E+03 0.  0.
         24    2    3    3    0    0 -0.10798868138E+03  0.82409885846E+01  0.19131579384E+03  0.23379860564E+03  0.79564978646E+02 0.  0.
         -6    2    1    2    0  502  0.90597238618E+02 -0.23784923503E+02  0.11208119593E+03  0.22528783375E+03  0.17151918646E+03 0.  0.
        -24    2    5    5    0    0  0.35715595472E+02  0.50770836446E+02  0.46900249562E+02  0.11196880682E+03  0.80523901405E+02 0.  0.
          5    1    3    3  501    0  0.17391442764E+02  0.15543934919E+02 -0.16562559628E+02  0.28991112011E+02  0.47000000000E+01 0. -1.
        -13    1    4    4    0    0 -0.26139260225E+02 -0.79023607612E+01  0.25588417363E+01  0.27427283893E+02  0.00000000000E+00 0.  1.
         14    1    4    4    0    0 -0.81849421157E+02  0.16143349346E+02  0.18875695211E+03  0.20637132175E+03  0.00000000000E+00 0. -1.
         -5    1    5    5    0  502  0.54881643146E+02 -0.74555759950E+02  0.65180946370E+02  0.11331902694E+03  0.47000000000E+01 0.  1.
         11    1    6    6    0    0  0.44870585195E+02  0.51800951090E+02  0.46107708259E+01  0.68687459970E+02  0.00000000000E+00 0. -1.
        -12    1    6    6    0    0 -0.91549897234E+01 -0.10301146432E+01  0.42289478737E+02  0.43281346846E+02  0.00000000000E+00 0.  1.
</event>
<event>
12    1  0.8356052E-002  0.3299553E+03  0.7818608E-02  0.1071714E+00
         21   -1    0    0  503  502  0.00000000000E+00  0.00000000000E+00  0.35031277885E+03  0.35031277885E+03  0.00000000000E+00 0. -1.
         21   -1    0    0  501  503 -0.00000000000E+00 -0.00000000000E+00 -0.40526998091E+03  0.40526998091E+03  0.00000000000E+00 0.  1.
          6    2    1    2  501    0 -0.19109220899E+03  0.20801966660E+03  0.15925175530E+03  0.36637637475E+03  0.17053478349E+03 0.  0.
         24    2    3    3    0    0 -0.13864047558E+03  0.94879947575E+02  0.32006414013E+02  0.18814829829E+03  0.78434594992E+02 0.  0.
         -6    2    1    2    0  502  0.19109220899E+03 -0.20801966660E+03 -0.21420895736E+03  0.38920638501E+03  0.16064780948E+03 0.  0.
        -24    2    5    5    0    0  0.70553020615E+02 -0.14852032059E+03 -0.16466228035E+03  0.24586472563E+03  0.79371168536E+02 0.  0.
          5    1    3    3  501    0 -0.52451733410E+02  0.11313971902E+03  0.12724534129E+03  0.17822807646E+03  0.47000000000E+01 0. -1.
        -13    1    4    4    0    0 -0.14594514447E+03  0.98871649455E+02  0.26743018429E+02  0.17829968395E+03  0.00000000000E+00 0.  1.
         14    1    4    4    0    0  0.73046688896E+01 -0.39917018803E+01  0.52633955836E+01  0.98486143471E+01  0.00000000000E+00 0. -1.
         -5    1    5    5    0  502  0.12053918838E+03 -0.59499346006E+02 -0.49546677011E+02  0.14334165938E+03  0.47000000000E+01 0.  1.
         13    1    6    6    0    0 -0.16149092771E+02 -0.42647834050E+02 -0.37137662212E+02  0.58811877211E+02  0.00000000000E+00 0. -1.
        -14    1    6    6    0    0  0.86702113387E+02 -0.10587248654E+03 -0.12752461814E+03  0.18705284842E+03  0.00000000000E+00 0.  1.
</event>
<event>
12    1  0.8356052E-002  0.2026834E+03  0.7818608E-02  0.1147557E+00
         21   -1    0    0  503  502  0.00000000000E+00  0.00000000000E+00  0.23617350604E+03  0.23617350604E+03  0.00000000000E+00 0. -1.
         21   -1    0    0  501  503 -0.00000000000E+00 -0.00000000000E+00 -0.23677806634E+03  0.23677806634E+03  0.00000000000E+00 0. -1.
          6    2    1    2  501    0 -0.10029540022E+03  0.25446971761E+02 -0.12237201374E+03  0.23676039395E+03  0.17428097635E+03 0.  0.
         24    2    3    3    0    0 -0.87246142589E+02  0.51044257621E+01 -0.60546458902E+01  0.11786580885E+03  0.78852682896E+02 0.  0.
         -6    2    1    2    0  502  0.10029540022E+03 -0.25446971761E+02  0.12176745343E+03  0.23619117843E+03  0.17393172331E+03 0.  0.
        -24    2    5    5    0    0  0.12115598009E+03  0.24016318717E+02  0.75730152946E+02  0.16531590817E+03  0.79616194041E+02 0.  0.
          5    1    3    3  501    0 -0.13049257633E+02  0.20342545999E+02 -0.11631736785E+03  0.11889458510E+03  0.47000000000E+01 0. -1.
        -11    1    4    4    0    0 -0.66512225342E+02 -0.22993337864E+02 -0.28964190850E+02  0.76101866322E+02  0.00000000000E+00 0.  1.
         12    1    4    4    0    0 -0.20733917247E+02  0.28097763626E+02  0.22909544960E+02  0.41763942528E+02  0.00000000000E+00 0. -1.
         -5    1    5    5    0  502 -0.20860579868E+02 -0.49463290478E+02  0.46037300488E+02  0.70875270254E+02  0.47000000000E+01 0.  1.
         11    1    6    6    0    0  0.10303146785E+03  0.36532263445E+02  0.28146815866E+02  0.11288194223E+03  0.00000000000E+00 0. -1.
        -12    1    6    6    0    0  0.18124512243E+02 -0.12515944728E+02  0.47583337080E+02  0.52433965939E+02  0.00000000000E+00 0.  1.
</event>
<event>
12    1  0.8356052E-002  0.2567217E+03  0.7818608E-02  0.1109205E+00
         21   -1    0    0  503  502  0.00000000000E+00  0.00000000000E+00  0.21830874259E+03  0.21830874259E+03  0.00000000000E+00 0.  1.
         21   -1    0    0  501  503 -0.00000000000E+00 -0.00000000000E+00 -0.12056525482E+04  0.12056525482E+04  0.00000000000E+00 0. -1.
          6    2    1    2  501    0 -0.19060623659E+03 -0.91464076270E+00 -0.11101805310E+04  0.11393652973E+04  0.17123345228E+03 0.  0.
         24    2    3    3    0    0 -0.16101307614E+03 -0.40006052195E+02 -0.10204655162E+04  0.10370189858E+04  0.80825813940E+02 0.  0.
         -6    2    1    2    0  502  0.19060623659E+03  0.91464076270E+00  0.12283672542E+03  0.28459599350E+03  0.17197221989E+03 0.  0.
        -24    2    5    5    0    0  0.20140768719E+03  0.33083960686E+02  0.12093773213E+03  0.25028516934E+03  0.79731587366E+02 0.  0.
          5    1    3    3  501    0 -0.29593160448E+02  0.39091411433E+02 -0.89715014806E+02  0.10234631149E+03  0.47000000000E+01 0. -1.
        -13    1    4    4    0    0  0.40898777745E+01  0.10896810908E+02 -0.55279684068E+02  0.56491690175E+02  0.00000000000E+00 0.  1.
         14    1    4    4    0    0 -0.16510295391E+03 -0.50902863103E+02 -0.96518583214E+03  0.98052729561E+03  0.00000000000E+00 0. -1.
         -5    1    5    5    0  502 -0.10801450604E+02 -0.32169319923E+02  0.18989932929E+01  0.34310824166E+02  0.47000000000E+01 0.  1.
         11    1    6    6    0    0  0.34532206786E+02  0.15255840770E+01 -0.98347768498E+01  0.35937773275E+02  0.00000000000E+00 0. -1.
        -12    1    6    6    0    0  0.16687548041E+03  0.31558376609E+02  0.13077250898E+03  0.21434739606E+03  0.00000000000E+00 0.  1.
</event>
<event>
12    1  0.8356052E-002  0.1938200E+03  0.7818608E-02  0.1155237E+00
         21   -1    0    0  503  502  0.00000000000E+00  0.00000000000E+00  0.12467913689E+04  0.12467913689E+04  0.00000000000E+00 0. -1.
         21   -1    0    0  501  503 -0.00000000000E+00 -0.00000000000E+00 -0.35367389164E+03  0.35367389164E+03  0.00000000000E+00 0. -1.
          6    2    1    2  501    0  0.82837920423E+02 -0.32918645295E+02 -0.31905398682E+03  0.37289618133E+03  0.17120267895E+03 0.  0.
         24    2    3    3    0    0  0.32684437665E+02  0.16864738407E+02 -0.63792634523E+02  0.10799203810E+03  0.78994228949E+02 0.  0.
         -6    2    1    2    0  502 -0.82837920423E+02  0.32918645295E+02  0.12121714641E+04  0.12275690792E+04  0.17210586173E+03 0.  0.
        -24    2    5    5    0    0 -0.81853001718E+02 -0.38964572607E+02  0.81844740577E+03  0.82730805041E+03  0.79776578411E+02 0.  0.
          5    1    3    3  501    0  0.50153482758E+02 -0.49783383702E+02 -0.25526135229E+03  0.26490414323E+03  0.47000000000E+01 0. -1.
        -13    1    4    4    0    0 -0.14028291303E+02 -0.15779420652E+02  0.16930563431E+01  0.21181348228E+02  0.00000000000E+00 0.  1.
         14    1    4    4    0    0  0.46712728968E+02  0.32644159058E+02 -0.65485690866E+02  0.86810689874E+02  0.00000000000E+00 0. -1.
         -5    1    5    5    0  502 -0.98491870497E+00  0.71883217902E+02  0.39372405829E+03  0.40026102877E+03  0.47000000000E+01 0.  1.
         11    1    6    6    0    0 -0.40431092872E+02  0.22452906548E+02  0.28128680740E+03  0.28506328122E+03  0.00000000000E+00 0. -1.
        -12    1    6    6    0    0 -0.41421908846E+02 -0.61417479154E+02  0.53716059836E+03  0.54224476919E+03  0.00000000000E+00 0.  1.
</event>
<event>
12    1  0.8356052E-002  0.1799710E+03  0.7818608E-02  0.1168341E+00
         21   -1    0    0  501  502  0.00000000000E+00  0.00000000000E+00  0.39146020437E+03  0.39146020437E+03  0.00000000000E+00 0.  1.
         21   -1    0    0  502  503 -0.00000000000E+00 -0.00000000000E+00 -0.14916521825E+03  0.14916521825E+03  0.00000000000E+00 0.  1.
         -6    2    1    2    0  503  0.51245934916E+02  0.13559358021E+02 -0.60145026760E+02  0.18975509274E+03  0.17198711853E+03 0.  0.
        -24    2    3    3    0    0  0.72768607751E+02 -0.40517581393E+01 -0.77220778172E+01  0.13022667570E+03  0.10764603830E+03 0.  0.
          6    2    1    2  501    0 -0.51245934916E+02 -0.13559358021E+02  0.30244001288E+03  0.35087032989E+03  0.16979406636E+03 0.  0.
         24    2    5    5    0    0  0.20792346831E+02 -0.41868819649E+02  0.11624662622E+03  0.14917499804E+03  0.80960374181E+02 0.  0.
          5    1    5    5  501    0 -0.72038281747E+02  0.28309461628E+02  0.18619338666E+03  0.20169533185E+03  0.47000000000E+01 0. -1.
        -11    1    6    6    0    0  0.12784032664E+02 -0.15443845164E+02  0.11968262688E+03  0.12135021641E+03  0.00000000000E+00 0.  1.
         12    1    6    6    0    0  0.80083141671E+01 -0.26424974486E+02 -0.34360006635E+01  0.27824781633E+02  0.00000000000E+00 0. -1.
         -5    1    3    3    0  503 -0.21522672835E+02  0.17611116160E+02 -0.52422948943E+02  0.59528417031E+02  0.47000000000E+01 0.  1.
         11    1    4    4    0    0  0.37299348379E+02 -0.52184333967E+02 -0.23628010899E+02  0.68357362443E+02  0.00000000000E+00 0. -1.
        -12    1    4    4    0    0  0.35469259372E+02  0.48132575828E+02  0.15905933082E+02  0.61869313261E+02  0.00000000000E+00 0.  1.
</event>
<event>
12    1  0.8356052E-002  0.1973032E+03  0.7818608E-02  0.1152173E+00
         21   -1    0    0  501  502  0.00000000000E+00  0.00000000000E+00  0.39652028525E+03  0.39652028525E+03  0.00000000000E+00 0. -1.
         21   -1    0    0  502  503 -0.00000000000E+00 -0.00000000000E+00 -0.98582826006E+02  0.98582826006E+02  0.00000000000E+00 0.  1.
         -6    2    1    2    0  503  0.49310524785E+02 -0.82654869046E+02  0.12746164123E+03  0.23435314376E+03  0.17149801974E+03 0.  0.
        -24    2    3    3    0    0  0.77411838646E+02 -0.15865697872E+02  0.27139118699E+02  0.11050979209E+03  0.72329587667E+02 0.  0.
          6    2    1    2  501    0 -0.49310524785E+02  0.82654869046E+02  0.17047581802E+03  0.26074996750E+03  0.17223584351E+03 0.  0.
         24    2    5    5    0    0 -0.28961139956E+02  0.10099656465E+03  0.62994471192E+02  0.14973264824E+03  0.86095928172E+02 0.  0.
          5    1    5    5  501    0 -0.20349384829E+02 -0.18341695605E+02  0.10748134682E+03  0.11101731926E+03  0.47000000000E+01 0. -1.
        -11    1    6    6    0    0  0.14748509623E+02  0.80918240895E+02  0.59478713733E+02  0.10150368285E+03  0.00000000000E+00 0.  1.
         12    1    6    6    0    0 -0.43709649579E+02  0.20078323756E+02  0.35157574594E+01  0.48228965381E+02  0.00000000000E+00 0. -1.
         -5    1    3    3    0  503 -0.28101313861E+02 -0.66789171174E+02  0.10032252253E+03  0.12384335167E+03  0.47000000000E+01 0.  1.
         13    1    4    4    0    0  0.70976879745E+02  0.13326537424E+02  0.33302805069E+01  0.72293878208E+02  0.00000000000E+00 0. -1.
        -14    1    4    4    0    0  0.64349589009E+01 -0.29192235296E+02  0.23808838192E+02  0.38215913880E+02  0.00000000000E+00 0.  1.
</event>
<event>
12    1  0.8356052E-002  0.1760691E+03  0.7818608E-02  0.1171855E+00
         21   -1    0    0  503  502  0.00000000000E+00  0.00000000000E+00  0.10334102652E+03  0.10334102652E+03  0.00000000000E+00 0.  1.
         21   -1    0    0  501  503 -0.00000000000E+00 -0.00000000000E+00 -0.33374540106E+03  0.33374540106E+03  0.00000000000E+00 0. -1.
          6    2    1    2  501    0  0.69914620790E+01 -0.31694653780E+02 -0.44578098969E+02  0.18162474332E+03  0.17305175196E+03 0.  0.
         24    2    3    3    0    0 -0.31426864559E+02 -0.35928105079E+02  0.33433597509E+02  0.94436414288E+02  0.74309853658E+02 0.  0.
         -6    2    1    2    0  502 -0.69914620790E+01  0.31694653780E+02 -0.18582627556E+03  0.25546168426E+03  0.17226675772E+03 0.  0.
        -24    2    5    5    0    0 -0.24041793937E+02 -0.16335402564E+02 -0.18587251871E+03  0.20427875481E+03  0.79601276519E+02 0.  0.
          5    1    3    3  501    0  0.38418326638E+02  0.42334512986E+01 -0.78011696478E+02  0.87188329030E+02  0.47000000000E+01 0. -1.
        -11    1    4    4    0    0  0.76401562413E+01 -0.32843586646E+02  0.42460633712E+02  0.54221569383E+02  0.00000000000E+00 0.  1.
         12    1    4    4    0    0 -0.39067020800E+02 -0.30845184331E+01 -0.90270362029E+01  0.40214844905E+02  0.00000000000E+00 0. -1.
         -5    1    5    5    0  502  0.17050331858E+02  0.48030056345E+02  0.46243145393E-01  0.51182929453E+02  0.47000000000E+01 0.  1.
         11    1    6    6    0    0  0.16945172667E+02 -0.26075138269E+01 -0.14076105827E+03  0.14180131709E+03  0.00000000000E+00 0. -1.
        -12    1    6    6    0    0 -0.40986966603E+02 -0.13727888738E+02 -0.45111460440E+02  0.62477437716E+02  0.00000000000E+00 0.  1.
</event>
<event>
12    1  0.8356052E-002  0.2915798E+03  0.7818608E-02  0.1089625E+00
         21   -1    0    0  501  502  0.00000000000E+00  0.00000000000E+00  0.21862760995E+03  0.21862760995E+03  0.00000000000E+00 0. -1.
         21   -1    0    0  502  503 -0.00000000000E+00 -0.00000000000E+00 -0.38786787337E+03  0.38786787337E+03  0.00000000000E+00 0. -1.
         -6    2    1    2    0  503  0.18934682152E+03  0.13340374259E+03 -0.84647327155E+02  0.30361807172E+03  0.17711574217E+03 0.  0.
        -24    2    3    3    0    0  0.14179537777E+03  0.15380871161E+03 -0.26380719961E+02  0.22555021613E+03  0.80086882108E+02 0.  0.
          6    2    1    2  501    0 -0.18934682152E+03 -0.13340374259E+03 -0.84592936270E+02  0.30287741160E+03  0.17586922481E+03 0.  0.
         24    2    5    5    0    0 -0.11372633014E+03 -0.16646766632E+02  0.10042215930E+02  0.13456653202E+03  0.69256858389E+02 0.  0.
          5    1    5    5  501    0 -0.75620491381E+02 -0.11675697596E+03 -0.94635152201E+02  0.16831087958E+03  0.47000000000E+01 0. -1.
        -13    1    6    6    0    0 -0.36153761123E+02  0.19364512088E+02 -0.17680430704E+02  0.44661800250E+02  0.00000000000E+00 0.  1.
         14    1    6    6    0    0 -0.77572569015E+02 -0.36011278720E+02  0.27722646634E+02  0.89904731773E+02  0.00000000000E+00 0. -1.
         -5    1    3    3    0  503  0.47551443749E+02 -0.20404969017E+02 -0.58266607195E+02  0.78067855595E+02  0.47000000000E+01 0.  1.
         11    1    4    4    0    0  0.11996030722E+03  0.83820368391E+02  0.34862961183E+01  0.14638471138E+03  0.00000000000E+00 0. -1.
        -12    1    4    4    0    0  0.21835070550E+02  0.69988343217E+02 -0.29867016079E+02  0.79165504746E+02  0.00000000000E+00 0.  1.
</event>
<event>
12    1  0.8356052E-002  0.2627757E+03  0.7818608E-02  0.1105686E+00
         21   -1    0    0  503  502  0.00000000000E+00  0.00000000000E+00  0.23419044418E+02  0.23419044418E+02  0.00000000000E+00 0.  1.
         21   -1    0    0  501  503 -0.00000000000E+00 -0.00000000000E+00 -0.29462241222E+04  0.29462241222E+04  0.00000000000E+00 0. -1.
          6    2    1    2  501    0 -0.18692287315E+03 -0.62690442214E+02 -0.15553871578E+04  0.15772054365E+04  0.17169020429E+03 0.  0.
         24    2    3    3    0    0 -0.47959823072E+02  0.25650525449E+02 -0.54416893611E+03  0.55265712738E+03  0.79699280639E+02 0.  0.
         -6    2    1    2    0  502  0.18692287315E+03  0.62690442214E+02 -0.13674179200E+04  0.13924377301E+04  0.17372625677E+03 0.  0.
        -24    2    5    5    0    0  0.15496175303E+03  0.28585006173E+02 -0.65271352837E+03  0.67619115849E+03  0.79807801766E+02 0.  0.
          5    1    3    3  501    0 -0.13896305008E+03 -0.88340967663E+02 -0.10112182217E+04  0.10245483091E+04  0.47000000000E+01 0. -1.
        -13    1    4    4    0    0 -0.61136005819E+02  0.25624853008E+02 -0.52628552568E+03  0.53044386964E+03  0.00000000000E+00 0.  1.
         14    1    4    4    0    0  0.13176182748E+02  0.25672441040E-01 -0.17883410430E+02  0.22213257741E+02  0.00000000000E+00 0. -1.
         -5    1    5    5    0  502  0.31961120127E+02  0.34105436041E+02 -0.71470439163E+03  0.71624657164E+03  0.47000000000E+01 0.  1.
         13    1    6    6    0    0  0.19323613686E+02 -0.23262089521E+02 -0.85700020092E+02  0.90879152167E+02  0.00000000000E+00 0. -1.
        -14    1    6    6    0    0  0.13563813934E+03  0.51847095694E+02 -0.56701350827E+03  0.58531200632E+03  0.00000000000E+00 0.  1.
</event>
<event>
12    1  0.8356052E-002  0.1873949E+03  0.7818608E-02  0.1161317E+00
         21   -1    0    0  503  502  0.00000000000E+00  0.00000000000E+00  0.18765407711E+03  0.18765407711E+03  0.00000000000E+00 0. -1.
         21   -1    0    0  501  503 -0.00000000000E+00 -0.00000000000E+00 -0.55215051039E+03  0.55215051039E+03  0.00000000000E+00 0. -1.
          6    2    1    2  501    0 -0.37662140262E+02  0.64388006898E+02 -0.48351754612E+03  0.51780713672E+03  0.16961945994E+03 0.  0.
         24    2    3    3    0    0 -0.45277310545E+02  0.23945223919E+02 -0.13709351860E+03  0.16891559718E+03  0.84347125215E+02 0.  0.
         -6    2    1    2    0  502  0.37662140262E+02 -0.64388006898E+02  0.11902111284E+03  0.22199745077E+03  0.17190866938E+03 0.  0.
        -24    2    5    5    0    0  0.71809719729E+02 -0.68355161230E+02  0.13261003067E+03  0.18473427613E+03  0.81928436022E+02 0.  0.
          5    1    3    3  501    0  0.76151702827E+01  0.40442782979E+02 -0.34642402753E+03  0.34889153954E+03  0.47000000000E+01 0. -1.
        -11    1    4    4    0    0 -0.65114243007E+02  0.35400349929E+02 -0.90338928319E+02  0.11685106498E+03  0.00000000000E+00 0.  1.
         12    1    4    4    0    0  0.19836932462E+02 -0.11455126010E+02 -0.46754590277E+02  0.52064532201E+02  0.00000000000E+00 0. -1.
         -5    1    5    5    0  502 -0.34147579467E+02  0.39671543320E+01 -0.13588917825E+02  0.37263174645E+02  0.47000000000E+01 0.  1.
         11    1    6    6    0    0  0.47025596466E+02 -0.33365610758E+01  0.17616968462E+02  0.50327894259E+02  0.00000000000E+00 0. -1.
        -12    1    6    6    0    0  0.24784123263E+02 -0.65018600154E+02  0.11499306220E+03  0.13440638187E+03  0.00000000000E+00 0.  1.
</event>
<event>
12    1  0.8356052E-002  0.2587709E+03  0.7818608E-02  0.1108162E+00
         21   -1    0    0  501  502  0.00000000000E+00  0.00000000000E+00  0.70297943490E+03  0.70297943490E+03  0.00000000000E+00 0.  1.
         21   -1    0    0  502  503 -0.00000000000E+00 -0.00000000000E+00 -0.22183721526E+03  0.22183721526E+03  0.00000000000E+00 0. -1.
         -6    2    1    2    0  503  0.12351050333E+03  0.14686404678E+03 -0.10928730678E+03  0.28090230649E+03  0.17360442879E+03 0.  0.
        -24    2    3    3    0    0  0.14104453474E+03  0.14488699541E+03 -0.55852094385E+02  0.22443317410E+03  0.79780893520E+02 0.  0.
          6    2    1    2  501    0 -0.12351050333E+03 -0.14686404678E+03  0.59042952641E+03  0.64391434367E+03  0.17086475254E+03 0.  0.
         24    2    5    5    0    0 -0.68847341042E+02 -0.15814368866E+03  0.52093420118E+03  0.55465639242E+03  0.80758213605E+02 0.  0.
          5    1    5    5  501    0 -0.54663162292E+02  0.11279641877E+02  0.69495325231E+02  0.89257951251E+02  0.47000000000E+01 0. -1.
        -13    1    6    6    0    0 -0.42055179777E+02 -0.14898622993E+02  0.13005528795E+03  0.13749540006E+03  0.00000000000E+00 0.  1.
         14    1    6    6    0    0 -0.26792161264E+02 -0.14324506567E+03  0.39087891323E+03  0.41716099236E+03  0.00000000000E+00 0. -1.
         -5    1    3    3    0  503 -0.17534031402E+02  0.19770513731E+01 -0.53435212392E+02  0.56469132389E+02  0.47000000000E+01 0.  1.
         11    1    4    4    0    0  0.80594343293E+02  0.68054833145E+02 -0.68621956968E+02  0.12584069876E+03  0.00000000000E+00 0. -1.
        -12    1    4    4    0    0  0.60450191443E+02  0.76832162266E+02  0.12769862583E+02  0.98592475344E+02  0.00000000000E+00 0.  1.
</event>
<event>
12    1  0.8356052E-002  0.2065699E+03  0.7818608E-02  0.1144363E+00
         21   -1    0    0  503  502  0.00000000000E+00  0.00000000000E+00  0.80204581995E+03  0.80204581995E+03  0.00000000000E+00 0.  1.
         21   -1    0    0  501  503 -0.00000000000E+00 -0.00000000000E+00 -0.56514272546E+02  0.56514272546E+02  0.00000000000E+00 0.  1.
          6    2    1    2  501    0  0.88047575845E+02  0.73332670229E+02  0.47790891508E+03  0.52064194874E+03  0.17187510448E+03 0.  0.
         24    2    3    3    0    0  0.48566261200E+02  0.11410045025E+03  0.37913689083E+03  0.40662971752E+03  0.78900891659E+02 0.  0.
         -6    2    1    2    0  502 -0.88047575845E+02 -0.73332670229E+02  0.26762263233E+03  0.33791814376E+03  0.17157139159E+03 0.  0.
        -24    2    5    5    0    0 -0.21788146849E+01 -0.83697297161E+02  0.11715646820E+03  0.16430067292E+03  0.79114400045E+02 0.  0.
          5    1    3    3  501    0  0.39481314644E+02 -0.40767780023E+02  0.98772024250E+02  0.11401223122E+03  0.47000000000E+01 0. -1.
        -13    1    4    4    0    0  0.63858327645E+02  0.69820049488E+02  0.30104321128E+03  0.31556257759E+03  0.00000000000E+00 0.  1.
         14    1    4    4    0    0 -0.15292066445E+02  0.44280400764E+02  0.78093679552E+02  0.91067139924E+02  0.00000000000E+00 0. -1.
         -5    1    5    5    0  502 -0.85868761160E+02  0.10364626932E+02  0.15046616413E+03  0.17361747084E+03  0.47000000000E+01 0.  1.
         13    1    6    6    0    0 -0.19925206113E+01  0.71807149179E+01 -0.71431159656E+01  0.10322640690E+02  0.00000000000E+00 0. -1.
        -14    1    6    6    0    0 -0.18629407355E+00 -0.90878012079E+02  0.12429958417E+03  0.15397803223E+03  0.00000000000E+00 0.  1.
</event>
<event>
12    1  0.8356052E-002  0.1814416E+03  0.7818608E-02  0.1166503E+00
         21   -1    0    0  503  502  0.00000000000E+00  0.00000000000E+00  0.93488899945E+03  0.93488899945E+03  0.00000000000E+00 0.  1.
         21   -1    0    0  501  503 -0.00000000000E+00 -0.00000000000E+00 -0.11825206978E+03  0.11825206978E+03  0.00000000000E+00 0.  1.
          6    2    1    2  501    0 -0.57837479096E+02 -0.57065869689E+01 -0.33004392898E+02  0.18441897832E+03  0.17188173403E+03 0.  0.
         24    2    3    3    0    0 -0.67588726497E+02  0.18697120459E+02 -0.78528364572E+02  0.13164446024E+03  0.79030004469E+02 0.  0.
         -6    2    1    2    0  502  0.57837479096E+02  0.57065869689E+01  0.84964132257E+03  0.86872209090E+03  0.17149330913E+03 0.  0.
        -24    2    5    5    0    0  0.74256762823E+02  0.44620809894E+02  0.76519598904E+03  0.77418630942E+03  0.79589299265E+02 0.  0.
          5    1    3    3  501    0  0.97512474008E+01 -0.24403707428E+02  0.45523971674E+02  0.52774518085E+02  0.47000000000E+01 0. -1.
        -11    1    4    4    0    0 -0.75813489725E+02  0.28333294451E+02 -0.38435740539E+02  0.89597806611E+02  0.00000000000E+00 0.  1.
         12    1    4    4    0    0  0.82247632287E+01 -0.96361739926E+01 -0.40092624034E+02  0.42046653628E+02  0.00000000000E+00 0. -1.
         -5    1    5    5    0  502 -0.16419283727E+02 -0.38914222925E+02  0.84445333530E+02  0.94535781475E+02  0.47000000000E+01 0.  1.
         11    1    6    6    0    0  0.34454814178E+02 -0.16421418516E+02  0.15390836471E+03  0.15857043209E+03  0.00000000000E+00 0. -1.
        -12    1    6    6    0    0  0.39801948645E+02  0.61042228411E+02  0.61128762433E+03  0.61561587733E+03  0.00000000000E+00 0.  1.
</event>
<event>
12    1  0.8356052E-002  0.2120574E+03  0.7818608E-02  0.1140076E+00
         21   -1    0    0  503  502  0.00000000000E+00  0.00000000000E+00  0.85240936648E+02  0.85240936648E+02  0.00000000000E+00 0.  1.
         21   -1    0    0  501  503 -0.00000000000E+00 -0.00000000000E+00 -0.52622738165E+03  0.52622738165E+03  0.00000000000E+00 0.  1.
          6    2    1    2  501    0 -0.60407972186E+02  0.10707429727E+03 -0.21265442173E+03  0.29985343088E+03  0.17197717491E+03 0.  0.
         24    2    3    3    0    0 -0.69949100870E+01  0.12155463271E+03 -0.19108092392E+03  0.24027037016E+03  0.79959200781E+02 0.  0.
         -6    2    1    2    0  502  0.60407972186E+02 -0.10707429727E+03 -0.22833202327E+03  0.31161488742E+03  0.17278396040E+03 0.  0.
        -24    2    5    5    0    0  0.38732214498E+02 -0.71231647094E+02 -0.45926894773E+02  0.12440309573E+03  0.82417950576E+02 0.  0.
          5    1    3    3  501    0 -0.53413062099E+02 -0.14480335440E+02 -0.21573497816E+02  0.59583060725E+02  0.47000000000E+01 0. -1.
        -11    1    4    4    0    0 -0.33974857119E+02  0.57183904128E+02 -0.13586875628E+03  0.15127659681E+03  0.00000000000E+00 0.  1.
         12    1    4    4    0    0  0.26979947032E+02  0.64370728583E+02 -0.55212167634E+02  0.88993773350E+02  0.00000000000E+00 0. -1.
         -5    1    5    5    0  502  0.21675757688E+02 -0.35842650177E+02 -0.18240512850E+03  0.18721179169E+03  0.47000000000E+01 0.  1.
         11    1    6    6    0    0 -0.22744520431E+02 -0.38098206637E+02 -0.27403997372E+02  0.52151372279E+02  0.00000000000E+00 0. -1.
        -12    1    6    6    0    0  0.61476734929E+02 -0.33133440456E+02 -0.18522897401E+02  0.72251723455E+02  0.00000000000E+00 0.  1.
</event>
<event>
12    1  0.8356052E-002  0.2629641E+03  0.7818608E-02  0.1105497E+00
         21   -1    0    0  501  502  0.00000000000E+00  0.00000000000E+00  0.25034361312E+03  0.25034361312E+03  0.00000000000E+00 0.  1.
         21   -1    0    0  502  503 -0.00000000000E+00 -0.00000000000E+00 -0.29152713270E+03  0.29152713270E+03  0.00000000000E+00 0.  1.
         -6    2    1    2    0  503  0.17678825250E+03 -0.90865530266E+02 -0.84423858766E+02  0.27618381712E+03  0.17216120962E+03 0.  0.
        -24    2    3    3    0    0  0.59759108585E+02 -0.66882190911E+02 -0.99736519669E+02  0.15565337003E+03  0.78969739303E+02 0.  0.
          6    2    1    2  501    0 -0.17678825250E+03  0.90865530266E+02  0.43240339188E+02  0.26568692871E+03  0.17090695229E+03 0.  0.
         24    2    5    5    0    0 -0.97175798962E+02  0.48222206678E+02 -0.42291888163E+02  0.14121023322E+03  0.79894987576E+02 0.  0.
          5    1    5    5  501    0 -0.79612453538E+02  0.42643323587E+02  0.85532227351E+02  0.12447669549E+03  0.47000000000E+01 0. -1.
        -11    1    6    6    0    0 -0.30314124035E+02  0.68233990020E+01  0.23274094808E+02  0.38822524120E+02  0.00000000000E+00 0.  1.
         12    1    6    6    0    0 -0.66861674926E+02  0.41398807676E+02 -0.65565982970E+02  0.10238770910E+03  0.00000000000E+00 0. -1.
         -5    1    3    3    0  503  0.11702914391E+03 -0.23983339355E+02  0.15312660903E+02  0.12053044709E+03  0.47000000000E+01 0.  1.
         13    1    4    4    0    0  0.29697750366E+02 -0.52023901467E+02 -0.11149828082E+02  0.60932432800E+02  0.00000000000E+00 0. -1.
        -14    1    4    4    0    0  0.30061358219E+02 -0.14858289444E+02 -0.88586691587E+02  0.94720937229E+02  0.00000000000E+00 0.  1.
</event>
<event>
12    1  0.8356052E-002  0.1936101E+03  0.7818608E-02  0.1155650E+00
         21   -1    0    0  501  502  0.00000000000E+00  0.00000000000E+00  0.89169571931E+02  0.89169571931E+02  0.00000000000E+00 0. -1.
         21   -1    0    0  502  503 -0.00000000000E+00 -0.00000000000E+00 -0.57039912793E+03  0.57039912793E+03  0.00000000000E+00 0. -1.
         -6    2    1    2    0  503 -0.84728499671E+02 -0.11427766279E+02 -0.68428927400E+02  0.20361999134E+03  0.17166557683E+03 0.  0.
        -24    2    3    3    0    0 -0.13730490267E+02  0.38737046296E+02  0.70529820435E+01  0.88394844719E+02  0.77941124565E+02 0.  0.
          6    2    1    2  501    0  0.84728499671E+02  0.11427766279E+02 -0.41280062859E+03  0.45594870852E+03  0.17371054468E+03 0.  0.
         24    2    5    5    0    0 -0.27970252574E+01 -0.14546980766E+02 -0.29898530426E+03  0.30996438384E+03  0.80413115144E+02 0.  0.
          5    1    5    5  501    0  0.87525524929E+02  0.25974747045E+02 -0.11381532433E+03  0.14598432468E+03  0.47000000000E+01 0. -1.
        -13    1    6    6    0    0 -0.50703153337E+01  0.25549220031E+01  0.37070922709E+01  0.67807268880E+01  0.00000000000E+00 0.  1.
         14    1    6    6    0    0  0.22732900763E+01 -0.17101902769E+02 -0.30269239653E+03  0.30318365696E+03  0.00000000000E+00 0. -1.
         -5    1    3    3    0  503 -0.70998009405E+02 -0.50164812575E+02 -0.75481909444E+02  0.11522514662E+03  0.47000000000E+01 0.  1.
         13    1    4    4    0    0  0.29025875482E+02  0.23777234232E+02  0.18263593541E+02  0.41730290728E+02  0.00000000000E+00 0. -1.
        -14    1    4    4    0    0 -0.42756365748E+02  0.14959812064E+02 -0.11210611498E+02  0.46664553991E+02  0.00000000000E+00 0.  1.
</event>
<event>
12    1  0.8356052E-002  0.2069685E+03  0.7818608E-02  0.1144070E+00
         21   -1    0    0  501  502  0.00000000000E+00  0.00000000000E+00  0.75835487912E+02  0.75835487912E+02  0.00000000000E+00 0. -1.
         21   -1    0    0  502  503 -0.00000000000E+00 -0.00000000000E+00 -0.67356475787E+03  0.67356475787E+03  0.00000000000E+00 0. -1.
         -6    2    1    2    0  503  0.11272518481E+03 -0.18240679791E+02 -0.44990896661E+03  0.49506421419E+03  0.17213601670E+03 0.  0.
        -24    2    3    3    0    0  0.12211332000E+03 -0.11389468716E+02 -0.20549466873E+03  0.25032861158E+03  0.73450472985E+02 0.  0.
          6    2    1    2  501    0 -0.11272518481E+03  0.18240679791E+02 -0.14782030334E+03  0.25433603159E+03  0.17261600503E+03 0.  0.
         24    2    5    5    0    0  0.79091332941E+01 -0.12088228630E+02 -0.65788945491E+02  0.10525982603E+03  0.80887365931E+02 0.  0.
          5    1    5    5  501    0 -0.12063431811E+03  0.30328908420E+02 -0.82031357852E+02  0.14907620555E+03  0.47000000000E+01 0. -1.
        -13    1    6    6    0    0 -0.25068941587E+02  0.19604796468E+02 -0.10516914509E+02  0.33517239857E+02  0.00000000000E+00 0.  1.
         14    1    6    6    0    0  0.32978074881E+02 -0.31693025098E+02 -0.55272030982E+02  0.71742586178E+02  0.00000000000E+00 0. -1.
         -5    1    3    3    0  503 -0.93881351844E+01 -0.68512110749E+01 -0.24441429788E+03  0.24473560261E+03  0.47000000000E+01 0.  1.
         11    1    4    4    0    0  0.92159834744E+02 -0.19796024226E+02 -0.19650686920E+03  0.21794556054E+03  0.00000000000E+00 0. -1.
        -12    1    4    4    0    0  0.29953485252E+02  0.84065555107E+01 -0.89877995249E+01  0.32383051039E+02  0.00000000000E+00 0.  1.
</event>
<event>
12    1  0.8356052E-002  0.2026878E+03  0.7818608E-02  0.1147789E+00
         21   -1    0    0  501  502  0.00000000000E+00  0.00000000000E+00  0.30448449876E+03  0.30448449876E+03  0.00000000000E+00 0. -1.
         21   -1    0    0  502  503 -0.00000000000E+00 -0.00000000000E+00 -0.21753139398E+03  0.21753139398E+03  0.00000000000E+00 0. -1.
         -6    2    1    2    0  503 -0.10390889073E+03 -0.25733644557E+02 -0.11819424732E+03  0.23463211177E+03  0.17211353735E+03 0.  0.
        -24    2    3    3    0    0 -0.99557469754E+02  0.76875394671E+01 -0.14327555018E+03  0.19235833551E+03  0.80641539629E+02 0.  0.
          6    2    1    2  501    0  0.10390889073E+03  0.25733644557E+02  0.20514735210E+03  0.28738378097E+03  0.17042512566E+03 0.  0.
         24    2    5    5    0    0  0.12419840166E+03  0.12737326038E+02  0.97945047756E+02  0.17740654421E+03  0.79324442012E+02 0.  0.
          5    1    5    5  501    0 -0.20289510925E+02  0.12996318520E+02  0.10720230434E+03  0.10997723676E+03  0.47000000000E+01 0. -1.
        -13    1    6    6    0    0  0.28622430925E+02  0.32990992448E+02  0.75897811924E+01  0.44331184434E+02  0.00000000000E+00 0.  1.
         14    1    6    6    0    0  0.95575970735E+02 -0.20253666410E+02  0.90355266563E+02  0.13307535978E+03  0.00000000000E+00 0. -1.
         -5    1    3    3    0  503 -0.43514209805E+01 -0.33421184024E+02  0.25081302863E+02  0.42273776262E+02  0.47000000000E+01 0.  1.
         11    1    4    4    0    0 -0.12307022641E+01 -0.20444422824E+02 -0.63279465063E+01  0.21436696565E+02  0.00000000000E+00 0. -1.
        -12    1    4    4    0    0 -0.98326767490E+02  0.28131962291E+02 -0.13694760367E+03  0.17092163894E+03  0.00000000000E+00 0.  1.
</event>
<event>
12    1  0.8356052E-002  0.1844974E+03  0.7818608E-02  0.1163582E+00
         21   -1    0    0  501  502  0.00000000000E+00  0.00000000000E+00  0.48152289746E+03  0.48152289746E+03  0.00000000000E+00 0.  1.
         21   -1    0    0  502  503 -0.00000000000E+00 -0.00000000000E+00 -0.71551295879E+02  0.71551295879E+02  0.00000000000E+00 0.  1.
         -6    2    1    2    0  503  0.28916894420E+02  0.63225903527E+02  0.23718020290E+03  0.30048917003E+03  0.17089643353E+03 0.  0.
        -24    2    3    3    0    0 -0.23184733801E+02 -0.68509029785E+01  0.16994792826E+03  0.19018229251E+03  0.81869037572E+02 0.  0.
          6    2    1    2  501    0 -0.28916894420E+02 -0.63225903527E+02  0.17279139868E+03  0.25258502331E+03  0.17061249920E+03 0.  0.
         24    2    5    5    0    0 -0.21011253478E+02  0.17422890746E+02  0.14199521210E+03  0.16576784596E+03  0.81063608354E+02 0.  0.
          5    1    5    5  501    0 -0.79056409418E+01 -0.80648794273E+02  0.30796186584E+02  0.86817177358E+02  0.47000000000E+01 0. -1.
        -13    1    6    6    0    0 -0.19667028748E+02 -0.13618671966E+02  0.13044412779E+03  0.13261949601E+03  0.00000000000E+00 0.  1.
         14    1    6    6    0    0 -0.13442247302E+01  0.31041562711E+02  0.11551084307E+02  0.33148349949E+02  0.00000000000E+00 0. -1.
         -5    1    3    3    0  503  0.52101628221E+02  0.70076806506E+02  0.67232274648E+02  0.11030687752E+03  0.47000000000E+01 0.  1.
         13    1    4    4    0    0 -0.45307170389E+02 -0.20894906647E+02  0.64598590079E+02  0.81623003208E+02  0.00000000000E+00 0. -1.
        -14    1    4    4    0    0  0.22122436588E+02  0.14044003668E+02  0.10534933818E+03  0.10855928930E+03  0.00000000000E+00 0.  1.
</event>
<event>
12    1  0.8356052E-002  0.2089955E+03  0.7818608E-02  0.1142459E+00
         21   -1    0    0  501  502  0.00000000000E+00  0.00000000000E+00  0.51937062198E+02  0.51937062198E+02  0.00000000000E+00 0.  1.
         21   -1    0    0  502  503 -0.00000000000E+00 -0.00000000000E+00 -0.85591888252E+03  0.85591888252E+03  0.00000000000E+00 0.  1.
         -6    2    1    2    0  503  0.30393555445E+01  0.11707787562E+03 -0.46519257115E+03  0.50978901048E+03  0.17252315875E+03 0.  0.
        -24    2    3    3    0    0  0.15948026477E+02 -0.27481004552E+01 -0.12216089038E+03  0.14617146092E+03  0.78618835185E+02 0.  0.
          6    2    1    2  501    0 -0.30393555445E+01 -0.11707787562E+03 -0.33878924917E+03  0.39806693424E+03  0.17309726209E+03 0.  0.
         24    2    5    5    0    0  0.44221464962E+02 -0.79256184387E+02 -0.30573283973E+03  0.32893747824E+03  0.80561867986E+02 0.  0.
          5    1    5    5  501    0 -0.47260820507E+02 -0.37821691229E+02 -0.33056409439E+02  0.69129456004E+02  0.47000000000E+01 0. -1.
        -13    1    6    6    0    0  0.33365782887E+01 -0.49290471582E+02 -0.58538123228E+02  0.76598924369E+02  0.00000000000E+00 0.  1.
         14    1    6    6    0    0  0.40884886674E+02 -0.29965712805E+02 -0.24719471651E+03  0.25233855387E+03  0.00000000000E+00 0. -1.
         -5    1    3    3    0  503 -0.12908670933E+02  0.11982597607E+03 -0.34303168078E+03  0.36361754955E+03  0.47000000000E+01 0.  1.
         11    1    4    4    0    0 -0.14372037565E+02  0.17180338611E+02 -0.42426044880E+01  0.22797350534E+02  0.00000000000E+00 0. -1.
        -12    1    4    4    0    0  0.30320064042E+02 -0.19928439066E+02 -0.11791828589E+03  0.12337411039E+03  0.00000000000E+00 0.  1.
</event>
<event>
12    1  0.8356052E-002  0.1924148E+03  0.7818608E-02  0.1156303E+00
         21   -1    0    0  503  502  0.00000000000E+00  0.00000000000E+00  0.77715014117E+02  0.77715014117E+02  0.00000000000E+00 0.  1.
         21   -1    0    0  501  503 -0.00000000000E+00 -0.00000000000E+00 -0.60256883142E+03  0.60256883142E+03  0.00000000000E+00 0.  1.
          6    2    1    2  501    0 -0.43476957190E+02 -0.75956771207E+02 -0.41808430733E+03  0.46023684943E+03  0.17135866666E+03 0.  0.
         24    2    3    3    0    0 -0.45328927517E+02  0.21538358957E+02 -0.21348564372E+03  0.23354006218E+03  0.80288405087E+02 0.  0.
         -6    2    1    2    0  502  0.43476957190E+02  0.75956771207E+02 -0.10676950998E+03  0.22004699611E+03  0.17135132138E+03 0.  0.
        -24    2    5    5    0    0  0.44475473772E+02 -0.21503729107E+02 -0.47993683015E+02  0.10613372212E+03  0.80749583456E+02 0.  0.
          5    1    3    3  501    0  0.18519703269E+01 -0.97495130164E+02 -0.20459866361E+03  0.22669678725E+03  0.47000000000E+01 0. -1.
        -11    1    4    4    0    0 -0.26761981351E+02 -0.14031152032E+02 -0.17618120780E+03  0.17875372682E+03  0.00000000000E+00 0.  1.
         12    1    4    4    0    0 -0.18566946165E+02  0.35569510990E+02 -0.37304435926E+02  0.54786335355E+02  0.00000000000E+00 0. -1.
         -5    1    5    5    0  502 -0.99851658214E+00  0.97460500314E+02 -0.58775826962E+02  0.11391327399E+03  0.47000000000E+01 0.  1.
         11    1    6    6    0    0  0.63146461069E+02  0.33670520392E+01 -0.36260903065E+02  0.72894894719E+02  0.00000000000E+00 0. -1.
        -12    1    6    6    0    0 -0.18670987297E+02 -0.24870781146E+02 -0.11732779951E+02  0.33238827399E+02  0.00000000000E+00 0.  1.
</event>
<event>
12    1  0.8356052E-002  0.1907791E+03  0.7818608E-02  0.1158038E+00
         21   -1    0    0  501  502  0.00000000000E+00  0.00000000000E+00  0.29509613430E+03  0.29509613430E+03  0.00000000000E+00 0.  1.
         21   -1    0    0  502  503 -0.00000000000E+00 -0.00000000000E+00 -0.15717512029E+03  0.15717512029E+03  0.00000000000E+00 0. -1.
         -6    2    1    2    0  503 -0.53245610407E+02 -0.60181014473E+02 -0.37015143990E+02  0.19433678746E+03  0.17303125886E+03 0.  0.
        -24    2    3    3    0    0  0.10227526846E+01  0.10858476644E+02 -0.58213303607E+02  0.10234158920E+03  0.83462923657E+02 0.  0.
          6    2    1    2  501    0  0.53245610407E+02  0.60181014473E+02  0.17493615800E+03  0.25793446713E+03  0.17167026658E+03 0.  0.
         24    2    5    5    0    0  0.34438810260E+02 -0.62693551991E+01  0.16627849092E+03  0.18817493330E+03  0.80845114342E+02 0.  0.
          5    1    5    5  501    0  0.18806800147E+02  0.66450369672E+02  0.86576670787E+01  0.69759533833E+02  0.47000000000E+01 0. -1.
        -13    1    6    6    0    0 -0.11206578972E+02 -0.32182249087E+02  0.83154881842E+02  0.89866673149E+02  0.00000000000E+00 0.  1.
         14    1    6    6    0    0  0.45645389232E+02  0.25912893888E+02  0.83123609076E+02  0.98308260149E+02  0.00000000000E+00 0. -1.
         -5    1    3    3    0  503 -0.54268363092E+02 -0.71039491117E+02  0.21198159617E+02  0.91995198255E+02  0.47000000000E+01 0.  1.
         13    1    4    4    0    0 -0.20587046397E+02 -0.39145388270E+00 -0.71628620241E+02  0.74529450240E+02  0.00000000000E+00 0. -1.
        -14    1    4    4    0    0  0.21609799082E+02  0.11249930527E+02  0.13415316634E+02  0.27812138961E+02  0.00000000000E+00 0.  1.
</event>
<event>
12    1  0.8356052E-002  0.1995193E+03  0.7818608E-02  0.1150155E+00
         21   -1    0    0  501  502  0.00000000000E+00  0.00000000000E+00  0.10713995397E+04  0.10713995397E+04  0.00000000000E+00 0.  1.
         21   -1    0    0  502  503 -0.00000000000E+00 -0.00000000000E+00 -0.43461700513E+02  0.43461700513E+02  0.00000000000E+00 0.  1.
         -6    2    1    2    0  503 -0.65782774730E+02 -0.74087763023E+02  0.72650022378E+03  0.75339932524E+03  0.17318082469E+03 0.  0.
        -24    2    3    3    0    0  0.27271639003E+02 -0.14367231962E+02  0.34125983811E+03  0.35257778079E+03  0.83082216819E+02 0.  0.
          6    2    1    2  501    0  0.65782774730E+02  0.74087763023E+02  0.30143761542E+03  0.36146191498E+03  0.17312917118E+03 0.  0.
         24    2    5    5    0    0  0.14172553586E+02 -0.27877622956E+02  0.12903676312E+03  0.15456895054E+03  0.79139440840E+02 0.  0.
          5    1    5    5  501    0  0.51610221144E+02  0.10196538598E+03  0.17240085230E+03  0.20689296445E+03  0.47000000000E+01 0. -1.
        -11    1    6    6    0    0  0.25998247120E+02  0.73036467088E+01  0.82929069461E+01  0.28249325906E+02  0.00000000000E+00 0.  1.
         12    1    6    6    0    0 -0.11825693534E+02 -0.35181269665E+02  0.12074385617E+03  0.12631962463E+03  0.00000000000E+00 0. -1.
         -5    1    3    3    0  503 -0.93054413733E+02 -0.59720531061E+02  0.38524038566E+03  0.40082154445E+03  0.47000000000E+01 0.  1.
         13    1    4    4    0    0  0.27651910190E+02 -0.18728588543E+02  0.43772991881E+02  0.55058723053E+02  0.00000000000E+00 0. -1.
        -14    1    4    4    0    0 -0.38027118739E+00  0.43613565807E+01  0.29748684623E+03  0.29751905774E+03  0.00000000000E+00 0.  1.
</event>
<event>
12    1  0.8356052E-002  0.2562828E+03  0.7818608E-02  0.1109918E+00
         21   -1    0    0  503  502  0.00000000000E+00  0.00000000000E+00  0.12780421257E+04  0.12780421257E+04  0.00000000000E+00 0.  1.
         21   -1    0    0  501  503 -0.00000000000E+00 -0.00000000000E+00 -0.51217338983E+02  0.51217338983E+02  0.00000000000E+00 0.  1.
          6    2    1    2  501    0 -0.47756429636E+02  0.18023201976E+03  0.67510851263E+03  0.72092425052E+03  0.17086841033E+03 0.  0.
         24    2    3    3    0    0  0.39733976449E+02  0.69992604449E+02  0.31307075537E+03  0.33246482210E+03  0.77729058317E+02 0.  0.
         -6    2    1    2    0  502  0.47756429636E+02 -0.18023201976E+03  0.55171627412E+03  0.60833521420E+03  0.17583124916E+03 0.  0.
        -24    2    5    5    0    0  0.81229794434E+02 -0.59874106440E+02  0.32270690171E+03  0.34742550548E+03  0.79884600032E+02 0.  0.
          5    1    3    3  501    0 -0.87490406085E+02  0.11023941531E+03  0.36203775726E+03  0.38845942842E+03  0.47000000000E+01 0. -1.
        -11    1    4    4    0    0  0.46958463942E+02  0.15192538668E+02  0.20761914570E+03  0.21340482710E+03  0.00000000000E+00 0.  1.
         12    1    4    4    0    0 -0.72244874931E+01  0.54800065781E+02  0.10545160966E+03  0.11905999500E+03  0.00000000000E+00 0. -1.
         -5    1    5    5    0  502 -0.33473364798E+02 -0.12035791332E+03  0.22900937242E+03  0.26090970872E+03  0.47000000000E+01 0.  1.
         11    1    6    6    0    0 -0.25114627540E+01  0.15444319693E+02  0.30875900126E+02  0.34614385226E+02  0.00000000000E+00 0. -1.
        -12    1    6    6    0    0  0.83741257188E+02 -0.75318426133E+02  0.29183100158E+03  0.31281112025E+03  0.00000000000E+00 0.  1.
</event>
<event>
12    1  0.8356052E-002  0.2123119E+03  0.7818608E-02  0.1141105E+00
         21   -1    0    0  501  502  0.00000000000E+00  0.00000000000E+00  0.96465865408E+02  0.96465865408E+02  0.00000000000E+00 0.  1.
         21   -1    0    0  502  503 -0.00000000000E+00 -0.00000000000E+00 -0.50495737427E+03  0.50495737427E+03  0.00000000000E+00 0.  1.
         -6    2    1    2    0  503 -0.98697001367E+01 -0.11231580731E+03 -0.29829322562E+03  0.36221624194E+03  0.17178331096E+03 0.  0.
        -24    2    3    3    0    0  0.40130013559E+02 -0.98353280463E+02 -0.12520340451E+03  0.18144815931E+03  0.77225360159E+02 0.  0.
          6    2    1    2  501    0  0.98697001367E+01  0.11231580731E+03 -0.11019828324E+03  0.23920699773E+03  0.17990017950E+03 0.  0.
         24    2    5    5    0    0 -0.52745027784E+02  0.10620461715E+03 -0.80796670629E+02  0.16960458670E+03  0.90422094560E+02 0.  0.
          5    1    5    5  501    0  0.62614727920E+02  0.61111901625E+01 -0.29401612614E+02  0.69602411036E+02  0.47000000000E+01 0. -1.
        -13    1    6    6    0    0 -0.15146303301E+01  0.52521377462E+01  0.18332563120E+02  0.19130131376E+02  0.00000000000E+00 0.  1.
         14    1    6    6    0    0 -0.51230397454E+02  0.10095247940E+03 -0.99129233749E+02  0.15047445532E+03  0.00000000000E+00 0. -1.
         -5    1    3    3    0  503 -0.49999713696E+02 -0.13962526848E+02 -0.17308982111E+03  0.18076808263E+03  0.47000000000E+01 0.  1.
         13    1    4    4    0    0  0.11590575275E+02  0.55407176858E+01  0.37740354824E+01  0.13389709911E+02  0.00000000000E+00 0. -1.
        -14    1    4    4    0    0  0.28539438284E+02 -0.10389399815E+03 -0.12897743999E+03  0.16805844940E+03  0.00000000000E+00 0.  1.
</event>
<event>
12    1  0.8356052E-002  0.1842154E+03  0.7818608E-02  0.1163939E+00
         21   -1    0    0  503  502  0.00000000000E+00  0.00000000000E+00  0.29222396113E+03  0.29222396113E+03  0.00000000000E+00 0. -1.
         21   -1    0    0  501  503 -0.00000000000E+00 -0.00000000000E+00 -0.11830391599E+03  0.11830391599E+03  0.00000000000E+00 0. -1.
          6    2    1    2  501    0  0.75742913056E+01 -0.65075322862E+02  0.56433644700E+02  0.19203679563E+03  0.17146780189E+03 0.  0.
         24    2    3    3    0    0  0.33018566096E+02 -0.63353602902E+02 -0.21923680439E+02  0.10949991998E+03  0.80035492147E+02 0.  0.
         -6    2    1    2    0  502 -0.75742913056E+01  0.65075322862E+02  0.11748640045E+03  0.21849108149E+03  0.17217180625E+03 0.  0.
        -24    2    5    5    0    0 -0.58042295186E+02  0.22949711099E+02  0.23308546309E+02  0.10354263743E+03  0.79260281131E+02 0.  0.
          5    1    3    3  501    0 -0.25444274790E+02 -0.17217199599E+01  0.78357325139E+02  0.82536875650E+02  0.47000000000E+01 0. -1.
        -11    1    4    4    0    0  0.30732354352E+01  0.13523999860E+02 -0.23150613046E+02  0.26986927069E+02  0.00000000000E+00 0.  1.
         12    1    4    4    0    0  0.29945330661E+02 -0.76877602762E+02  0.12269326070E+01  0.82512992907E+02  0.00000000000E+00 0. -1.
         -5    1    5    5    0  502  0.50468003881E+02  0.42125611762E+02  0.94177854137E+02  0.11494844406E+03  0.47000000000E+01 0.  1.
         13    1    6    6    0    0 -0.12152366835E+02  0.47052677869E+02  0.63802484555E+01  0.49013692829E+02  0.00000000000E+00 0. -1.
        -14    1    6    6    0    0 -0.45889928351E+02 -0.24102966770E+02  0.16928297853E+02  0.54528944602E+02  0.00000000000E+00 0.  1.
</event>
<event>
12    1  0.8356052E-002  0.1849944E+03  0.7818608E-02  0.1163586E+00
         21   -1    0    0  503  502  0.00000000000E+00  0.00000000000E+00  0.60131918429E+03  0.60131918429E+03  0.00000000000E+00 0.  1.
         21   -1    0    0  501  503 -0.00000000000E+00 -0.00000000000E+00 -0.84891893691E+02  0.84891893691E+02  0.00000000000E+00 0. -1.
          6    2    1    2  501    0 -0.54431966141E+02 -0.42349492022E+02  0.59868953727E+02  0.19444079629E+03  0.17165842021E+03 0.  0.
         24    2    3    3    0    0  0.15526956694E+02  0.26481361673E+02  0.14608722879E+02  0.86262629359E+02  0.79281003649E+02 0.  0.
         -6    2    1    2    0  502  0.54431966141E+02  0.42349492022E+02  0.45655833687E+03  0.49177028169E+03  0.16922226973E+03 0.  0.
        -24    2    5    5    0    0  0.39023823664E+02  0.18209959319E+02  0.11193144998E+03  0.14592362628E+03  0.83129981225E+02 0.  0.
          5    1    3    3  501    0 -0.69958922836E+02 -0.68830853695E+02  0.45260230848E+02  0.10817816693E+03  0.47000000000E+01 0. -1.
        -13    1    4    4    0    0  0.51267189841E+01  0.15199347551E+02  0.47409816968E+02  0.50049916667E+02  0.00000000000E+00 0.  1.
         14    1    4    4    0    0  0.10400237710E+02  0.11282014122E+02 -0.32801094088E+02  0.36212712691E+02  0.00000000000E+00 0. -1.
         -5    1    5    5    0  502  0.15408142478E+02  0.24139532703E+02  0.34462688689E+03  0.34584665541E+03  0.47000000000E+01 0.  1.
         13    1    6    6    0    0 -0.14271046690E+02 -0.12970349263E+02  0.14254012479E+01  0.19337127563E+02  0.00000000000E+00 0. -1.
        -14    1    6    6    0    0  0.53294870354E+02  0.31180308583E+02  0.11050604874E+03  0.12658649871E+03  0.00000000000E+00 0.  1.
</event>
<event>
12    1  0.8356052E-002  0.1878236E+03  0.7818608E-02  0.1160489E+00
         21   -1    0    0  501  502  0.00000000000E+00  0.00000000000E+00  0.72280464108E+03  0.72280464108E+03  0.00000000000E+00 0. -1.
         21   -1    0    0  502  503 -0.00000000000E+00 -0.00000000000E+00 -0.49472333308E+02  0.49472333308E+02  0.00000000000E+00 0.  1.
         -6    2    1    2    0  503 -0.44449864759E+02  0.60228660406E+02  0.29019557165E+03  0.34567493727E+03  0.17226262056E+03 0.  0.
        -24    2    3    3    0    0  0.78811560262E+01  0.56382750409E+02  0.71185248761E+02  0.12041744397E+03  0.78688588791E+02 0.  0.
          6    2    1    2  501    0  0.44449864759E+02 -0.60228660406E+02  0.38313673612E+03  0.42660203712E+03  0.17202400266E+03 0.  0.
         24    2    5    5    0    0  0.63597324690E+02 -0.45180161493E+02  0.12562831224E+03  0.16790190006E+03  0.79515460805E+02 0.  0.
          5    1    5    5  501    0 -0.19147459931E+02 -0.15048498913E+02  0.25750842389E+03  0.25870013706E+03  0.47000000000E+01 0. -1.
        -13    1    6    6    0    0  0.27952658863E+01 -0.48403102290E+02  0.71773044484E+02  0.86614339097E+02  0.00000000000E+00 0.  1.
         14    1    6    6    0    0  0.60802058804E+02  0.32229407969E+01  0.53855267752E+02  0.81287560960E+02  0.00000000000E+00 0. -1.
         -5    1    3    3    0  503 -0.52331020785E+02  0.38459099963E+01  0.21901032289E+03  0.22525749331E+03  0.47000000000E+01 0.  1.
         11    1    4    4    0    0 -0.34199334982E+02  0.13136763115E+02  0.30136031755E+02  0.47437848479E+02  0.00000000000E+00 0. -1.
        -12    1    4    4    0    0  0.42080491008E+02  0.43245987295E+02  0.41049217006E+02  0.72979595486E+02  0.00000000000E+00 0.  1.
</event>
<event>
12    1  0.8356052E-002  0.2827178E+03  0.7818608E-02  0.1094437E+00
         21   -1    0    0  503  502  0.00000000000E+00  0.00000000000E+00  0.10316492214E+04  0.10316492214E+04  0.00000000000E+00 0. -1.
         21   -1    0    0  501  503 -0.00000000000E+00 -0.00000000000E+00 -0.16625487592E+03  0.16625487592E+03  0.00000000000E+00 0. -1.
          6    2    1    2  501    0 -0.74388405759E+02 -0.21311562156E+03 -0.66806049944E+01  0.28114671754E+03  0.16747221630E+03 0.  0.
         24    2    3    3    0    0  0.20156268272E+02 -0.13937685958E+03  0.91009748362E+00  0.16091440420E+03  0.77848783318E+02 0.  0.
         -6    2    1    2    0  502  0.74388405759E+02  0.21311562156E+03  0.87207495046E+03  0.91675737976E+03  0.17022770356E+03 0.  0.
        -24    2    5    5    0    0  0.87374728268E+02  0.84642709630E+02  0.56581834607E+03  0.58435832530E+03  0.80780691789E+02 0.  0.
          5    1    3    3  501    0 -0.94544674030E+02 -0.73738761980E+02 -0.75907024780E+01  0.12023231334E+03  0.47000000000E+01 0. -1.
        -13    1    4    4    0    0  0.16732751185E+02 -0.19622208406E+02  0.28021215945E+02  0.38081551543E+02  0.00000000000E+00 0.  1.
         14    1    4    4    0    0  0.34235170868E+01 -0.11975465118E+03 -0.27111118461E+02  0.12283285266E+03  0.00000000000E+00 0. -1.
         -5    1    5    5    0  502 -0.12986322509E+02  0.12847291193E+03  0.30625660439E+03  0.33239905446E+03  0.47000000000E+01 0.  1.
         11    1    6    6    0    0  0.57107008118E+02  0.62937314738E+02  0.20923932925E+03  0.22583935190E+03  0.00000000000E+00 0. -1.
        -12    1    6    6    0    0  0.30267720150E+02  0.21705394892E+02  0.35657901682E+03  0.35851897340E+03  0.00000000000E+00 0.  1.
</event>
<event>
12    1  0.8356052E-002  0.1919542E+03  0.7818608E-02  0.1156888E+00
         21   -1    0    0  501  502  0.00000000000E+00  0.00000000000E+00  0.68555707586E+02  0.68555707586E+02  0.00000000000E+00 0.  1.
         21   -1    0    0  502  503 -0.00000000000E+00 -0.00000000000E+00 -0.71144610245E+03  0.71144610245E+03  0.00000000000E+00 0.  1.
         -6    2    1    2    0  503 -0.82302427580E+02 -0.16818710511E+02 -0.51603611344E+03  0.55058123423E+03  0.17259741162E+03 0.  0.
        -24    2    3    3    0    0  0.77449764392E+01  0.21969434003E+02 -0.32965323871E+03  0.33993052542E+03  0.79616980812E+02 0.  0.
          6    2    1    2  501    0  0.82302427580E+02  0.16818710511E+02 -0.12685428142E+03  0.22942057580E+03  0.17171264741E+03 0.  0.
         24    2    5    5    0    0  0.53678734841E+02 -0.39228697250E+02 -0.20572370782E+02  0.10581409446E+03  0.79706354101E+02 0.  0.
          5    1    5    5  501    0  0.28623692740E+02  0.56047407761E+02 -0.10628191063E+03  0.12360648135E+03  0.47000000000E+01 0. -1.
        -11    1    6    6    0    0  0.72037060205E+02 -0.17168451844E+02 -0.21457104266E+02  0.77100590823E+02  0.00000000000E+00 0.  1.
         12    1    6    6    0    0 -0.18358325365E+02 -0.22060245407E+02  0.88473348376E+00  0.28713503634E+02  0.00000000000E+00 0. -1.
         -5    1    3    3    0  503 -0.90047404019E+02 -0.38788144514E+02 -0.18638287474E+03  0.21065070881E+03  0.47000000000E+01 0.  1.
         11    1    4    4    0    0 -0.22459272493E+01  0.23218092854E+02 -0.21846800697E+02  0.31959454402E+02  0.00000000000E+00 0. -1.
        -12    1    4    4    0    0  0.99909036885E+01 -0.12486588503E+01 -0.30780643801E+03  0.30797107102E+03  0.00000000000E+00 0.  1.
</event>
<event>
12    1  0.8356052E-002  0.1816771E+03  0.7818608E-02  0.1166259E+00
         21   -1    0    0  501  502  0.00000000000E+00  0.00000000000E+00  0.41514874623E+03  0.41514874623E+03  0.00000000000E+00 0. -1.
         21   -1    0    0  502  503 -0.00000000000E+00 -0.00000000000E+00 -0.92448411548E+02  0.92448411548E+02  0.00000000000E+00 0. -1.
         -6    2    1    2    0  503  0.57584092457E+02  0.93757594795E+01  0.65813736527E+02  0.19295880850E+03  0.17174929780E+03 0.  0.
        -24    2    3    3    0    0  0.98737926516E+02  0.34216095323E+02  0.58339720760E+02  0.14408518316E+03  0.80231525449E+02 0.  0.
          6    2    1    2  501    0 -0.57584092457E+02 -0.93757594795E+01  0.25688659816E+03  0.31463834927E+03  0.17205445055E+03 0.  0.
         24    2    5    5    0    0 -0.33712782870E+02  0.27216619333E+02  0.50716611362E+02  0.10383750710E+03  0.79578622226E+02 0.  0.
          5    1    5    5  501    0 -0.23871309588E+02 -0.36592378812E+02  0.20616998679E+03  0.21080084218E+03  0.47000000000E+01 0. -1.
        -11    1    6    6    0    0  0.11596295249E+02  0.28494533666E+02  0.49758115081E+02  0.58500278023E+02  0.00000000000E+00 0.  1.
         12    1    6    6    0    0 -0.45309078119E+02 -0.12779143334E+01  0.95849628135E+00  0.45337229074E+02  0.00000000000E+00 0. -1.
         -5    1    3    3    0  503 -0.41153834059E+02 -0.24840335844E+02  0.74740157674E+01  0.48873625344E+02  0.47000000000E+01 0.  1.
         13    1    4    4    0    0  0.62171927813E+02  0.47142491523E+02  0.50646593437E+01  0.78188323228E+02  0.00000000000E+00 0. -1.
        -14    1    4    4    0    0  0.36565998703E+02 -0.12926396200E+02  0.53275061416E+02  0.65896859931E+02  0.00000000000E+00 0.  1.
</event>
<event>
12    1  0.8356052E-002  0.1946977E+03  0.7818608E-02  0.1154443E+00
         21   -1    0    0  503  502  0.00000000000E+00  0.00000000000E+00  0.43232259237E+03  0.43232259237E+03  0.00000000000E+00 0. -1.
         21   -1    0    0  501  503 -0.00000000000E+00 -0.00000000000E+00 -0.11992650843E+03  0.11992650843E+03  0.00000000000E+00 0. -1.
          6    2    1    2  501    0 -0.43145881638E+02  0.78803482638E+02  0.12533637340E+02  0.19510066904E+03  0.17272991350E+03 0.  0.
         24    2    3    3    0    0  0.36117962397E+01  0.20139333062E+01  0.53026395739E+02  0.96385579972E+02  0.80382089933E+02 0.  0.
         -6    2    1    2    0  502  0.43145881638E+02 -0.78803482638E+02  0.29986244661E+03  0.35714843176E+03  0.17194754852E+03 0.  0.
        -24    2    5    5    0    0  0.13372333429E+02 -0.11741162835E+03  0.24530095783E+03  0.28382654453E+03  0.80128881798E+02 0.  0.
          5    1    3    3  501    0 -0.46757677877E+02  0.76789549332E+02 -0.40492758399E+02  0.98715089068E+02  0.47000000000E+01 0. -1.
        -13    1    4    4    0    0  0.15245892977E+02 -0.29264696611E+02 -0.85218645380E+00  0.33008876717E+02  0.00000000000E+00 0.  1.
         14    1    4    4    0    0 -0.11634096738E+02  0.31278629917E+02  0.53878582193E+02  0.63376703255E+02  0.00000000000E+00 0. -1.
         -5    1    5    5    0  502  0.29773548209E+02  0.38608145710E+02  0.54561488778E+02  0.73321887222E+02  0.47000000000E+01 0.  1.
         11    1    6    6    0    0  0.33448535439E+00 -0.24890831767E+02  0.14351664329E+03  0.14565950806E+03  0.00000000000E+00 0. -1.
        -12    1    6    6    0    0  0.13037848075E+02 -0.92520796581E+02  0.10178431453E+03  0.13816703647E+03  0.00000000000E+00 0.  1.
</event>
<event>
12    1  0.8356052E-002  0.1732713E+03  0.7818608E-02  0.1174570E+00
         21   -1    0    0  503  502  0.00000000000E+00  0.00000000000E+00  0.12729332840E+03  0.12729332840E+03  0.00000000000E+00 0. -1.
         21   -1    0    0  501  503 -0.00000000000E+00 -0.00000000000E+00 -0.29372533247E+03  0.29372533247E+03  0.00000000000E+00 0. -1.
          6    2    1    2  501    0  0.12125982647E+02 -0.95865329797E+01 -0.17697663099E+03  0.24742677554E+03  0.17222177640E+03 0.  0.
         24    2    3    3    0    0 -0.31644971796E+02  0.46183008245E+02 -0.12966041725E+03  0.16206254261E+03  0.79486913532E+02 0.  0.
         -6    2    1    2    0  502 -0.12125982647E+02  0.95865329797E+01  0.10544626925E+02  0.17359188534E+03  0.17258045205E+03 0.  0.
        -24    2    5    5    0    0 -0.41394266615E+02 -0.36569215555E+02  0.46386723850E+02  0.10806531454E+03  0.80471058283E+02 0.  0.
          5    1    3    3  501    0  0.43770954443E+02 -0.55769541225E+02 -0.47316213740E+02  0.85364232931E+02  0.47000000000E+01 0. -1.
        -11    1    4    4    0    0 -0.14309703510E+01  0.55325932576E+02 -0.11421896621E+03  0.12692115164E+03  0.00000000000E+00 0.  1.
         12    1    4    4    0    0 -0.30214001445E+02 -0.91429243308E+01 -0.15441451043E+02  0.35141390965E+02  0.00000000000E+00 0. -1.
         -5    1    5    5    0  502  0.29268283967E+02  0.46155748534E+02 -0.35842096925E+02  0.65526570803E+02  0.47000000000E+01 0.  1.
         11    1    6    6    0    0 -0.62155587039E-01  0.14898324439E+02  0.38872234299E+02  0.41629491155E+02  0.00000000000E+00 0. -1.
        -12    1    6    6    0    0 -0.41332111028E+02 -0.51467539994E+02  0.75144895515E+01  0.66435823381E+02  0.00000000000E+00 0.  1.
</event>
<event>
12    1  0.8356052E-002  0.2394192E+03  0.7818608E-02  0.1120338E+00
         21   -1    0    0  503  502  0.00000000000E+00  0.00000000000E+00  0.15832260931E+04  0.15832260931E+04  0.00000000000E+00 0. -1.
         21   -1    0    0  501  503 -0.00000000000E+00 -0.00000000000E+00 -0.41723797164E+02  0.41723797164E+02  0.00000000000E+00 0. -1.
          6    2    1    2  501    0  0.16399721551E+03  0.11544780303E+02  0.10686910573E+04  0.10949763053E+04  0.17275463735E+03 0.  0.
         24    2    3    3    0    0  0.39315614343E+01  0.68839479797E+01  0.35349820648E+03  0.36206045697E+03  0.77871346479E+02 0.  0.
         -6    2    1    2    0  502 -0.16399721551E+03 -0.11544780303E+02  0.47281123871E+03  0.52997358497E+03  0.17404931675E+03 0.  0.
        -24    2    5    5    0    0 -0.43454864685E+02  0.41664344250E+02  0.14147523217E+03  0.17336832911E+03  0.80106762333E+02 0.  0.
          5    1    3    3  501    0  0.16006565408E+03  0.46608323232E+01  0.71519285078E+03  0.73291584836E+03  0.47000000000E+01 0. -1.
        -13    1    4    4    0    0  0.15308044232E+02 -0.61526101314E+01  0.12692020665E+02  0.20815336130E+02  0.00000000000E+00 0.  1.
         14    1    4    4    0    0 -0.11376482798E+02  0.13036558111E+02  0.34080618581E+03  0.34124512084E+03  0.00000000000E+00 0. -1.
         -5    1    5    5    0  502 -0.12054235083E+03 -0.53209124553E+02  0.33133600654E+03  0.35660525586E+03  0.47000000000E+01 0.  1.
         11    1    6    6    0    0 -0.29001334625E+02 -0.11901689263E+02  0.13980416251E+02  0.34324621715E+02  0.00000000000E+00 0. -1.
        -12    1    6    6    0    0 -0.14453530061E+02  0.53566033514E+02  0.12749481592E+03  0.13904370739E+03  0.00000000000E+00 0.  1.
</event>
<event>
12    1  0.8356052E-002  0.2806280E+03  0.7818608E-02  0.1095360E+00
         21   -1    0    0  503  502  0.00000000000E+00  0.00000000000E+00  0.53141326611E+03  0.53141326611E+03  0.00000000000E+00 0. -1.
         21   -1    0    0  501  503 -0.00000000000E+00 -0.00000000000E+00 -0.50431407686E+03  0.50431407686E+03  0.00000000000E+00 0.  1.
          6    2    1    2  501    0  0.19299830184E+03  0.10919371874E+03 -0.42165801133E+03  0.50644941854E+03  0.17182526674E+03 0.  0.
         24    2    3    3    0    0  0.45294460324E+02  0.49199309462E+02 -0.81461325120E+02  0.13072128643E+03  0.77330117350E+02 0.  0.
         -6    2    1    2    0  502 -0.19299830184E+03 -0.10919371874E+03  0.44875720058E+03  0.52927792443E+03  0.17198977727E+03 0.  0.
        -24    2    5    5    0    0 -0.19943344577E+03 -0.12962146030E+03  0.36437595615E+03  0.44209427852E+03  0.78115884507E+02 0.  0.
          5    1    3    3  501    0  0.14770384152E+03  0.59994409280E+02 -0.34019668621E+03  0.37572813211E+03  0.47000000000E+01 0. -1.
        -11    1    4    4    0    0  0.13758432245E+02  0.18567811014E+02 -0.83570587770E+02  0.86706984747E+02  0.00000000000E+00 0.  1.
         12    1    4    4    0    0  0.31536028078E+02  0.30631498448E+02  0.21092626506E+01  0.44014301688E+02  0.00000000000E+00 0. -1.
         -5    1    5    5    0  502  0.64351439345E+01  0.20427741555E+02  0.84381244429E+02  0.87183645908E+02  0.47000000000E+01 0.  1.
         13    1    6    6    0    0 -0.13972647825E+03 -0.70323410303E+02  0.17415557667E+03  0.23409193845E+03  0.00000000000E+00 0. -1.
        -14    1    6    6    0    0 -0.59706967524E+02 -0.59298049993E+02  0.19022037948E+03  0.20800234007E+03  0.00000000000E+00 0.  1.
</event>
<event>
12    1  0.8356052E-002  0.2025997E+03  0.7818608E-02  0.1147627E+00
         21   -1    0    0  503  502  0.00000000000E+00  0.00000000000E+00  0.52449947308E+03  0.52449947308E+03  0.00000000000E+00 0. -1.
         21   -1    0    0  501  503 -0.00000000000E+00 -0.00000000000E+00 -0.85859907373E+02  0.85859907373E+02  0.00000000000E+00 0. -1.
          6    2    1    2  501    0 -0.27790509684E+02 -0.10303240088E+03  0.31097338618E+03  0.37114835640E+03  0.17221691986E+03 0.  0.
         24    2    3    3    0    0  0.11770708802E+02 -0.10591478388E+03  0.12523722741E+03  0.18116570242E+03  0.76027347531E+02 0.  0.
         -6    2    1    2    0  502  0.27790509684E+02  0.10303240088E+03  0.12766617953E+03  0.23921102405E+03  0.17185829213E+03 0.  0.
        -24    2    5    5    0    0  0.40643256872E+02  0.12485599024E+03  0.57248306616E+02  0.16422949974E+03  0.80330986216E+02 0.  0.
          5    1    3    3  501    0 -0.39561218486E+02  0.28823830020E+01  0.18573615876E+03  0.18998265398E+03  0.47000000000E+01 0. -1.
        -11    1    4    4    0    0 -0.24432171122E+02 -0.85067282206E+02  0.76611233627E+02  0.11705833847E+03  0.00000000000E+00 0.  1.
         12    1    4    4    0    0  0.36202879924E+02 -0.20847501678E+02  0.48625993787E+02  0.64107363951E+02  0.00000000000E+00 0. -1.
         -5    1    5    5    0  502 -0.12852747189E+02 -0.21823589358E+02  0.70417872913E+02  0.74981524314E+02  0.47000000000E+01 0.  1.
         13    1    6    6    0    0  0.41795977853E+02  0.82262951724E+02  0.74167493856E+02  0.11838460261E+03  0.00000000000E+00 0. -1.
        -14    1    6    6    0    0 -0.11527209807E+01  0.42593038516E+02 -0.16919187240E+02  0.45844897127E+02  0.00000000000E+00 0.  1.
</event>
<event>
12    1  0.8356052E-002  0.1887825E+03  0.7818608E-02  0.1159783E+00
         21   -1    0    0  503  502  0.00000000000E+00  0.00000000000E+00  0.61265690172E+02  0.61265690172E+02  0.00000000000E+00 0.  1.
         21   -1    0    0  501  503 -0.00000000000E+00 -0.00000000000E+00 -0.67649597276E+03  0.67649597276E+03  0.00000000000E+00 0.  1.
          6    2    1    2  501    0 -0.67932239676E+02  0.35470731740E+02 -0.16673294988E+03  0.25115229067E+03  0.17147779604E+03 0.  0.
         24    2    3    3    0    0  0.27988729334E+02  0.10970409711E+02 -0.63954491490E+02  0.10837064064E+03  0.82160208816E+02 0.  0.
         -6    2    1    2    0  502  0.67932239676E+02 -0.35470731740E+02 -0.44849733271E+03  0.48660937227E+03  0.17252785784E+03 0.  0.
        -24    2    5    5    0    0  0.82476997227E+02 -0.16544904105E+02 -0.16388073805E+03  0.20095497814E+03  0.80310759015E+02 0.  0.
          5    1    3    3  501    0 -0.95920969009E+02  0.24500322029E+02 -0.10277845839E+03  0.14278165002E+03  0.47000000000E+01 0. -1.
        -11    1    4    4    0    0  0.91240016851E+01  0.45826678421E+02 -0.43178117441E+02  0.63621393317E+02  0.00000000000E+00 0.  1.
         12    1    4    4    0    0  0.18864727649E+02 -0.34856268710E+02 -0.20776374049E+02  0.44749247326E+02  0.00000000000E+00 0. -1.
         -5    1    5    5    0  502 -0.14544757551E+02 -0.18925827635E+02 -0.28461659466E+03  0.28565439412E+03  0.47000000000E+01 0.  1.
         11    1    6    6    0    0  0.87681289000E+01  0.24150228368E+02 -0.71429333989E+02  0.75909573630E+02  0.00000000000E+00 0. -1.
        -12    1    6    6    0    0  0.73708868327E+02 -0.40695132473E+02 -0.92451404058E+02  0.12504540451E+03  0.00000000000E+00 0.  1.
</event>
<event>
12    1  0.8356052E-002  0.2791704E+03  0.7818608E-02  0.1096424E+00
         21   -1    0    0  503  502  0.00000000000E+00  0.00000000000E+00  0.23137221419E+03  0.23137221419E+03  0.00000000000E+00 0.  1.
         21   -1    0    0  501  503 -0.00000000000E+00 -0.00000000000E+00 -0.33783657883E+03  0.33783657883E+03  0.00000000000E+00 0. -1.
          6    2    1    2  501    0 -0.12998997055E+03  0.17481630746E+03 -0.81813431601E+02  0.28895212685E+03  0.17129436717E+03 0.  0.
         24    2    3    3    0    0 -0.70988642899E+02  0.10867184213E+03  0.19748511050E+02  0.15407008522E+03  0.80614085491E+02 0.  0.
         -6    2    1    2    0  502  0.12998997055E+03 -0.17481630746E+03 -0.24650933037E+02  0.28025666616E+03  0.17457948514E+03 0.  0.
        -24    2    5    5    0    0  0.12620966409E+03 -0.17724911526E+03 -0.63989274941E+02  0.24038431466E+03  0.79648372590E+02 0.  0.
          5    1    3    3  501    0 -0.59001327651E+02  0.66144465336E+02 -0.10156194265E+03  0.13488204163E+03  0.47000000000E+01 0. -1.
        -11    1    4    4    0    0 -0.76498488029E+02  0.97477512843E+02 -0.74621682317E+01  0.12413528159E+03  0.00000000000E+00 0.  1.
         12    1    4    4    0    0  0.55098451303E+01  0.11194329285E+02  0.27210679282E+02  0.29934803632E+02  0.00000000000E+00 0. -1.
         -5    1    5    5    0  502  0.37803064587E+01  0.24328077947E+01  0.39338341905E+02  0.39872351505E+02  0.47000000000E+01 0.  1.
         13    1    6    6    0    0  0.68968886230E+02 -0.44642282225E+02  0.61969470014E+00  0.82158533651E+02  0.00000000000E+00 0. -1.
        -14    1    6    6    0    0  0.57240777861E+02 -0.13260683303E+03 -0.64608969642E+02  0.15822578101E+03  0.00000000000E+00 0.  1.
</event>
<event>
12    1  0.8356052E-002  0.1879493E+03  0.7818608E-02  0.1161357E+00
         21   -1    0    0  503  502  0.00000000000E+00  0.00000000000E+00  0.24602961109E+03  0.24602961109E+03  0.00000000000E+00 0. -1.
         21   -1    0    0  501  503 -0.00000000000E+00 -0.00000000000E+00 -0.78647889977E+03  0.78647889977E+03  0.00000000000E+00 0. -1.
          6    2    1    2  501    0 -0.53262725231E+02 -0.36992249464E+02 -0.73878141275E+03  0.76231418298E+03  0.17640746391E+03 0.  0.
         24    2    3    3    0    0 -0.95057647505E+02 -0.25885031384E+02 -0.66101284294E+03  0.67320623568E+03  0.81010283455E+02 0.  0.
         -6    2    1    2    0  502  0.53262725231E+02  0.36992249464E+02  0.19833212408E+03  0.27019432788E+03  0.17165080529E+03 0.  0.
        -24    2    5    5    0    0 -0.17205138541E+02 -0.15853632429E+01  0.34993842465E+02  0.88107984988E+02  0.78993150585E+02 0.  0.
          5    1    3    3  501    0  0.41794922274E+02 -0.11107218080E+02 -0.77768569812E+02  0.89107947299E+02  0.47000000000E+01 0. -1.
        -13    1    4    4    0    0 -0.53829374816E+02 -0.30065972717E+02 -0.17716999363E+03  0.18759203329E+03  0.00000000000E+00 0.  1.
         14    1    4    4    0    0 -0.41228272689E+02  0.41809413336E+01 -0.48384284931E+03  0.48561420239E+03  0.00000000000E+00 0. -1.
         -5    1    5    5    0  502  0.70467863772E+02  0.38577612707E+02  0.16333828161E+03  0.18208634289E+03  0.47000000000E+01 0.  1.
         11    1    6    6    0    0 -0.93412894565E+01  0.15903887766E+02  0.56417427717E+02  0.59355871529E+02  0.00000000000E+00 0. -1.
        -12    1    6    6    0    0 -0.78638490842E+01 -0.17489251009E+02 -0.21423585252E+02  0.28752113458E+02  0.00000000000E+00 0.  1.
</event>
<event>
12    1  0.8356052E-002  0.2139861E+03  0.7818608E-02  0.1139053E+00
         21   -1    0    0  501  502  0.00000000000E+00  0.00000000000E+00  0.16650868840E+03  0.16650868840E+03  0.00000000000E+00 0.  1.
         21   -1    0    0  502  503 -0.00000000000E+00 -0.00000000000E+00 -0.27448550531E+03  0.27448550531E+03  0.00000000000E+00 0.  1.
         -6    2    1    2    0  503  0.71793960597E+02 -0.10373694529E+03 -0.78381564313E+02  0.22497118729E+03  0.16897526118E+03 0.  0.
        -24    2    3    3    0    0  0.33006049815E+02 -0.10765536325E+02 -0.95426435544E+02  0.12269312247E+03  0.68862918931E+02 0.  0.
          6    2    1    2  501    0 -0.71793960597E+02  0.10373694529E+03 -0.29595252591E+02  0.21602300642E+03  0.17284193279E+03 0.  0.
         24    2    5    5    0    0 -0.49712076539E+02  0.14078686213E+03 -0.13038847258E+02  0.16958476250E+03  0.79352057499E+02 0.  0.
          5    1    5    5  501    0 -0.22081884058E+02 -0.37049916841E+02 -0.16556405333E+02  0.46438243927E+02  0.47000000000E+01 0. -1.
        -11    1    6    6    0    0  0.18034054213E-03  0.49718771352E+02  0.29091097951E+02  0.57604237733E+02  0.00000000000E+00 0.  1.
         12    1    6    6    0    0 -0.49712256880E+02  0.91068090782E+02 -0.42129945209E+02  0.11198052476E+03  0.00000000000E+00 0. -1.
         -5    1    3    3    0  503  0.38787910783E+02 -0.92971408968E+02  0.17044871232E+02  0.10227806482E+03  0.47000000000E+01 0.  1.
         11    1    4    4    0    0 -0.12121200811E+02  0.16863830604E+02 -0.12248129091E+02  0.24110764359E+02  0.00000000000E+00 0. -1.
        -12    1    4    4    0    0  0.45127250626E+02 -0.27629366930E+02 -0.83178306454E+02  0.98582358110E+02  0.00000000000E+00 0.  1.
</event>
<event>
12    1  0.8356052E-002  0.2163357E+03  0.7818608E-02  0.1136839E+00
         21   -1    0    0  501  502  0.00000000000E+00  0.00000000000E+00  0.68836881565E+03  0.68836881565E+03  0.00000000000E+00 0.  1.
         21   -1    0    0  502  503 -0.00000000000E+00 -0.00000000000E+00 -0.89692043227E+02  0.89692043227E+02  0.00000000000E+00 0.  1.
         -6    2    1    2    0  503 -0.12911301466E+02 -0.13090844934E+03  0.10710113111E+03  0.24139552673E+03  0.17174814184E+03 0.  0.
        -24    2    3    3    0    0  0.31268210465E+02  0.90812520581E+00  0.35619100791E+02  0.85001123828E+02  0.70554553601E+02 0.  0.
          6    2    1    2  501    0  0.12911301466E+02  0.13090844934E+03  0.49157564131E+03  0.53666533215E+03  0.17046801396E+03 0.  0.
         24    2    5    5    0    0 -0.12286875314E+02  0.15930649399E+02  0.10520599732E+03  0.13273658300E+03  0.78396082161E+02 0.  0.
          5    1    5    5  501    0  0.25198176781E+02  0.11497779994E+03  0.38636964399E+03  0.40392874915E+03  0.47000000000E+01 0. -1.
        -13    1    6    6    0    0 -0.18897574141E+02 -0.19860290220E+02  0.88575206097E+02  0.92720637246E+02  0.00000000000E+00 0.  1.
         14    1    6    6    0    0  0.66106988266E+01  0.35790939619E+02  0.16630791227E+02  0.40015945755E+02  0.00000000000E+00 0. -1.
         -5    1    3    3    0  503 -0.44179511931E+02 -0.13181657455E+03  0.71482030320E+02  0.15639440290E+03  0.47000000000E+01 0.  1.
         11    1    4    4    0    0  0.38908543098E+02 -0.23887790133E+02  0.37363761191E+02  0.58996202368E+02  0.00000000000E+00 0. -1.
        -12    1    4    4    0    0 -0.76403326339E+01  0.24795915339E+02 -0.17446603993E+01  0.26004921461E+02  0.00000000000E+00 0.  1.
</event>
<event>
12    1  0.8356052E-002  0.1832063E+03  0.7818608E-02  0.1164831E+00
         21   -1    0    0  503  502  0.00000000000E+00  0.00000000000E+00  0.24292307415E+03  0.24292307415E+03  0.00000000000E+00 0. -1.
         21   -1    0    0  501  503 -0.00000000000E+00 -0.00000000000E+00 -0.22663624523E+03  0.22663624523E+03  0.00000000000E+00 0. -1.
          6    2    1    2  501    0  0.44674824953E+02 -0.45028544364E+02 -0.13879788851E+03  0.22952640561E+03  0.17144709746E+03 0.  0.
         24    2    3    3    0    0  0.39239551487E+02 -0.10127300028E+02 -0.16305840714E+03  0.18641838063E+03  0.80755581178E+02 0.  0.
         -6    2    1    2    0  502 -0.44674824953E+02  0.45028544364E+02  0.15508471742E+03  0.24003291377E+03  0.17187530457E+03 0.  0.
        -24    2    5    5    0    0  0.15264100725E+02  0.68117930178E+02  0.56420207807E+02  0.12220859537E+03  0.82937661831E+02 0.  0.
          5    1    3    3  501    0  0.54352734664E+01 -0.34901244336E+02  0.24260518631E+02  0.43108024985E+02  0.47000000000E+01 0. -1.
        -13    1    4    4    0    0  0.14992312572E+02  0.33250116633E+02 -0.42414049960E+02  0.55940069060E+02  0.00000000000E+00 0.  1.
         14    1    4    4    0    0  0.24247238915E+02 -0.43377416661E+02 -0.12064435718E+03  0.13047831157E+03  0.00000000000E+00 0. -1.
         -5    1    5    5    0  502 -0.59938925678E+02 -0.23089385814E+02  0.98664509614E+02  0.11782431840E+03  0.47000000000E+01 0.  1.
         11    1    6    6    0    0  0.27626354449E+02  0.43569456275E+02  0.73537198001E+02  0.89828906651E+02  0.00000000000E+00 0. -1.
        -12    1    6    6    0    0 -0.12362253724E+02  0.24548473902E+02 -0.17116990193E+02  0.32379688716E+02  0.00000000000E+00 0.  1.
</event>
<event>
12    1  0.8356052E-002  0.3318218E+03  0.7818608E-02  0.1070456E+00
         21   -1    0    0  501  502  0.00000000000E+00  0.00000000000E+00  0.47681560619E+03  0.47681560619E+03  0.00000000000E+00 0. -1.
         21   -1    0    0  502  503 -0.00000000000E+00 -0.00000000000E+00 -0.42717446296E+03  0.42717446296E+03  0.00000000000E+00 0.  1.
         -6    2    1    2    0  503 -0.73565230981E+01 -0.28288575340E+03 -0.28212642039E+03  0.43554682242E+03  0.17328372553E+03 0.  0.
        -24    2    3    3    0    0  0.34765302493E+02 -0.27444935039E+03 -0.23550985994E+03  0.37198099201E+03  0.79836658918E+02 0.  0.
          6    2    1    2  501    0  0.73565230981E+01  0.28288575340E+03  0.33176756362E+03  0.46844324673E+03  0.17114581862E+03 0.  0.
         24    2    5    5    0    0  0.69402086320E+02  0.20047032576E+03  0.20022905753E+03  0.30121160136E+03  0.75045001298E+02 0.  0.
          5    1    5    5  501    0 -0.62045563222E+02  0.82415427635E+02  0.13153850609E+03  0.16723164537E+03  0.47000000000E+01 0. -1.
        -13    1    6    6    0    0  0.61254074083E+02  0.14499782823E+03  0.18541798706E+03  0.24322060297E+03  0.00000000000E+00 0.  1.
         14    1    6    6    0    0  0.81480122365E+01  0.55472497533E+02  0.14811070462E+02  0.57990998389E+02  0.00000000000E+00 0. -1.
         -5    1    3    3    0  503 -0.42121825591E+02 -0.84364030094E+01 -0.46616560449E+02  0.63565830404E+02  0.47000000000E+01 0.  1.
         11    1    4    4    0    0 -0.11918422419E+02 -0.13077692851E+02 -0.35167113078E+02  0.39367507992E+02  0.00000000000E+00 0. -1.
        -12    1    4    4    0    0  0.46683724911E+02 -0.26137165754E+03 -0.20034274686E+03  0.33261348402E+03  0.00000000000E+00 0.  1.
</event>
<event>
12    1  0.8356052E-002  0.1798927E+03  0.7818608E-02  0.1168507E+00
         21   -1    0    0  501  502  0.00000000000E+00  0.00000000000E+00  0.13091103850E+04  0.13091103850E+04  0.00000000000E+00 0.  1.
         21   -1    0    0  502  503 -0.00000000000E+00 -0.00000000000E+00 -0.64200877221E+02  0.64200877221E+02  0.00000000000E+00 0.  1.
         -6    2    1    2    0  503 -0.36334846938E+00  0.41559079780E+02  0.80072408452E+02  0.19466506037E+03  0.17249813333E+03 0.  0.
        -24    2    3    3    0    0 -0.47937128519E+02 -0.39767142432E+01  0.87622938701E+02  0.12821302058E+03  0.80293316741E+02 0.  0.
          6    2    1    2  501    0  0.36334846938E+00 -0.41559079780E+02  0.11648370993E+04  0.11786462018E+04  0.17502603242E+03 0.  0.
         24    2    5    5    0    0  0.21603015187E+02 -0.72693779186E+02  0.10800077002E+04  0.10857020794E+04  0.81125192247E+02 0.  0.
          5    1    5    5  501    0 -0.21239666717E+02  0.31134699405E+02  0.84829399067E+02  0.92944122436E+02  0.47000000000E+01 0. -1.
        -13    1    6    6    0    0 -0.15199210860E+02 -0.54342265662E+02  0.34844676927E+03  0.35298618792E+03  0.00000000000E+00 0.  1.
         14    1    6    6    0    0  0.36802226047E+02 -0.18351513524E+02  0.73156093096E+03  0.73271589146E+03  0.00000000000E+00 0. -1.
         -5    1    3    3    0  503  0.47573780050E+02  0.45535794024E+02 -0.75505302490E+01  0.66452039793E+02  0.47000000000E+01 0.  1.
         11    1    4    4    0    0  0.43918361126E+01 -0.15150741882E+02  0.70183106116E+02  0.71934008564E+02  0.00000000000E+00 0. -1.
        -12    1    4    4    0    0 -0.52328964632E+02  0.11174027639E+02  0.17439832585E+02  0.56279012018E+02  0.00000000000E+00 0.  1.
</event>
<event>
12    1  0.8356052E-002  0.2172411E+03  0.7818608E-02  0.1136714E+00
         21   -1    0    0  501  502  0.00000000000E+00  0.00000000000E+00  0.74513179913E+02  0.74513179913E+02  0.00000000000E+00 0. -1.
         21   -1    0    0  502  503 -0.00000000000E+00 -0.00000000000E+00 -0.89649820756E+03  0.89649820756E+03  0.00000000000E+00 0.  1.
         -6    2    1    2    0  503 -0.10430281542E+03  0.81853407555E+02 -0.67707624697E+03  0.70987494358E+03  0.16706625538E+03 0.  0.
        -24    2    3    3    0    0 -0.27141032514E+02  0.16669574568E+02 -0.14590786106E+03  0.16916724343E+03  0.79460316930E+02 0.  0.
          6    2    1    2  501    0  0.10430281542E+03 -0.81853407555E+02 -0.14490878068E+03  0.26113644389E+03  0.17208901759E+03 0.  0.
         24    2    5    5    0    0  0.30872088696E+02  0.24498468604E+02 -0.44865775195E+02  0.97632663698E+02  0.77239487391E+02 0.  0.
          5    1    5    5  501    0  0.73430726729E+02 -0.10635187616E+03 -0.10004300549E+03  0.16350378019E+03  0.47000000000E+01 0. -1.
        -13    1    6    6    0    0  0.45081357178E+02 -0.12363088238E+02 -0.29311165778E+02  0.55175349161E+02  0.00000000000E+00 0.  1.
         14    1    6    6    0    0 -0.14209268482E+02  0.36861556842E+02 -0.15554609417E+02  0.42457314537E+02  0.00000000000E+00 0. -1.
         -5    1    3    3    0  503 -0.77161782910E+02  0.65183832986E+02 -0.53116838590E+03  0.54070770016E+03  0.47000000000E+01 0.  1.
         13    1    4    4    0    0 -0.46387488361E+02  0.34138317209E+02 -0.82279248692E+02  0.10043454856E+03  0.00000000000E+00 0. -1.
        -14    1    4    4    0    0  0.19246455846E+02 -0.17468742640E+02 -0.63628612370E+02  0.68732694871E+02  0.00000000000E+00 0.  1.
</event>
<event>
12    1  0.8356052E-002  0.2437105E+03  0.7818608E-02  0.1119220E+00
         21   -1    0    0  501  502  0.00000000000E+00  0.00000000000E+00  0.15164993829E+03  0.15164993829E+03  0.00000000000E+00 0. -1.
         21   -1    0    0  502  503 -0.00000000000E+00 -0.00000000000E+00 -0.67299578785E+03  0.67299578785E+03  0.00000000000E+00 0.  1.
         -6    2    1    2    0  503  0.27007876807E+02  0.15468446118E+03 -0.53892260037E+03  0.59146628947E+03  0.18638158293E+03 0.  0.
        -24    2    3    3    0    0  0.73333973874E+02  0.13261116576E+03 -0.49036635023E+03  0.52066277920E+03  0.87561288218E+02 0.  0.
          6    2    1    2  501    0 -0.27007876807E+02 -0.15468446118E+03  0.17576750809E+02  0.23317943668E+03  0.17148469197E+03 0.  0.
         24    2    5    5    0    0  0.37815976491E+02 -0.10074713771E+03 -0.28637083407E+02  0.13690288038E+03  0.79638447220E+02 0.  0.
          5    1    5    5  501    0 -0.64823853298E+02 -0.53937323473E+02  0.46213834216E+02  0.96276556299E+02  0.47000000000E+01 0. -1.
        -11    1    6    6    0    0  0.33586781212E+01 -0.10185329969E+02 -0.38067587484E+02  0.39549499139E+02  0.00000000000E+00 0.  1.
         12    1    6    6    0    0  0.34457298369E+02 -0.90561807736E+02  0.94305040765E+01  0.97353381238E+02  0.00000000000E+00 0. -1.
         -5    1    3    3    0  503 -0.46326097066E+02  0.22073295414E+02 -0.48556250138E+02  0.70803510275E+02  0.47000000000E+01 0.  1.
         11    1    4    4    0    0  0.16150291737E+02  0.14605372549E+02 -0.12449894754E+02  0.25082836958E+02  0.00000000000E+00 0. -1.
        -12    1    4    4    0    0  0.57183682137E+02  0.11800579322E+03 -0.47791645547E+03  0.49557994224E+03  0.00000000000E+00 0.  1.
</event>
<event>
12    1  0.8356052E-002  0.1735356E+03  0.7818608E-02  0.1175982E+00
         21   -1    0    0  501  502  0.00000000000E+00  0.00000000000E+00  0.67399610768E+03  0.67399610768E+03  0.00000000000E+00 0. -1.
         21   -1    0    0  502  503 -0.00000000000E+00 -0.00000000000E+00 -0.57664440730E+02  0.57664440730E+02  0.00000000000E+00 0. -1.
         -6    2    1    2    0  503 -0.16352258379E+02 -0.14573070472E+02  0.11871416896E+03  0.20465221277E+03  0.16525647806E+03 0.  0.
        -24    2    3    3    0    0  0.46095274964E+02 -0.23318892715E+02  0.33609807596E+02  0.98628507161E+02  0.77002715060E+02 0.  0.
          6    2    1    2  501    0  0.16352258379E+02  0.14573070472E+02  0.49761749799E+03  0.52700833564E+03  0.17214772957E+03 0.  0.
         24    2    5    5    0    0  0.74571189571E+02 -0.30666422681E+01  0.26628504287E+03  0.28776494868E+03  0.79565539165E+02 0.  0.
          5    1    5    5  501    0 -0.58218931192E+02  0.17639712740E+02  0.23133245512E+03  0.23924338696E+03  0.47000000000E+01 0. -1.
        -11    1    6    6    0    0  0.36944178065E+02  0.36434349726E+02  0.16147842228E+03  0.16961018541E+03  0.00000000000E+00 0.  1.
         12    1    6    6    0    0  0.37627011506E+02 -0.39500991994E+02  0.10480662059E+03  0.11815476327E+03  0.00000000000E+00 0. -1.
         -5    1    3    3    0  503 -0.62447533343E+02  0.87458222434E+01  0.85104361367E+02  0.10602370561E+03  0.47000000000E+01 0.  1.
         13    1    4    4    0    0  0.20153624771E+02 -0.47321008365E+02  0.24184770527E+01  0.51490731742E+02  0.00000000000E+00 0. -1.
        -14    1    4    4    0    0  0.25941650193E+02  0.24002115650E+02  0.31191330543E+02  0.47137775419E+02  0.00000000000E+00 0.  1.
</event>
<event>
12    1  0.8356052E-002  0.2232832E+03  0.7818608E-02  0.1131554E+00
         21   -1    0    0  503  502  0.00000000000E+00  0.00000000000E+00  0.13039463870E+03  0.13039463870E+03  0.00000000000E+00 0.  1.
         21   -1    0    0  501  503 -0.00000000000E+00 -0.00000000000E+00 -0.48642030659E+03  0.48642030659E+03  0.00000000000E+00 0.  1.
          6    2    1    2  501    0 -0.13144054946E+03  0.53338890276E+02 -0.32144708273E+03  0.39138677668E+03  0.17243470273E+03 0.  0.
         24    2    3    3    0    0 -0.86566348662E+02 -0.33671124033E+02 -0.14619836243E+03  0.19059175569E+03  0.79522190898E+02 0.  0.
         -6    2    1    2    0  502  0.13144054946E+03 -0.53338890276E+02 -0.34578585164E+02  0.22542816861E+03  0.17175716985E+03 0.  0.
        -24    2    5    5    0    0  0.64815040416E+02 -0.54963450292E+02 -0.83504640096E+02  0.14261846808E+03  0.78390255700E+02 0.  0.
          5    1    3    3  501    0 -0.44874200799E+02  0.87010014309E+02 -0.17524872029E+03  0.20079502098E+03  0.47000000000E+01 0. -1.
        -13    1    4    4    0    0 -0.36999437717E+02 -0.39375423343E+02 -0.25018997553E+02  0.59542695550E+02  0.00000000000E+00 0.  1.
         14    1    4    4    0    0 -0.49566910944E+02  0.57042993096E+01 -0.12117936488E+03  0.13104906014E+03  0.00000000000E+00 0. -1.
         -5    1    5    5    0  502  0.66625509044E+02  0.16245600155E+01  0.48926054931E+02  0.82809700530E+02  0.47000000000E+01 0.  1.
         11    1    6    6    0    0  0.82736455082E+02 -0.49865069124E+02 -0.74091617800E+02  0.12174322957E+03  0.00000000000E+00 0. -1.
        -12    1    6    6    0    0 -0.17921414666E+02 -0.50983811672E+01 -0.94130222957E+01  0.20875238511E+02  0.00000000000E+00 0.  1.
</event>
<event>
12    1  0.8356052E-002  0.2578644E+03  0.7818608E-02  0.1108461E+00
         21   -1    0    0  503  502  0.00000000000E+00  0.00000000000E+00  0.75696120052E+03  0.75696120052E+03  0.00000000000E+00 0. -1.
         21   -1    0    0  501  503 -0.00000000000E+00 -0.00000000000E+00 -0.15083481114E+03  0.15083481114E+03  0.00000000000E+00 0.  1.
          6    2    1    2  501    0  0.17671943777E+03  0.76325072311E+02  0.96567055176E+01  0.25804514451E+03  0.17157729540E+03 0.  0.
         24    2    3    3    0    0  0.55660607279E+01  0.22526688932E+02 -0.19195947364E+01  0.78201197562E+02  0.74654602738E+02 0.  0.
         -6    2    1    2    0  502 -0.17671943777E+03 -0.76325072311E+02  0.59646968386E+03  0.64975086715E+03  0.17130332529E+03 0.  0.
        -24    2    5    5    0    0 -0.50889876491E+02 -0.27176866414E+02  0.12656614672E+03  0.16079274129E+03  0.80665696289E+02 0.  0.
          5    1    3    3  501    0  0.17115337704E+03  0.53798383379E+02  0.11576300254E+02  0.17984394695E+03  0.47000000000E+01 0. -1.
        -11    1    4    4    0    0  0.30363886776E+02  0.34937812784E+02  0.11048113317E+02  0.47588624588E+02  0.00000000000E+00 0.  1.
         12    1    4    4    0    0 -0.24797826048E+02 -0.12411123852E+02 -0.12967708053E+02  0.30612572975E+02  0.00000000000E+00 0. -1.
         -5    1    5    5    0  502 -0.12582956128E+03 -0.49148205897E+02  0.46990353714E+03  0.48895812587E+03  0.47000000000E+01 0.  1.
         11    1    6    6    0    0 -0.43241511383E+02  0.22298429894E+02  0.70102745572E+02  0.85331373006E+02  0.00000000000E+00 0. -1.
        -12    1    6    6    0    0 -0.76483651079E+01 -0.49475296308E+02  0.56463401147E+02  0.75461368280E+02  0.00000000000E+00 0.  1.
</event>
<event>
12    1  0.8356052E-002  0.1977518E+03  0.7818608E-02  0.1152033E+00
         21   -1    0    0  503  502  0.00000000000E+00  0.00000000000E+00  0.91619807713E+03  0.91619807713E+03  0.00000000000E+00 0.  1.
         21   -1    0    0  501  503 -0.00000000000E+00 -0.00000000000E+00 -0.14191339390E+03  0.14191339390E+03  0.00000000000E+00 0.  1.
          6    2    1    2  501    0  0.61290938070E+02  0.74136196035E+02 -0.55586490508E+02  0.20541572374E+03  0.17278022740E+03 0.  0.
         24    2    3    3    0    0  0.10856109756E+03  0.47853569794E+02 -0.28056814515E+02  0.14454522612E+03  0.77657333883E+02 0.  0.
         -6    2    1    2    0  502 -0.61290938070E+02 -0.74136196035E+02  0.82987117374E+03  0.85269574729E+03  0.17073698424E+03 0.  0.
        -24    2    5    5    0    0 -0.17514032480E+02  0.26105823494E+02  0.28498712925E+03  0.29692098007E+03  0.77176092220E+02 0.  0.
          5    1    3    3  501    0 -0.47270159495E+02  0.26282626241E+02 -0.27529675993E+02  0.60870497625E+02  0.47000000000E+01 0. -1.
        -13    1    4    4    0    0  0.48948875158E+02  0.62775772419E+02 -0.84984188434E+01  0.80056312087E+02  0.00000000000E+00 0.  1.
         14    1    4    4    0    0  0.59612222407E+02 -0.14922202626E+02 -0.19558395671E+02  0.64488914030E+02  0.00000000000E+00 0. -1.
         -5    1    5    5    0  502 -0.43776905590E+02 -0.10024201953E+03  0.54488404449E+03  0.55577476722E+03  0.47000000000E+01 0.  1.
         13    1    6    6    0    0 -0.31344342854E+02 -0.53535025606E+00  0.43742091824E+02  0.53815657814E+02  0.00000000000E+00 0. -1.
        -14    1    6    6    0    0  0.13830310374E+02  0.26641173750E+02  0.24124503743E+03  0.24310532225E+03  0.00000000000E+00 0.  1.
</event>
<event>
12    1  0.8356052E-002  0.1926550E+03  0.7818608E-02  0.1160408E+00
         21   -1    0    0  503  502  0.00000000000E+00  0.00000000000E+00  0.54260575471E+03  0.54260575471E+03  0.00000000000E+00 0. -1.
         21   -1    0    0  501  503 -0.00000000000E+00 -0.00000000000E+00 -0.24456211555E+03  0.24456211555E+03  0.00000000000E+00 0. -1.
          6    2    1    2  501    0  0.79326648349E+02 -0.23971399118E+02 -0.18902144902E+03  0.26989825567E+03  0.17392128998E+03 0.  0.
         24    2    3    3    0    0 -0.25710312967E+02 -0.25743312906E+02 -0.86837282428E+02  0.12327084751E+03  0.79569151526E+02 0.  0.
         -6    2    1    2    0  502 -0.79326648349E+02  0.23971399118E+02  0.48706508818E+03  0.51726961458E+03  0.15319304467E+03 0.  0.
        -24    2    5    5    0    0 -0.77666126493E+02 -0.30864867736E+02  0.28239074203E+03  0.30531808364E+03  0.80560125073E+02 0.  0.
          5    1    3    3  501    0  0.10503696132E+03  0.17719137881E+01 -0.10218416659E+03  0.14662740816E+03  0.47000000000E+01 0. -1.
        -11    1    4    4    0    0 -0.21856973579E+02 -0.94602072709E+01  0.93891806356E+01  0.25600381416E+02  0.00000000000E+00 0.  1.
         12    1    4    4    0    0 -0.38533393879E+01 -0.16283105635E+02 -0.96226463064E+02  0.97670466096E+02  0.00000000000E+00 0. -1.
         -5    1    5    5    0  502 -0.16605218564E+01  0.54836266854E+02  0.20467434615E+03  0.21195153094E+03  0.47000000000E+01 0.  1.
         13    1    6    6    0    0 -0.76782135922E+02  0.49216247662E+01  0.15578626862E+03  0.17375005116E+03  0.00000000000E+00 0. -1.
        -14    1    6    6    0    0 -0.88399057017E+00 -0.35786492503E+02  0.12660447341E+03  0.13156803248E+03  0.00000000000E+00 0.  1.
</event>
<event>
12    1  0.8356052E-002  0.2186066E+03  0.7818608E-02  0.1138187E+00
         21   -1    0    0  501  502  0.00000000000E+00  0.00000000000E+00  0.37759135602E+02  0.37759135602E+02  0.00000000000E+00 0.  1.
         21   -1    0    0  502  503 -0.00000000000E+00 -0.00000000000E+00 -0.13537878929E+04  0.13537878929E+04  0.00000000000E+00 0.  1.
         -6    2    1    2    0  503 -0.92335356169E+02  0.52061451077E+02 -0.89088865161E+03  0.91349583371E+03  0.17191810832E+03 0.  0.
        -24    2    3    3    0    0 -0.79279778047E+02  0.28950550736E+00 -0.79736364952E+03  0.80570066461E+03  0.84139196267E+02 0.  0.
          6    2    1    2  501    0  0.92335356169E+02 -0.52061451077E+02 -0.42514010566E+03  0.47805119476E+03  0.19118740199E+03 0.  0.
         24    2    5    5    0    0  0.45034503397E+02  0.18670503405E+02 -0.53490475981E+02  0.96756141943E+02  0.64217021026E+02 0.  0.
          5    1    5    5  501    0  0.47300852772E+02 -0.70731954481E+02 -0.37164962968E+03  0.38129505281E+03  0.47000000000E+01 0. -1.
        -13    1    6    6    0    0  0.13970512054E+02  0.10596740686E+01  0.14372627095E+02  0.20071634856E+02  0.00000000000E+00 0.  1.
         14    1    6    6    0    0  0.31063991344E+02  0.17610829336E+02 -0.67863103076E+02  0.76684507087E+02  0.00000000000E+00 0. -1.
         -5    1    3    3    0  503 -0.13055578122E+02  0.51771945569E+02 -0.93525002082E+02  0.10779516911E+03  0.47000000000E+01 0.  1.
         11    1    4    4    0    0  0.13861609421E+02  0.24940677072E+01 -0.35987464713E+02  0.38645338735E+02  0.00000000000E+00 0. -1.
        -12    1    4    4    0    0 -0.93141387469E+02 -0.22045621999E+01 -0.76137618481E+03  0.76705532587E+03  0.00000000000E+00 0.  1.
</event>
<event>
12    1  0.8356052E-002  0.3757366E+03  0.7818608E-02  0.1052546E+00
         21   -1    0    0  501  502  0.00000000000E+00  0.00000000000E+00  0.15279935735E+03  0.15279935735E+03  0.00000000000E+00 0. -1.
         21   -1    0    0  502  503 -0.00000000000E+00 -0.00000000000E+00 -0.10303094669E+04  0.10303094669E+04  0.00000000000E+00 0.  1.
         -6    2    1    2    0  503  0.30670689478E+03  0.13213194653E+03 -0.62954839965E+03  0.73315015827E+03  0.17219174332E+03 0.  0.
        -24    2    3    3    0    0  0.20409679501E+03  0.14993075691E+03 -0.50533493691E+03  0.57098757149E+03  0.80800214927E+02 0.  0.
          6    2    1    2  501    0 -0.30670689478E+03 -0.13213194653E+03 -0.24796170994E+03  0.44995866602E+03  0.17160950128E+03 0.  0.
         24    2    5    5    0    0 -0.21231887134E+03 -0.24661527883E+02 -0.18534253967E+03  0.29374650151E+03  0.79042115714E+02 0.  0.
          5    1    5    5  501    0 -0.94388023445E+02 -0.10747041865E+03 -0.62619170265E+02  0.15621216450E+03  0.47000000000E+01 0. -1.
        -11    1    6    6    0    0 -0.32464434139E+02 -0.33977001498E+02 -0.28731711347E+02  0.55080734851E+02  0.00000000000E+00 0.  1.
         12    1    6    6    0    0 -0.17985443720E+03  0.93154736154E+01 -0.15661082832E+03  0.23866576666E+03  0.00000000000E+00 0. -1.
         -5    1    3    3    0  503  0.10261009977E+03 -0.17798810377E+02 -0.12421346274E+03  0.16216258678E+03  0.47000000000E+01 0.  1.
         13    1    4    4    0    0  0.41648133159E+02  0.72769127296E+02 -0.12845459897E+03  0.15339653477E+03  0.00000000000E+00 0. -1.
        -14    1    4    4    0    0  0.16244866186E+03  0.77161629614E+02 -0.37688033794E+03  0.41759103672E+03  0.00000000000E+00 0.  1.
</event>
<event>
12    1  0.8356052E-002  0.1879652E+03  0.7818608E-02  0.1160588E+00
         21   -1    0    0  503  502  0.00000000000E+00  0.00000000000E+00  0.27971180578E+03  0.27971180578E+03  0.00000000000E+00 0.  1.
         21   -1    0    0  501  503 -0.00000000000E+00 -0.00000000000E+00 -0.18181311059E+03  0.18181311059E+03  0.00000000000E+00 0. -1.
          6    2    1    2  501    0 -0.66454073043E+02 -0.32927154761E+02 -0.79589097762E+02  0.20300447490E+03  0.17139443107E+03 0.  0.
         24    2    3    3    0    0 -0.64855678343E+02  0.25148515076E+02 -0.34846109028E+01  0.10714352762E+03  0.81417972057E+02 0.  0.
         -6    2    1    2    0  502  0.66454073043E+02  0.32927154761E+02  0.17748779295E+03  0.25852044147E+03  0.17271525892E+03 0.  0.
        -24    2    5    5    0    0  0.66979160394E+02  0.59018646089E+02  0.19436142790E+03  0.22709034136E+03  0.76316773853E+02 0.  0.
          5    1    3    3  501    0 -0.15983947002E+01 -0.58075669836E+02 -0.76104486859E+02  0.95860947276E+02  0.47000000000E+01 0. -1.
        -11    1    4    4    0    0 -0.29455910158E+02 -0.27692932495E+02  0.11026015970E+02  0.41906111506E+02  0.00000000000E+00 0.  1.
         12    1    4    4    0    0 -0.35399768186E+02  0.52841447571E+02 -0.14510626872E+02  0.65237416114E+02  0.00000000000E+00 0. -1.
         -5    1    5    5    0  502 -0.52508735032E+00 -0.26091491328E+02 -0.16873634945E+02  0.31430100107E+02  0.47000000000E+01 0.  1.
         11    1    6    6    0    0  0.46985589718E+02  0.38434357735E+02  0.46489842042E+02  0.76460126267E+02  0.00000000000E+00 0. -1.
        -12    1    6    6    0    0  0.19993570675E+02  0.20584288354E+02  0.14787158586E+03  0.15063021509E+03  0.00000000000E+00 0.  1.
</event>
<event>
12    1  0.8356052E-002  0.2364647E+03  0.7818608E-02  0.1122260E+00
         21   -1    0    0  503  502  0.00000000000E+00  0.00000000000E+00  0.12475849399E+03  0.12475849399E+03  0.00000000000E+00 0.  1.
         21   -1    0    0  501  503 -0.00000000000E+00 -0.00000000000E+00 -0.54433962043E+03  0.54433962043E+03  0.00000000000E+00 0.  1.
          6    2    1    2  501    0  0.58336608006E+02 -0.15042946672E+03 -0.35092974559E+03  0.42286942597E+03  0.17214726483E+03 0.  0.
         24    2    3    3    0    0 -0.25290949612E+02 -0.90990579756E+02 -0.12276687903E+03  0.17265565066E+03  0.76284660205E+02 0.  0.
         -6    2    1    2    0  502 -0.58336608006E+02  0.15042946672E+03 -0.68651380855E+02  0.24622868846E+03  0.17286807291E+03 0.  0.
        -24    2    5    5    0    0 -0.17506099442E+02  0.29644834259E+01 -0.38990280013E+02  0.90296258757E+02  0.79485349155E+02 0.  0.
          5    1    3    3  501    0  0.83627557618E+02 -0.59438886969E+02 -0.22816286655E+03  0.25021377530E+03  0.47000000000E+01 0. -1.
        -13    1    4    4    0    0 -0.37360266176E+02 -0.92047983280E+02 -0.12567476108E+03  0.16019602456E+03  0.00000000000E+00 0.  1.
         14    1    4    4    0    0  0.12069316564E+02  0.10574035249E+01  0.29078820450E+01  0.12459626099E+02  0.00000000000E+00 0. -1.
         -5    1    5    5    0  502 -0.40830508564E+02  0.14746498330E+03 -0.29661100842E+02  0.15593242970E+03  0.47000000000E+01 0.  1.
         11    1    6    6    0    0 -0.12552997790E+02  0.35720709659E+01  0.23887696796E+02  0.27220571315E+02  0.00000000000E+00 0. -1.
        -12    1    6    6    0    0 -0.49531016524E+01 -0.60758753995E+00 -0.62877976809E+02  0.63075687442E+02  0.00000000000E+00 0.  1.
</event>
<event>
12    1  0.8356052E-002  0.2095414E+03  0.7818608E-02  0.1142088E+00
         21   -1    0    0  501  502  0.00000000000E+00  0.00000000000E+00  0.18721445176E+03  0.18721445176E+03  0.00000000000E+00 0. -1.
         21   -1    0    0  502  503 -0.00000000000E+00 -0.00000000000E+00 -0.42018169535E+03  0.42018169535E+03  0.00000000000E+00 0. -1.
         -6    2    1    2    0  503  0.51045669756E+02  0.10758211091E+03 -0.31896025813E+03  0.38163232375E+03  0.17241813498E+03 0.  0.
        -24    2    3    3    0    0  0.53319742014E+02  0.11930483000E+03 -0.15821000279E+03  0.22037064777E+03  0.80350358197E+02 0.  0.
          6    2    1    2  501    0 -0.51045669756E+02 -0.10758211091E+03  0.85993014541E+02  0.22576382337E+03  0.17144950978E+03 0.  0.
         24    2    5    5    0    0  0.96486601666E+01 -0.10753049488E+03  0.24623927941E+02  0.13932275015E+03  0.84549316429E+02 0.  0.
          5    1    5    5  501    0 -0.60694329922E+02 -0.51616025442E-01  0.61369086600E+02  0.86441073218E+02  0.47000000000E+01 0. -1.
        -11    1    6    6    0    0  0.13795049226E+02  0.11349832187E+02  0.64343734939E+01  0.18987449435E+02  0.00000000000E+00 0.  1.
         12    1    6    6    0    0 -0.41463890589E+01 -0.11888032707E+03  0.18189554447E+02  0.12033530071E+03  0.00000000000E+00 0. -1.
         -5    1    3    3    0  503 -0.22740722580E+01 -0.11722719096E+02 -0.16075025534E+03  0.16126167598E+03  0.47000000000E+01 0.  1.
         13    1    4    4    0    0  0.63465205742E+02  0.11496613173E+03 -0.16214753007E+03  0.20865489521E+03  0.00000000000E+00 0. -1.
        -14    1    4    4    0    0 -0.10145463729E+02  0.43386982726E+01  0.39375272789E+01  0.11715752560E+02  0.00000000000E+00 0.  1.
</event>
<event>
12    1  0.8356052E-002  0.2133630E+03  0.7818608E-02  0.1138984E+00
         21   -1    0    0  501  502  0.00000000000E+00  0.00000000000E+00  0.41872663132E+02  0.41872663132E+02  0.00000000000E+00 0.  1.
         21   -1    0    0  502  503 -0.00000000000E+00 -0.00000000000E+00 -0.10857874078E+04  0.10857874078E+04  0.00000000000E+00 0.  1.
         -6    2    1    2    0  503 -0.87439491981E+02 -0.88650475819E+02 -0.51959842195E+03  0.56159347260E+03  0.17291656009E+03 0.  0.
        -24    2    3    3    0    0 -0.24416420928E+02 -0.10147601500E+03 -0.44019095729E+03  0.45929959505E+03  0.79337859215E+02 0.  0.
          6    2    1    2  501    0  0.87439491981E+02  0.88650475819E+02 -0.52431632271E+03  0.56606659832E+03  0.17326054328E+03 0.  0.
         24    2    5    5    0    0  0.10263987695E+02 -0.14497047520E+02 -0.23121524100E+03  0.24587008970E+03  0.81707401806E+02 0.  0.
          5    1    5    5  501    0  0.77175504286E+02  0.10314752334E+03 -0.29310108171E+03  0.32019650862E+03  0.47000000000E+01 0. -1.
        -11    1    6    6    0    0  0.99534275067E+01 -0.39950891123E+02 -0.59968965649E+02  0.72742156014E+02  0.00000000000E+00 0.  1.
         12    1    6    6    0    0  0.31056018836E+00  0.25453843603E+02 -0.17124627535E+03  0.17312793369E+03  0.00000000000E+00 0. -1.
         -5    1    3    3    0  503 -0.63023071053E+02  0.12825539177E+02 -0.79407464661E+02  0.10229387755E+03  0.47000000000E+01 0.  1.
         11    1    4    4    0    0  0.16730542514E+02  0.10097222518E-01 -0.11389248948E+03  0.11511477019E+03  0.00000000000E+00 0. -1.
        -12    1    4    4    0    0 -0.41146963442E+02 -0.10148611222E+03 -0.32629846781E+03  0.34418482486E+03  0.00000000000E+00 0.  1.
</event>
<event>
12    1  0.8356052E-002  0.2161262E+03  0.7818608E-02  0.1136877E+00
         21   -1    0    0  501  502  0.00000000000E+00  0.00000000000E+00  0.10422161127E+03  0.10422161127E+03  0.00000000000E+00 0. -1.
         21   -1    0    0  502  503 -0.00000000000E+00 -0.00000000000E+00 -0.44785445624E+03  0.44785445624E+03  0.00000000000E+00 0.  1.
         -6    2    1    2    0  503  0.11038013983E+03  0.68186806860E+02 -0.18079833495E+03  0.28177749473E+03  0.17285052131E+03 0.  0.
        -24    2    3    3    0    0  0.10771141083E+03  0.12673446574E+02 -0.18139361003E+03  0.22599846966E+03  0.80058118021E+02 0.  0.
          6    2    1    2  501    0 -0.11038013983E+03 -0.68186806860E+02 -0.16283451001E+03  0.27029857278E+03  0.17237466432E+03 0.  0.
         24    2    5    5    0    0 -0.14482127842E+03 -0.66073098884E+02 -0.15060067437E+03  0.23338764590E+03  0.80314214548E+02 0.  0.
          5    1    5    5  501    0  0.34441138591E+02 -0.21137079754E+01 -0.12233835648E+02  0.36910926885E+02  0.47000000000E+01 0. -1.
        -11    1    6    6    0    0 -0.61751286118E+02 -0.22270085423E+02 -0.11603607750E+03  0.13331747568E+03  0.00000000000E+00 0.  1.
         12    1    6    6    0    0 -0.83069992306E+02 -0.43803013462E+02 -0.34564596867E+02  0.10007017021E+03  0.00000000000E+00 0. -1.
         -5    1    3    3    0  503  0.26687290036E+01  0.55513360286E+02  0.59527507782E+00  0.55779025064E+02  0.47000000000E+01 0.  1.
         11    1    4    4    0    0  0.87793496601E+02  0.43418967933E+02 -0.12605960486E+03  0.15963686542E+03  0.00000000000E+00 0. -1.
        -12    1    4    4    0    0  0.19917914228E+02 -0.30745521359E+02 -0.55334005162E+02  0.66361604246E+02  0.00000000000E+00 0.  1.
</event>
<event>
12    1  0.8356052E-002  0.1747114E+03  0.7818608E-02  0.1176427E+00
         21   -1    0    0  503  502  0.00000000000E+00  0.00000000000E+00  0.62841493851E+02  0.62841493851E+02  0.00000000000E+00 0. -1.
         21   -1    0    0  501  503 -0.00000000000E+00 -0.00000000000E+00 -0.15289892619E+04  0.15289892619E+04  0.00000000000E+00 0.  1.
          6    2    1    2  501    0 -0.47784541067E+01  0.38357970978E+02 -0.13931122898E+04  0.14024680287E+04  0.15703678497E+03 0.  0.
         24    2    3    3    0    0  0.60320524072E+01  0.60942887082E+02 -0.13371753008E+04  0.13410027358E+04  0.80623391228E+02 0.  0.
         -6    2    1    2    0  502  0.47784541067E+01 -0.38357970978E+02 -0.73035478231E+02  0.18936272708E+03  0.17038161217E+03 0.  0.
        -24    2    5    5    0    0 -0.36076563871E+02 -0.73026830934E+02 -0.22529087280E+02  0.11557893570E+03  0.78844746850E+02 0.  0.
          5    1    3    3  501    0 -0.10810506514E+02 -0.22584916104E+02 -0.55936988975E+02  0.61465292825E+02  0.47000000000E+01 0. -1.
        -11    1    4    4    0    0 -0.14714842684E+02  0.70569365551E+02 -0.77015654803E+03  0.77352289587E+03  0.00000000000E+00 0.  1.
         12    1    4    4    0    0  0.20746895092E+02 -0.96264784692E+01 -0.56701875281E+03  0.56747983998E+03  0.00000000000E+00 0. -1.
         -5    1    5    5    0  502  0.40855017977E+02  0.34668859957E+02 -0.50506390951E+02  0.73783791387E+02  0.47000000000E+01 0.  1.
         11    1    6    6    0    0  0.12726354347E+02 -0.24180202979E+02 -0.36033289155E+02  0.45222121118E+02  0.00000000000E+00 0. -1.
        -12    1    6    6    0    0 -0.48802918218E+02 -0.48846627955E+02  0.13504201875E+02  0.70356814577E+02  0.00000000000E+00 0.  1.
</event>
<event>
12    1  0.8356052E-002  0.1755274E+03  0.7818608E-02  0.1175452E+00
         21   -1    0    0  501  502  0.00000000000E+00  0.00000000000E+00  0.61511818830E+03  0.61511818830E+03  0.00000000000E+00 0.  1.
         21   -1    0    0  502  503 -0.00000000000E+00 -0.00000000000E+00 -0.53905266089E+02  0.53905266089E+02  0.00000000000E+00 0.  1.
         -6    2    1    2    0  503 -0.32859561313E+02  0.37818176492E-01  0.16637416392E+03  0.24184750290E+03  0.17242418636E+03 0.  0.
        -24    2    3    3    0    0  0.11796554327E+02 -0.40971432062E+02  0.33166633398E+02  0.95415732249E+02  0.78653159189E+02 0.  0.
          6    2    1    2  501    0  0.32859561313E+02 -0.37818176492E-01  0.39483875829E+03  0.42717595149E+03  0.15969313160E+03 0.  0.
         24    2    5    5    0    0  0.48157675550E+02 -0.53259007014E+02  0.28524831591E+03  0.30429925597E+03  0.77947109701E+02 0.  0.
          5    1    5    5  501    0 -0.15298114237E+02  0.53221188837E+02  0.10959044238E+03  0.12287669552E+03  0.47000000000E+01 0. -1.
        -11    1    6    6    0    0  0.29222794194E+02 -0.31719724631E+02  0.26665552916E+03  0.27012086899E+03  0.00000000000E+00 0.  1.
         12    1    6    6    0    0  0.18934881356E+02 -0.21539282383E+02  0.18592786753E+02  0.34178386984E+02  0.00000000000E+00 0. -1.
         -5    1    3    3    0  503 -0.44656115640E+02  0.41009250239E+02  0.13320753052E+03  0.14643177065E+03  0.47000000000E+01 0.  1.
         11    1    4    4    0    0 -0.13774590228E+02  0.10632510595E+02 -0.12904295236E+02  0.21663574336E+02  0.00000000000E+00 0. -1.
        -12    1    4    4    0    0  0.25571144554E+02 -0.51603942657E+02  0.46070928634E+02  0.73752157913E+02  0.00000000000E+00 0.  1.
</event>
<event>
12    1  0.8356052E-002  0.1793810E+03  0.7818608E-02  0.1168464E+00
         21   -1    0    0  503  502  0.00000000000E+00  0.00000000000E+00  0.50832089936E+02  0.50832089936E+02  0.00000000000E+00 0. -1.
         21   -1    0    0  501  503 -0.00000000000E+00 -0.00000000000E+00 -0.96912253380E+03  0.96912253380E+03  0.00000000000E+00 0. -1.
          6    2    1    2  501    0 -0.40513353622E+02  0.34169316948E+02 -0.76007440842E+03  0.78095496852E+03  0.17137293391E+03 0.  0.
         24    2    3    3    0    0 -0.54034658623E+02  0.50847733032E+01 -0.21379151279E+03  0.23371112120E+03  0.77255925216E+02 0.  0.
         -6    2    1    2    0  502  0.40513353622E+02 -0.34169316948E+02 -0.15821603544E+03  0.23899965522E+03  0.17111296643E+03 0.  0.
        -24    2    5    5    0    0 -0.27958174011E+02 -0.61074336299E+02 -0.90067755565E+02  0.13860788158E+03  0.81167790388E+02 0.  0.
          5    1    3    3  501    0  0.13521305001E+02  0.29084543645E+02 -0.54628289563E+03  0.54724384732E+03  0.47000000000E+01 0. -1.
        -11    1    4    4    0    0  0.10865888884E+02 -0.73192712202E+01 -0.39067237330E+01  0.13671201950E+02  0.00000000000E+00 0.  1.
         12    1    4    4    0    0 -0.64900547507E+02  0.12404044523E+02 -0.20988478905E+03  0.22003991925E+03  0.00000000000E+00 0. -1.
         -5    1    5    5    0  502  0.68471527632E+02  0.26905019350E+02 -0.68148279879E+02  0.10039177363E+03  0.47000000000E+01 0.  1.
         11    1    6    6    0    0 -0.86034446542E+01 -0.64302389458E+02 -0.23165212123E+02  0.68887180249E+02  0.00000000000E+00 0. -1.
        -12    1    6    6    0    0 -0.19354729356E+02  0.32280531598E+01 -0.66902543442E+02  0.69720701335E+02  0.00000000000E+00 0.  1.
</event>
<event>
12    1  0.8356052E-002  0.2710626E+03  0.7818608E-02  0.1100824E+00
         21   -1    0    0  503  502  0.00000000000E+00  0.00000000000E+00  0.88396237982E+03  0.88396237982E+03  0.00000000000E+00 0. -1.
         21   -1    0    0  501  503 -0.00000000000E+00 -0.00000000000E+00 -0.93926230387E+02  0.93926230387E+02  0.00000000000E+00 0.  1.
          6    2    1    2  501    0 -0.13800515334E+03  0.15556024998E+03  0.22737899655E+03  0.35380240033E+03  0.17386925170E+03 0.  0.
         24    2    3    3    0    0 -0.83348106696E+01  0.10142357250E+03  0.98501878193E+02  0.16307594896E+03  0.80838944781E+02 0.  0.
         -6    2    1    2    0  502  0.13800515334E+03 -0.15556024998E+03  0.56265715288E+03  0.62408620988E+03  0.17220950017E+03 0.  0.
        -24    2    5    5    0    0  0.92693682457E+02 -0.71721704742E+02  0.47136822518E+03  0.49203398770E+03  0.78570475660E+02 0.  0.
          5    1    3    3  501    0 -0.12967034267E+03  0.54136677478E+02  0.12887711836E+03  0.19072645137E+03  0.47000000000E+01 0. -1.
        -13    1    4    4    0    0 -0.24191024225E+02  0.24660646236E+02 -0.31779031498E+01  0.34690808498E+02  0.00000000000E+00 0.  1.
         14    1    4    4    0    0  0.15856213555E+02  0.76762926267E+02  0.10167978134E+03  0.12838514046E+03  0.00000000000E+00 0. -1.
         -5    1    5    5    0  502  0.45311470882E+02 -0.83838545238E+02  0.91288927709E+02  0.13205222218E+03  0.47000000000E+01 0.  1.
         13    1    6    6    0    0  0.86218301251E+02 -0.21340945288E+02  0.26424333631E+03  0.27877154123E+03  0.00000000000E+00 0. -1.
        -14    1    6    6    0    0  0.64753812069E+01 -0.50380759454E+02  0.20712488887E+03  0.21326244647E+03  0.00000000000E+00 0.  1.
</event>
<event>
12    1  0.8356052E-002  0.2042320E+03  0.7818608E-02  0.1146452E+00
         21   -1    0    0  501  502  0.00000000000E+00  0.00000000000E+00  0.87141160346E+03  0.87141160346E+03  0.00000000000E+00 0. -1.
         21   -1    0    0  502  503 -0.00000000000E+00 -0.00000000000E+00 -0.55567236963E+02  0.55567236963E+02  0.00000000000E+00 0. -1.
         -6    2    1    2    0  503 -0.90846671712E+02  0.57769547920E+02  0.23337793759E+03  0.31012248849E+03  0.17355188758E+03 0.  0.
        -24    2    3    3    0    0 -0.25108330557E+02 -0.66675762331E+01  0.19258011198E+03  0.20932454683E+03  0.77812476760E+02 0.  0.
          6    2    1    2  501    0  0.90846671712E+02 -0.57769547920E+02  0.58246642890E+03  0.61685635194E+03  0.17220388990E+03 0.  0.
         24    2    5    5    0    0  0.50042320459E+02 -0.10513244980E+03  0.37618955923E+03  0.40126303915E+03  0.77047883014E+02 0.  0.
          5    1    5    5  501    0  0.40804351253E+02  0.47362901881E+02  0.20627686968E+03  0.21559331279E+03  0.47000000000E+01 0. -1.
        -13    1    6    6    0    0 -0.49097498929E+01 -0.72603888635E+02  0.15862005666E+03  0.17451576624E+03  0.00000000000E+00 0.  1.
         14    1    6    6    0    0  0.54952070352E+02 -0.32528561166E+02  0.21756950256E+03  0.22674727291E+03  0.00000000000E+00 0. -1.
         -5    1    3    3    0  503 -0.65738341155E+02  0.64437124153E+02  0.40797825610E+02  0.10079794165E+03  0.47000000000E+01 0.  1.
         13    1    4    4    0    0 -0.27673919301E+02  0.26294238070E+02  0.49695321865E+02  0.62664645379E+02  0.00000000000E+00 0. -1.
        -14    1    4    4    0    0  0.25655887444E+01 -0.32961814303E+02  0.14288479012E+03  0.14665990146E+03  0.00000000000E+00 0.  1.
</event>
<event>
12    1  0.8356052E-002  0.2018593E+03  0.7818608E-02  0.1148300E+00
         21   -1    0    0  501  502  0.00000000000E+00  0.00000000000E+00  0.14542337124E+03  0.14542337124E+03  0.00000000000E+00 0.  1.
         21   -1    0    0  502  503 -0.00000000000E+00 -0.00000000000E+00 -0.30067795201E+03  0.30067795201E+03  0.00000000000E+00 0.  1.
         -6    2    1    2    0  503 -0.11432566311E+02  0.10489472570E+03 -0.18181407608E+02  0.20210086743E+03  0.17140767188E+03 0.  0.
        -24    2    3    3    0    0 -0.71713764392E+02  0.76597379221E+02 -0.31607522471E+02  0.13400598348E+03  0.77126815209E+02 0.  0.
          6    2    1    2  501    0  0.11432566311E+02 -0.10489472570E+03 -0.13707317316E+03  0.24400045583E+03  0.17208591050E+03 0.  0.
         24    2    5    5    0    0  0.63812017228E+02 -0.46130410371E+02 -0.58296373070E+02  0.13253420144E+03  0.89257263768E+02 0.  0.
          5    1    5    5  501    0 -0.52379450917E+02 -0.58764315325E+02 -0.78776800090E+02  0.11146625438E+03  0.47000000000E+01 0. -1.
        -11    1    6    6    0    0 -0.14662453569E+02 -0.86705316555E+01 -0.40275601011E+02  0.43729734743E+02  0.00000000000E+00 0.  1.
         12    1    6    6    0    0  0.78474470798E+02 -0.37459878715E+02 -0.18020772059E+02  0.88804466700E+02  0.00000000000E+00 0. -1.
         -5    1    3    3    0  503  0.60281198081E+02  0.28297346474E+02  0.13426114863E+02  0.68094883948E+02  0.47000000000E+01 0.  1.
         13    1    4    4    0    0 -0.47865846358E+02  0.67389279926E+02 -0.55056810466E+02  0.99316195432E+02  0.00000000000E+00 0. -1.
        -14    1    4    4    0    0 -0.23847918033E+02  0.92080992953E+01  0.23449287995E+02  0.34689788045E+02  0.00000000000E+00 0.  1.
</event>
<event>
12    1  0.8356052E-002  0.2087536E+03  0.7818608E-02  0.1143314E+00
         21   -1    0    0  503  502  0.00000000000E+00  0.00000000000E+00  0.53883275082E+02  0.53883275082E+02  0.00000000000E+00 0. -1.
         21   -1    0    0  501  503 -0.00000000000E+00 -0.00000000000E+00 -0.10270907583E+04  0.10270907583E+04  0.00000000000E+00 0. -1.
          6    2    1    2  501    0 -0.11205985780E+03  0.60150576836E+00 -0.74735907321E+03  0.77596627760E+03  0.17612582467E+03 0.  0.
         24    2    3    3    0    0 -0.16614285181E+02  0.52659544888E+02 -0.27591482974E+03  0.29212574449E+03  0.78481814364E+02 0.  0.
         -6    2    1    2    0  502  0.11205985780E+03 -0.60150576836E+00 -0.22584840996E+03  0.30500775574E+03  0.17165212857E+03 0.  0.
        -24    2    5    5    0    0  0.54620737466E+02  0.52173646668E+02 -0.18940569176E+03  0.21878344960E+03  0.79285354142E+02 0.  0.
          5    1    3    3  501    0 -0.95445572616E+02 -0.52058039120E+02 -0.47144424347E+03  0.48384053310E+03  0.47000000000E+01 0. -1.
        -13    1    4    4    0    0  0.16159511829E+02  0.59995100883E+02 -0.18880884684E+03  0.19876952130E+03  0.00000000000E+00 0.  1.
         14    1    4    4    0    0 -0.32773797010E+02 -0.73355559947E+01 -0.87105982896E+02  0.93356223191E+02  0.00000000000E+00 0. -1.
         -5    1    5    5    0  502  0.57439120330E+02 -0.52775152436E+02 -0.36442718201E+02  0.86224306137E+02  0.47000000000E+01 0.  1.
         11    1    6    6    0    0  0.24829390681E+02  0.66999723258E+02 -0.96324118667E+02  0.11993247015E+03  0.00000000000E+00 0. -1.
        -12    1    6    6    0    0  0.29791346785E+02 -0.14826076590E+02 -0.93081573092E+02  0.98850979457E+02  0.00000000000E+00 0.  1.
</event>
<event>
12    1  0.8356052E-002  0.1759051E+03  0.7818608E-02  0.1172421E+00
         21   -1    0    0  501  502  0.00000000000E+00  0.00000000000E+00  0.33448244829E+03  0.33448244829E+03  0.00000000000E+00 0.  1.
         21   -1    0    0  502  503 -0.00000000000E+00 -0.00000000000E+00 -0.17832471201E+03  0.17832471201E+03  0.00000000000E+00 0.  1.
         -6    2    1    2    0  503  0.18964150059E+02 -0.31684178646E+02 -0.10080012778E+03  0.20273942752E+03  0.17198570739E+03 0.  0.
        -24    2    3    3    0    0 -0.42120366546E+02 -0.29565805205E+02 -0.10376716255E+03  0.14136598888E+03  0.81046015778E+02 0.  0.
          6    2    1    2  501    0 -0.18964150059E+02  0.31684178646E+02  0.25695786406E+03  0.31006773278E+03  0.16956157833E+03 0.  0.
         24    2    5    5    0    0 -0.45694989007E+02  0.75962565193E+02  0.15177528301E+03  0.19276224006E+03  0.79140390000E+02 0.  0.
          5    1    5    5  501    0  0.26730838948E+02 -0.44278386547E+02  0.10518258105E+03  0.11730549272E+03  0.47000000000E+01 0. -1.
        -11    1    6    6    0    0 -0.11071657802E+02  0.17765297086E+02  0.11260002690E+03  0.11452926894E+03  0.00000000000E+00 0.  1.
         12    1    6    6    0    0 -0.34623331204E+02  0.58197268106E+02  0.39175256116E+02  0.78232971121E+02  0.00000000000E+00 0. -1.
         -5    1    3    3    0  503  0.61084516605E+02 -0.21183734408E+01  0.29670347737E+01  0.61373438638E+02  0.47000000000E+01 0.  1.
         13    1    4    4    0    0  0.10957366519E+02  0.48786368749E+01  0.69362459508E+01  0.13855557971E+02  0.00000000000E+00 0. -1.
        -14    1    4    4    0    0 -0.53077733066E+02 -0.34444442080E+02 -0.11070340850E+03  0.12751043091E+03  0.00000000000E+00 0.  1.
</event>
<event>
12    1  0.8356052E-002  0.2098769E+03  0.7818608E-02  0.1141711E+00
         21   -1    0    0  501  502  0.00000000000E+00  0.00000000000E+00  0.16185413182E+03  0.16185413182E+03  0.00000000000E+00 0. -1.
         21   -1    0    0  502  503 -0.00000000000E+00 -0.00000000000E+00 -0.34141589082E+03  0.34141589082E+03  0.00000000000E+00 0. -1.
         -6    2    1    2    0  503 -0.10182212721E+03 -0.63871805938E+02 -0.20341707575E+03  0.29227869662E+03  0.17204934351E+03 0.  0.
        -24    2    3    3    0    0  0.11629792101E+02 -0.33662939292E+02 -0.51120101968E+02  0.99923889438E+02  0.78122169127E+02 0.  0.
          6    2    1    2  501    0  0.10182212721E+03  0.63871805938E+02  0.23855316755E+02  0.21099132602E+03  0.17175829044E+03 0.  0.
         24    2    5    5    0    0 -0.11911702772E+02  0.15207524067E+02  0.30632634647E+02  0.87008994814E+02  0.79114154372E+02 0.  0.
          5    1    5    5  501    0  0.11373382999E+03  0.48664281871E+02 -0.67773178926E+01  0.12398233121E+03  0.47000000000E+01 0. -1.
        -11    1    6    6    0    0  0.16600916044E+02  0.53908362443E-01 -0.20595956516E+02  0.26453482652E+02  0.00000000000E+00 0.  1.
         12    1    6    6    0    0 -0.28512618816E+02  0.15153615704E+02  0.51228591163E+02  0.60555512162E+02  0.00000000000E+00 0. -1.
         -5    1    3    3    0  503 -0.11345191932E+03 -0.30208866646E+02 -0.15229697379E+03  0.19235480718E+03  0.47000000000E+01 0.  1.
         13    1    4    4    0    0  0.20610160679E+02 -0.45217591210E+02 -0.63585616213E+02  0.80700308967E+02  0.00000000000E+00 0. -1.
        -14    1    4    4    0    0 -0.89803685777E+01  0.11554651918E+02  0.12465514246E+02  0.19223580472E+02  0.00000000000E+00 0.  1.
</event>
<event>
12    1  0.8356052E-002  0.1998884E+03  0.7818608E-02  0.1149880E+00
         21   -1    0    0  501  502  0.00000000000E+00  0.00000000000E+00  0.34699927804E+02  0.34699927804E+02  0.00000000000E+00 0. -1.
         21   -1    0    0  502  503 -0.00000000000E+00 -0.00000000000E+00 -0.13122811833E+04  0.13122811833E+04  0.00000000000E+00 0. -1.
         -6    2    1    2    0  503  0.65333868370E+02 -0.78430177422E+02 -0.87519028817E+03  0.89767734105E+03  0.17160058582E+03 0.  0.
        -24    2    3    3    0    0  0.62632589043E+02 -0.83923888659E+02 -0.37412605093E+03  0.39655366609E+03  0.79488664637E+02 0.  0.
          6    2    1    2  501    0 -0.65333868370E+02  0.78430177422E+02 -0.40239096735E+03  0.44930377007E+03  0.17185918686E+03 0.  0.
         24    2    5    5    0    0 -0.49032781905E+01 -0.62059681996E+01 -0.92868739191E+02  0.12274407706E+03  0.79868326364E+02 0.  0.
          5    1    5    5  501    0 -0.60430590179E+02  0.84636145621E+02 -0.30952222816E+03  0.32655969301E+03  0.47000000000E+01 0. -1.
        -13    1    6    6    0    0  0.10662054973E+02  0.31650836397E+02 -0.65445364744E+02  0.73474829889E+02  0.00000000000E+00 0.  1.
         14    1    6    6    0    0 -0.15565333163E+02 -0.37856804596E+02 -0.27423374448E+02  0.49269247171E+02  0.00000000000E+00 0. -1.
         -5    1    3    3    0  503  0.27012793272E+01  0.54937112376E+01 -0.50106423724E+03  0.50112367497E+03  0.47000000000E+01 0.  1.
         13    1    4    4    0    0  0.62332120911E+02 -0.26489997017E+02 -0.26150103146E+03  0.27012923331E+03  0.00000000000E+00 0. -1.
        -14    1    4    4    0    0  0.30046813119E+00 -0.57433891643E+02 -0.11262501947E+03  0.12642443277E+03  0.00000000000E+00 0.  1.
</event>
<event>
12    1  0.8356052E-002  0.2260013E+03  0.7818608E-02  0.1133233E+00
         21   -1    0    0  501  502  0.00000000000E+00  0.00000000000E+00  0.23277290302E+03  0.23277290302E+03  0.00000000000E+00 0.  1.
         21   -1    0    0  502  503 -0.00000000000E+00 -0.00000000000E+00 -0.20255646922E+03  0.20255646922E+03  0.00000000000E+00 0. -1.
         -6    2    1    2    0  503  0.72622174807E+02  0.89437266793E+02 -0.55582372164E+01  0.22606959482E+03  0.19443138310E+03 0.  0.
        -24    2    3    3    0    0  0.47923855619E+02 -0.67868120297E+01  0.56549661943E+02  0.10881533496E+03  0.79373522677E+02 0.  0.
          6    2    1    2  501    0 -0.72622174807E+02 -0.89437266793E+02  0.35774671018E+02  0.20925977742E+03  0.17098778434E+03 0.  0.
         24    2    5    5    0    0 -0.49112510833E+02 -0.12786508058E+03  0.18305916253E+02  0.16071445256E+03  0.82051880772E+02 0.  0.
          5    1    5    5  501    0 -0.23509663973E+02  0.38427813789E+02  0.17468754765E+02  0.48545324860E+02  0.47000000000E+01 0. -1.
        -11    1    6    6    0    0  0.13033775791E+02 -0.16715996734E+02  0.25510569511E+02  0.33167650127E+02  0.00000000000E+00 0.  1.
         12    1    6    6    0    0 -0.62146286624E+02 -0.11114908385E+03 -0.72046532581E+01  0.12754680243E+03  0.00000000000E+00 0. -1.
         -5    1    3    3    0  503  0.24698319187E+02  0.96224078822E+02 -0.62107899160E+02  0.11725425985E+03  0.47000000000E+01 0.  1.
         11    1    4    4    0    0  0.50686230975E+02 -0.18190949052E+02  0.29349415292E+01  0.53931609652E+02  0.00000000000E+00 0. -1.
        -12    1    4    4    0    0 -0.27623753557E+01  0.11404137023E+02  0.53614720414E+02  0.54883725310E+02  0.00000000000E+00 0.  1.
</event>
<event>
12    1  0.8356052E-002  0.2022900E+03  0.7818608E-02  0.1147838E+00
         21   -1    0    0  503  502  0.00000000000E+00  0.00000000000E+00  0.78498123401E+03  0.78498123401E+03  0.00000000000E+00 0.  1.
         21   -1    0    0  501  503 -0.00000000000E+00 -0.00000000000E+00 -0.14908850788E+03  0.14908850788E+03  0.00000000000E+00 0. -1.
          6    2    1    2  501    0 -0.67415872115E+02  0.80306194844E+02 -0.58750505535E+02  0.21057098061E+03  0.17290035058E+03 0.  0.
         24    2    3    3    0    0 -0.10898698889E+03  0.39757729387E+02 -0.25194182836E+02  0.14333666947E+03  0.80323179545E+02 0.  0.
         -6    2    1    2    0  502  0.67415872115E+02 -0.80306194844E+02  0.69464323166E+03  0.72349876128E+03  0.17299495236E+03 0.  0.
        -24    2    5    5    0    0 -0.72506720339E+01 -0.19693981852E+00  0.17258689074E+03  0.19005945016E+03  0.79270099718E+02 0.  0.
          5    1    3    3  501    0  0.41571116779E+02  0.40548465457E+02 -0.33556322699E+02  0.67234311138E+02  0.47000000000E+01 0. -1.
        -13    1    4    4    0    0 -0.57388513922E+02  0.58754347702E+02  0.16537589721E+01  0.82147731696E+02  0.00000000000E+00 0.  1.
         14    1    4    4    0    0 -0.51598474971E+02 -0.18996618315E+02 -0.26847941808E+02  0.61188937775E+02  0.00000000000E+00 0. -1.
         -5    1    5    5    0  502  0.74666544149E+02 -0.80109255025E+02  0.52205634092E+03  0.53343931112E+03  0.47000000000E+01 0.  1.
         13    1    6    6    0    0 -0.23328246556E+02  0.19261481790E+02  0.15807519928E+03  0.16094402876E+03  0.00000000000E+00 0. -1.
        -14    1    6    6    0    0  0.16077574522E+02 -0.19458421608E+02  0.14511691464E+02  0.29115421397E+02  0.00000000000E+00 0.  1.
</event>
<event>
12    1  0.8356052E-002  0.1732924E+03  0.7818608E-02  0.1174866E+00
         21   -1    0    0  503  502  0.00000000000E+00  0.00000000000E+00  0.61362852337E+02  0.61362852337E+02  0.00000000000E+00 0.  1.
         21   -1    0    0  501  503 -0.00000000000E+00 -0.00000000000E+00 -0.79333110324E+03  0.79333110324E+03  0.00000000000E+00 0.  1.
          6    2    1    2  501    0  0.23327037069E+01  0.97277062042E+01 -0.63348619533E+03  0.65676100306E+03  0.17300342683E+03 0.  0.
         24    2    3    3    0    0 -0.53190394136E+02  0.14416106744E+02 -0.51490894497E+03  0.52566008851E+03  0.90278817451E+02 0.  0.
         -6    2    1    2    0  502 -0.23327037069E+01 -0.97277062042E+01 -0.98482055573E+02  0.19793295251E+03  0.17140206722E+03 0.  0.
        -24    2    5    5    0    0 -0.53520462039E+02  0.88942907398E+01 -0.17504873951E+02  0.10022748022E+03  0.82435301384E+02 0.  0.
          5    1    3    3  501    0  0.55523097843E+02 -0.46884005395E+01 -0.11857725036E+03  0.13110091455E+03  0.47000000000E+01 0. -1.
        -13    1    4    4    0    0 -0.31801487402E+02 -0.18321229283E+02 -0.43650318233E+03  0.43804341135E+03  0.00000000000E+00 0.  1.
         14    1    4    4    0    0 -0.21388906733E+02  0.32737336027E+02 -0.78405762643E+02  0.87616677163E+02  0.00000000000E+00 0. -1.
         -5    1    5    5    0  502  0.51187758332E+02 -0.18621996944E+02 -0.80977181622E+02  0.97705472296E+02  0.47000000000E+01 0.  1.
         13    1    6    6    0    0 -0.47973627005E+02 -0.22584322701E+02 -0.35246925364E+02  0.63669979327E+02  0.00000000000E+00 0. -1.
        -14    1    6    6    0    0 -0.55468350332E+01  0.31478613441E+02  0.17742051413E+02  0.36557500891E+02  0.00000000000E+00 0.  1.
</event>
<event>
12    1  0.8356052E-002  0.1839411E+03  0.7818608E-02  0.1164463E+00
         21   -1    0    0  503  502  0.00000000000E+00  0.00000000000E+00  0.14421574352E+03  0.14421574352E+03  0.00000000000E+00 0.  1.
         21   -1    0    0  501  503 -0.00000000000E+00 -0.00000000000E+00 -0.30931453293E+03  0.30931453293E+03  0.00000000000E+00 0.  1.
          6    2    1    2  501    0  0.29704837887E+02 -0.58338481784E+02 -0.19536506628E+03  0.26711570670E+03  0.16999275217E+03 0.  0.
         24    2    3    3    0    0  0.55046993270E+01  0.31110689215E+02 -0.61299972454E+02  0.10407479072E+03  0.77946768646E+02 0.  0.
         -6    2    1    2    0  502 -0.29704837887E+02  0.58338481784E+02  0.30266276878E+02  0.18641456975E+03  0.17189702862E+03 0.  0.
        -24    2    5    5    0    0 -0.48697937581E+02  0.30306299613E+02 -0.41203910658E+02  0.10718945517E+03  0.80634087864E+02 0.  0.
          5    1    3    3  501    0  0.24200138559E+02 -0.89449170999E+02 -0.13406509383E+03  0.16304091598E+03  0.47000000000E+01 0. -1.
        -13    1    4    4    0    0  0.31914635545E+02  0.17758617088E+01 -0.96895975573E+00  0.31978688682E+02  0.00000000000E+00 0.  1.
         14    1    4    4    0    0 -0.26409936218E+02  0.29334827506E+02 -0.60331012699E+02  0.72096102038E+02  0.00000000000E+00 0. -1.
         -5    1    5    5    0  502  0.18993099695E+02  0.28032182171E+02  0.71470187536E+02  0.79225114577E+02  0.47000000000E+01 0.  1.
         11    1    6    6    0    0 -0.19616162044E+02 -0.14395525595E+02  0.15892025214E+02  0.29061683295E+02  0.00000000000E+00 0. -1.
        -12    1    6    6    0    0 -0.29081775537E+02  0.44701825208E+02 -0.57095935872E+02  0.78127771877E+02  0.00000000000E+00 0.  1.
</event>
<event>
12    1  0.8356052E-002  0.2103654E+03  0.7818608E-02  0.1141299E+00
         21   -1    0    0  503  502  0.00000000000E+00  0.00000000000E+00  0.17297626053E+03  0.17297626053E+03  0.00000000000E+00 0. -1.
         21   -1    0    0  501  503 -0.00000000000E+00 -0.00000000000E+00 -0.42638694575E+03  0.42638694575E+03  0.00000000000E+00 0.  1.
          6    2    1    2  501    0  0.12122358960E+03  0.15473050926E+02 -0.31633327903E+03  0.37989517287E+03  0.17122799121E+03 0.  0.
         24    2    3    3    0    0  0.75250252489E+02  0.42098732568E+02 -0.30392225195E+03  0.32513571487E+03  0.76873884164E+02 0.  0.
         -6    2    1    2    0  502 -0.12122358960E+03 -0.15473050926E+02  0.62922593809E+02  0.21946803341E+03  0.17109176162E+03 0.  0.
        -24    2    5    5    0    0 -0.10441561510E+03 -0.73087829808E+02  0.38797739179E+02  0.15461381717E+03  0.78458373380E+02 0.  0.
          5    1    3    3  501    0  0.45973337112E+02 -0.26625681642E+02 -0.12411027073E+02  0.54759458006E+02  0.47000000000E+01 0. -1.
        -11    1    4    4    0    0  0.27371515775E+02 -0.12024326322E+02 -0.17328309623E+03  0.17584315664E+03  0.00000000000E+00 0.  1.
         12    1    4    4    0    0  0.47878736714E+02  0.54123058890E+02 -0.13063915572E+03  0.14929255822E+03  0.00000000000E+00 0. -1.
         -5    1    5    5    0  502 -0.16807974506E+02  0.57614778882E+02  0.24124854630E+02  0.64854216235E+02  0.47000000000E+01 0.  1.
         13    1    6    6    0    0 -0.24761843709E+02 -0.61646546412E+02  0.32330559272E+02  0.73883087721E+02  0.00000000000E+00 0. -1.
        -14    1    6    6    0    0 -0.79653771386E+02 -0.11441283396E+02  0.64671799072E+01  0.80730729451E+02  0.00000000000E+00 0.  1.
</event>
<event>
12    1  0.8356052E-002  0.2038989E+03  0.7818608E-02  0.1149603E+00
         21   -1    0    0  501  502  0.00000000000E+00  0.00000000000E+00  0.51020840450E+02  0.51020840450E+02  0.00000000000E+00 0. -1.
         21   -1    0    0  502  503 -0.00000000000E+00 -0.00000000000E+00 -0.81735562788E+03  0.81735562788E+03  0.00000000000E+00 0. -1.
         -6    2    1    2    0  503 -0.70273327712E+02 -0.38256694893E+02 -0.25286950602E+03  0.31590803683E+03  0.17161872090E+03 0.  0.
        -24    2    3    3    0    0 -0.70405348474E+02 -0.47591910048E+02 -0.76333803380E+02  0.13906316701E+03  0.79308334275E+02 0.  0.
          6    2    1    2  501    0  0.70273327712E+02  0.38256694893E+02 -0.51346528140E+03  0.55246843150E+03  0.18754428092E+03 0.  0.
         24    2    5    5    0    0 -0.12260418274E+01 -0.22848760449E+02 -0.38342762300E+03  0.39191339695E+03  0.77819018213E+02 0.  0.
          5    1    5    5  501    0  0.71499369539E+02  0.61105455341E+02 -0.13003765840E+03  0.16055503455E+03  0.47000000000E+01 0. -1.
        -13    1    6    6    0    0  0.61698939548E+01 -0.20769776389E+02 -0.38361709305E+03  0.38422848057E+03  0.00000000000E+00 0.  1.
         14    1    6    6    0    0 -0.73959357822E+01 -0.20789840596E+01  0.18947004962E+00  0.76849163766E+01  0.00000000000E+00 0. -1.
         -5    1    3    3    0  503  0.13202076203E+00  0.93352151552E+01 -0.17653570264E+03  0.17684486981E+03  0.47000000000E+01 0.  1.
         11    1    4    4    0    0 -0.18195916771E+02  0.16086049568E+02 -0.44659738037E+02  0.50836449319E+02  0.00000000000E+00 0. -1.
        -12    1    4    4    0    0 -0.52209431703E+02 -0.63677959616E+02 -0.31674065343E+02  0.88226717694E+02  0.00000000000E+00 0.  1.
</event>
<event>
12    1  0.8356052E-002  0.2111398E+03  0.7818608E-02  0.1140995E+00
         21   -1    0    0  501  502  0.00000000000E+00  0.00000000000E+00  0.88626975657E+02  0.88626975657E+02  0.00000000000E+00 0.  1.
         21   -1    0    0  502  503 -0.00000000000E+00 -0.00000000000E+00 -0.11754320657E+04  0.11754320657E+04  0.00000000000E+00 0. -1.
         -6    2    1    2    0  503  0.92547921119E+02  0.78315004369E+02 -0.10219282570E+04  0.10431766659E+04  0.17082691872E+03 0.  0.
        -24    2    3    3    0    0  0.79115743228E+02  0.41512797739E+02 -0.34395355000E+03  0.36405471869E+03  0.79051757984E+02 0.  0.
          6    2    1    2  501    0 -0.92547921119E+02 -0.78315004369E+02 -0.64876833039E+02  0.22088237548E+03  0.17286313291E+03 0.  0.
         24    2    5    5    0    0 -0.12756356338E+03 -0.39864908267E+02 -0.65655966686E+02  0.16865975449E+03  0.79206901273E+02 0.  0.
          5    1    5    5  501    0  0.35015642265E+02 -0.38450096102E+02  0.77913364714E+00  0.52222620987E+02  0.47000000000E+01 0. -1.
        -11    1    6    6    0    0 -0.86618480599E+02 -0.20859475560E+02 -0.13602171468E+00  0.89094878663E+02  0.00000000000E+00 0.  1.
         12    1    6    6    0    0 -0.40945082784E+02 -0.19005432706E+02 -0.65519944972E+02  0.79564875829E+02  0.00000000000E+00 0. -1.
         -5    1    3    3    0  503  0.13432177892E+02  0.36802206630E+02 -0.67797470701E+03  0.67912194720E+03  0.47000000000E+01 0.  1.
         11    1    4    4    0    0  0.40964031220E+02  0.51962089609E+02 -0.28817386081E+03  0.29567259708E+03  0.00000000000E+00 0. -1.
        -12    1    4    4    0    0  0.38151712008E+02 -0.10449291870E+02 -0.55779689190E+02  0.68382121609E+02  0.00000000000E+00 0.  1.
</event>
<event>
12    1  0.8356052E-002  0.2333492E+03  0.7818608E-02  0.1124323E+00
         21   -1    0    0  501  502  0.00000000000E+00  0.00000000000E+00  0.76179484650E+03  0.76179484650E+03  0.00000000000E+00 0.  1.
         21   -1    0    0  502  503 -0.00000000000E+00 -0.00000000000E+00 -0.81858191424E+02  0.81858191424E+02  0.00000000000E+00 0. -1.
         -6    2    1    2    0  503  0.88867701215E+02  0.12956750719E+03  0.49048234359E+03  0.54316182667E+03  0.17253009400E+03 0.  0.
        -24    2    3    3    0    0  0.10314680379E+03  0.13579804985E+03  0.49476918506E+03  0.52633389031E+03  0.56128817346E+02 0.  0.
          6    2    1    2  501    0 -0.88867701215E+02 -0.12956750719E+03  0.18945431149E+03  0.30049121126E+03  0.17238568579E+03 0.  0.
         24    2    5    5    0    0  0.16242395088E+01 -0.75257450031E+02  0.15223751180E+03  0.18848427476E+03  0.81754142979E+02 0.  0.
          5    1    5    5  501    0 -0.90491940724E+02 -0.54310057159E+02  0.37216799690E+02  0.11200693650E+03  0.47000000000E+01 0. -1.
        -13    1    6    6    0    0 -0.26836549603E+02 -0.64071236576E+02  0.13853378761E+03  0.15497397866E+03  0.00000000000E+00 0.  1.
         14    1    6    6    0    0  0.28460789112E+02 -0.11186213455E+02  0.13703724188E+02  0.33510296104E+02  0.00000000000E+00 0. -1.
         -5    1    3    3    0  503 -0.14279102577E+02 -0.62305426547E+01 -0.42868414670E+01  0.16827936354E+02  0.47000000000E+01 0.  1.
         11    1    4    4    0    0 -0.30916412626E+01 -0.51732646147E+00  0.11574250216E+01  0.33414824621E+01  0.00000000000E+00 0. -1.
        -12    1    4    4    0    0  0.10623844505E+03  0.13631537631E+03  0.49361176003E+03  0.52299240785E+03  0.00000000000E+00 0.  1.
</event>
<event>
12    1  0.8356052E-002  0.1747711E+03  0.7818608E-02  0.1173178E+00
         21   -1    0    0  501  502  0.00000000000E+00  0.00000000000E+00  0.12757239406E+03  0.12757239406E+03  0.00000000000E+00 0. -1.
         21   -1    0    0  502  503 -0.00000000000E+00 -0.00000000000E+00 -0.61054927842E+03  0.61054927842E+03  0.00000000000E+00 0. -1.
         -6    2    1    2    0  503 -0.17700408178E+02  0.16698239631E+02 -0.52944572185E+03  0.55727839338E+03  0.17220423827E+03 0.  0.
        -24    2    3    3    0    0 -0.64119252201E+02  0.17193361010E+01 -0.20972222692E+03  0.23382162680E+03  0.81085794533E+02 0.  0.
          6    2    1    2  501    0  0.17700408178E+02 -0.16698239631E+02  0.46468837489E+02  0.18084327910E+03  0.17306878136E+03 0.  0.
         24    2    5    5    0    0  0.78886477668E+02 -0.15710540918E+02  0.38392946951E+02  0.11893996210E+03  0.78757848834E+02 0.  0.
          5    1    5    5  501    0 -0.61186069490E+02 -0.98769871324E+00  0.80758905385E+01  0.61903317007E+02  0.47000000000E+01 0. -1.
        -11    1    6    6    0    0  0.62492152544E+02 -0.32146916457E+02 -0.42320869763E+01  0.70403152823E+02  0.00000000000E+00 0.  1.
         12    1    6    6    0    0  0.16394325124E+02  0.16436375539E+02  0.42625033927E+02  0.48536809273E+02  0.00000000000E+00 0. -1.
         -5    1    3    3    0  503  0.46418844023E+02  0.14978903530E+02 -0.31972349493E+03  0.32345676658E+03  0.47000000000E+01 0.  1.
         11    1    4    4    0    0 -0.23360265606E+02  0.34324585132E+02 -0.14415727858E+03  0.15001733273E+03  0.00000000000E+00 0. -1.
        -12    1    4    4    0    0 -0.40758986595E+02 -0.32605249031E+02 -0.65564948345E+02  0.83804294067E+02  0.00000000000E+00 0.  1.
</event>
<event>
12    1  0.8356052E-002  0.1893170E+03  0.7818608E-02  0.1160041E+00
         21   -1    0    0  501  502  0.00000000000E+00  0.00000000000E+00  0.14125226720E+03  0.14125226720E+03  0.00000000000E+00 0. -1.
         21   -1    0    0  502  503 -0.00000000000E+00 -0.00000000000E+00 -0.26869890591E+03  0.26869890591E+03  0.00000000000E+00 0. -1.
         -6    2    1    2    0  503 -0.40069820831E+02 -0.56838871885E+02 -0.63766941450E+01  0.18523162252E+03  0.17156294429E+03 0.  0.
        -24    2    3    3    0    0  0.82007270320E+01 -0.58383913979E+02 -0.57502408364E+02  0.11474501670E+03  0.79899678059E+02 0.  0.
          6    2    1    2  501    0  0.40069820831E+02  0.56838871885E+02 -0.12106994456E+03  0.22471955060E+03  0.17608150682E+03 0.  0.
         24    2    5    5    0    0 -0.46198919169E+02  0.40740610020E+02 -0.52026845621E+02  0.11295869409E+03  0.79112176479E+02 0.  0.
          5    1    5    5  501    0  0.86268740000E+02  0.16098261865E+02 -0.69043098943E+02  0.11176085651E+03  0.47000000000E+01 0. -1.
        -11    1    6    6    0    0 -0.71230895879E+00 -0.15891028904E+02 -0.34863864518E+02  0.38321289550E+02  0.00000000000E+00 0.  1.
         12    1    6    6    0    0 -0.45486610210E+02  0.56631638924E+02 -0.17162981103E+02  0.74637404536E+02  0.00000000000E+00 0. -1.
         -5    1    3    3    0  503 -0.48270547863E+02  0.15450420936E+01  0.51125714219E+02  0.70486605823E+02  0.47000000000E+01 0.  1.
         11    1    4    4    0    0 -0.88969020964E+01 -0.68165662463E+02 -0.18720345691E+02  0.71247201690E+02  0.00000000000E+00 0. -1.
        -12    1    4    4    0    0  0.17097629128E+02  0.97817484844E+01 -0.38782062673E+02  0.43497815007E+02  0.00000000000E+00 0.  1.
</event>
<event>
12    1  0.8356052E-002  0.1827600E+03  0.7818608E-02  0.1166498E+00
         21   -1    0    0  501  502  0.00000000000E+00  0.00000000000E+00  0.18661615884E+02  0.18661615884E+02  0.00000000000E+00 0. -1.
         21   -1    0    0  502  503 -0.00000000000E+00 -0.00000000000E+00 -0.17450712301E+04  0.17450712301E+04  0.00000000000E+00 0. -1.
         -6    2    1    2    0  503 -0.48302070190E+02 -0.13078368180E+01 -0.81233378840E+03  0.83263882705E+03  0.17625672218E+03 0.  0.
        -24    2    3    3    0    0 -0.20153123560E+02 -0.69565675385E+02 -0.45256292338E+03  0.46533968325E+03  0.80512667355E+02 0.  0.
          6    2    1    2  501    0  0.48302070190E+02  0.13078368180E+01 -0.91407582579E+03  0.93109401891E+03  0.17048946106E+03 0.  0.
         24    2    5    5    0    0 -0.13318886812E+02 -0.52272272240E+02 -0.48130374540E+03  0.49066044390E+03  0.78642181315E+02 0.  0.
          5    1    5    5  501    0  0.61620957002E+02  0.53580109058E+02 -0.43277208039E+03  0.44043357501E+03  0.47000000000E+01 0. -1.
        -13    1    6    6    0    0  0.11457074348E+02 -0.51327114847E+02 -0.43471874550E+03  0.43788825625E+03  0.00000000000E+00 0.  1.
         14    1    6    6    0    0 -0.24775961160E+02 -0.94515739289E+00 -0.46584999896E+02  0.52772187648E+02  0.00000000000E+00 0. -1.
         -5    1    3    3    0  503 -0.28148946631E+02  0.68257838567E+02 -0.35977086501E+03  0.36729914380E+03  0.47000000000E+01 0.  1.
         11    1    4    4    0    0 -0.38420397901E+02 -0.22106150501E+02 -0.10350828269E+03  0.11260005973E+03  0.00000000000E+00 0. -1.
        -12    1    4    4    0    0  0.18267274341E+02 -0.47459524884E+02 -0.34905464069E+03  0.35273962352E+03  0.00000000000E+00 0.  1.
</event>
<event>
12    1  0.8356052E-002  0.2429886E+03  0.7818608E-02  0.1117843E+00
         21   -1    0    0  501  502  0.00000000000E+00  0.00000000000E+00  0.78092991800E+03  0.78092991800E+03  0.00000000000E+00 0. -1.
         21   -1    0    0  502  503 -0.00000000000E+00 -0.00000000000E+00 -0.95155076157E+02  0.95155076157E+02  0.00000000000E+00 0.  1.
         -6    2    1    2    0  503  0.53314243354E+02 -0.16295701557E+03  0.14418960710E+03  0.28254929708E+03  0.17218032703E+03 0.  0.
        -24    2    3    3    0    0 -0.80595371446E+01 -0.10575671326E+03  0.23309683631E+02  0.13533292090E+03  0.80760259963E+02 0.  0.
          6    2    1    2  501    0 -0.53314243354E+02  0.16295701557E+03  0.54158523474E+03  0.59353569708E+03  0.17196703099E+03 0.  0.
         24    2    5    5    0    0  0.33780702988E+02  0.66097680478E+02  0.19255574714E+03  0.22096230338E+03  0.78972048864E+02 0.  0.
          5    1    5    5  501    0 -0.87094946341E+02  0.96859335092E+02  0.34902948760E+03  0.37257339369E+03  0.47000000000E+01 0. -1.
        -11    1    6    6    0    0  0.77145504750E+01  0.71698597821E+02  0.17435981739E+03  0.18868372781E+03  0.00000000000E+00 0.  1.
         12    1    6    6    0    0  0.26066152513E+02 -0.56009173430E+01  0.18195929747E+02  0.32278575576E+02  0.00000000000E+00 0. -1.
         -5    1    3    3    0  503  0.61373780498E+02 -0.57200302306E+02  0.12087992347E+03  0.14721637618E+03  0.47000000000E+01 0.  1.
         13    1    4    4    0    0  0.94161597493E+01 -0.38546723786E+02  0.47410842401E+02  0.61824768145E+02  0.00000000000E+00 0. -1.
        -14    1    4    4    0    0 -0.17475696894E+02 -0.67209989478E+02 -0.24101158770E+02  0.73508152756E+02  0.00000000000E+00 0.  1.
</event>
<event>
12    1  0.8356052E-002  0.1917313E+03  0.7818608E-02  0.1157190E+00
         21   -1    0    0  501  502  0.00000000000E+00  0.00000000000E+00  0.49612748611E+02  0.49612748611E+02  0.00000000000E+00 0.  1.
         21   -1    0    0  502  503 -0.00000000000E+00 -0.00000000000E+00 -0.95287388275E+03  0.95287388275E+03  0.00000000000E+00 0.  1.
         -6    2    1    2    0  503  0.75768831743E+02 -0.35865162065E+02 -0.21370604257E+03  0.28710826787E+03  0.17243450681E+03 0.  0.
        -24    2    3    3    0    0  0.88519137663E+02 -0.11663425449E+02 -0.22920716174E+03  0.25531724631E+03  0.68405409494E+02 0.  0.
          6    2    1    2  501    0 -0.75768831743E+02  0.35865162065E+02 -0.68955509157E+03  0.71537836349E+03  0.17103436181E+03 0.  0.
         24    2    5    5    0    0 -0.55751390829E+02 -0.43772905820E+02 -0.34238570921E+03  0.35859889400E+03  0.79629818818E+02 0.  0.
          5    1    5    5  501    0 -0.20017440914E+02  0.79638067886E+02 -0.34716938236E+03  0.35677946948E+03  0.47000000000E+01 0. -1.
        -11    1    6    6    0    0 -0.53114773520E+02  0.75856078805E+01 -0.20495830485E+03  0.21186464391E+03  0.00000000000E+00 0.  1.
         12    1    6    6    0    0 -0.26366173093E+01 -0.51358513701E+02 -0.13742740436E+03  0.14673425009E+03  0.00000000000E+00 0. -1.
         -5    1    3    3    0  503 -0.12750305920E+02 -0.24201736616E+02  0.15501119169E+02  0.31791021559E+02  0.47000000000E+01 0.  1.
         13    1    4    4    0    0 -0.10984841113E+02 -0.33080209032E+01 -0.36734233230E+02  0.38483939866E+02  0.00000000000E+00 0. -1.
        -14    1    4    4    0    0  0.99503978776E+02 -0.83554045457E+01 -0.19247292851E+03  0.21683330645E+03  0.00000000000E+00 0.  1.
</event>
<event>
12    1  0.8356052E-002  0.1837409E+03  0.7818608E-02  0.1164358E+00
         21   -1    0    0  503  502  0.00000000000E+00  0.00000000000E+00  0.94020094349E+02  0.94020094349E+02  0.00000000000E+00 0.  1.
         21   -1    0    0  501  503 -0.00000000000E+00 -0.00000000000E+00 -0.52461102794E+03  0.52461102794E+03  0.00000000000E+00 0.  1.
          6    2    1    2  501    0 -0.33130162909E+02 -0.49053415905E+02 -0.38981253880E+03  0.43094607860E+03  0.17394499691E+03 0.  0.
         24    2    3    3    0    0 -0.73554340189E+02 -0.75147132916E+02 -0.24808123457E+03  0.28119679221E+03  0.80436337909E+02 0.  0.
         -6    2    1    2    0  502  0.33130162909E+02  0.49053415905E+02 -0.40778394789E+02  0.18768504369E+03  0.17337517941E+03 0.  0.
        -24    2    5    5    0    0 -0.26991635030E+02  0.72202799064E+02  0.11439708957E+01  0.11067790588E+03  0.79413459988E+02 0.  0.
          5    1    3    3  501    0  0.40424177281E+02  0.26093717011E+02 -0.14173130423E+03  0.14974928639E+03  0.47000000000E+01 0. -1.
        -13    1    4    4    0    0 -0.37761469052E+02  0.58966356027E+01 -0.11616613359E+03  0.12229173909E+03  0.00000000000E+00 0.  1.
         14    1    4    4    0    0 -0.35792871138E+02 -0.81043768518E+02 -0.13191510098E+03  0.15890505312E+03  0.00000000000E+00 0. -1.
         -5    1    5    5    0  502  0.60121797939E+02 -0.23149383159E+02 -0.41922365685E+02  0.77007137803E+02  0.47000000000E+01 0.  1.
         11    1    6    6    0    0 -0.41908464455E+02  0.27404691628E+02  0.26954728426E+02  0.56867335973E+02  0.00000000000E+00 0. -1.
        -12    1    6    6    0    0  0.14916829424E+02  0.44798107435E+02 -0.25810757530E+02  0.53810569911E+02  0.00000000000E+00 0.  1.
</event>
<event>
12    1  0.8356052E-002  0.2290943E+03  0.7818608E-02  0.1127633E+00
         21   -1    0    0  503  502  0.00000000000E+00  0.00000000000E+00  0.38071318531E+02  0.38071318531E+02  0.00000000000E+00 0.  1.
         21   -1    0    0  501  503 -0.00000000000E+00 -0.00000000000E+00 -0.13704868693E+04  0.13704868693E+04  0.00000000000E+00 0.  1.
          6    2    1    2  501    0 -0.14587870787E+03 -0.33945519631E+02 -0.70653437145E+03  0.74274827177E+03  0.17335305441E+03 0.  0.
         24    2    3    3    0    0 -0.12952580312E+03  0.16303176870E+02 -0.63909874852E+03  0.65694616088E+03  0.78027691799E+02 0.  0.
         -6    2    1    2    0  502  0.14587870787E+03  0.33945519631E+02 -0.62588117929E+03  0.66580991602E+03  0.17071232521E+03 0.  0.
        -24    2    5    5    0    0  0.10476170576E+03 -0.41515231572E+02 -0.32696991998E+03  0.35475531667E+03  0.79015673716E+02 0.  0.
          5    1    3    3  501    0 -0.16352904751E+02 -0.50248696501E+02 -0.67435622925E+02  0.85802110890E+02  0.47000000000E+01 0. -1.
        -13    1    4    4    0    0 -0.81310479527E+02 -0.28310716969E+02 -0.38282146643E+03  0.39238395219E+03  0.00000000000E+00 0.  1.
         14    1    4    4    0    0 -0.48215323590E+02  0.44613893839E+02 -0.25627728209E+03  0.26456220869E+03  0.00000000000E+00 0. -1.
         -5    1    5    5    0  502  0.41117002111E+02  0.75460751203E+02 -0.29891125931E+03  0.31105459935E+03  0.47000000000E+01 0.  1.
         13    1    6    6    0    0  0.33950758660E+02 -0.51271348177E+02 -0.10639283452E+03  0.12288547674E+03  0.00000000000E+00 0. -1.
        -14    1    6    6    0    0  0.70810947097E+02  0.97561166049E+01 -0.22057708546E+03  0.23186983993E+03  0.00000000000E+00 0.  1.
</event>
<event>
12    1  0.8356052E-002  0.2158499E+03  0.7818608E-02  0.1137721E+00
         21   -1    0    0  501  502  0.00000000000E+00  0.00000000000E+00  0.61089096030E+02  0.61089096030E+02  0.00000000000E+00 0. -1.
         21   -1    0    0  502  503 -0.00000000000E+00 -0.00000000000E+00 -0.84404154775E+03  0.84404154775E+03  0.00000000000E+00 0. -1.
         -6    2    1    2    0  503  0.44928981877E+02  0.11574511840E+03 -0.53972317446E+03  0.57993583468E+03  0.17207243081E+03 0.  0.
        -24    2    3    3    0    0 -0.34054803322E+01  0.11926463216E+03 -0.27505119272E+03  0.31082255903E+03  0.81986918474E+02 0.  0.
          6    2    1    2  501    0 -0.44928981877E+02 -0.11574511840E+03 -0.24322927726E+03  0.32519480911E+03  0.17656623886E+03 0.  0.
         24    2    5    5    0    0 -0.97626344339E+02 -0.81438835768E+02 -0.18906382374E+03  0.24206888419E+03  0.81786479099E+02 0.  0.
          5    1    5    5  501    0  0.52697362462E+02 -0.34306282636E+02 -0.54165453522E+02  0.83125924921E+02  0.47000000000E+01 0. -1.
        -13    1    6    6    0    0  0.47131557251E+01  0.11498089315E+02 -0.10654707904E+02  0.16368955230E+02  0.00000000000E+00 0.  1.
         14    1    6    6    0    0 -0.10233950006E+03 -0.92936925083E+02 -0.17840911584E+03  0.22569992896E+03  0.00000000000E+00 0. -1.
         -5    1    3    3    0  503  0.48334462210E+02 -0.35195137574E+01 -0.26467198174E+03  0.26911327565E+03  0.47000000000E+01 0.  1.
         11    1    4    4    0    0  0.18123135781E+02  0.88425785348E+02 -0.24957453326E+03  0.26539595931E+03  0.00000000000E+00 0. -1.
        -12    1    4    4    0    0 -0.21528616114E+02  0.30838846813E+02 -0.25476659460E+02  0.45426599716E+02  0.00000000000E+00 0.  1.
</event>
<event>
12    1  0.8356052E-002  0.2527500E+03  0.7818608E-02  0.1111656E+00
         21   -1    0    0  501  502  0.00000000000E+00  0.00000000000E+00  0.17208784054E+03  0.17208784054E+03  0.00000000000E+00 0. -1.
         21   -1    0    0  502  503 -0.00000000000E+00 -0.00000000000E+00 -0.37345562433E+03  0.37345562433E+03  0.00000000000E+00 0.  1.
         -6    2    1    2    0  503 -0.17375657925E+03  0.62480282489E+02 -0.76492656181E+02  0.26407141090E+03  0.17259040841E+03 0.  0.
        -24    2    3    3    0    0 -0.26096288239E+02  0.15664100643E+02  0.10422960854E+02  0.86387053381E+02  0.80172966579E+02 0.  0.
          6    2    1    2  501    0  0.17375657925E+03 -0.62480282489E+02 -0.12487512761E+03  0.28147205396E+03  0.17186502011E+03 0.  0.
         24    2    5    5    0    0  0.68831354249E+02 -0.36716923773E+02  0.45017966962E+01  0.11284959984E+03  0.81417923033E+02 0.  0.
          5    1    5    5  501    0  0.10492522500E+03 -0.25763358717E+02 -0.12937692430E+03  0.16862245413E+03  0.47000000000E+01 0. -1.
        -11    1    6    6    0    0 -0.16894728396E+02 -0.31706653561E+01  0.11254457501E+02  0.20546235179E+02  0.00000000000E+00 0.  1.
         12    1    6    6    0    0  0.85726082645E+02 -0.33546258417E+02 -0.67526608051E+01  0.92303364659E+02  0.00000000000E+00 0. -1.
         -5    1    3    3    0  503 -0.14766029101E+03  0.46816181846E+02 -0.86915617035E+02  0.17768435752E+03  0.47000000000E+01 0.  1.
         11    1    4    4    0    0 -0.53377474772E+02  0.21980353097E+02  0.80364591047E+01  0.58282719653E+02  0.00000000000E+00 0. -1.
        -12    1    4    4    0    0  0.27281186532E+02 -0.63162524536E+01  0.23865017490E+01  0.28104333728E+02  0.00000000000E+00 0.  1.
</event>
<event>
12    1  0.8356052E-002  0.1861135E+03  0.7818608E-02  0.1162139E+00
         21   -1    0    0  501  502  0.00000000000E+00  0.00000000000E+00  0.79171810592E+02  0.79171810592E+02  0.00000000000E+00 0.  1.
         21   -1    0    0  502  503 -0.00000000000E+00 -0.00000000000E+00 -0.51109144050E+03  0.51109144050E+03  0.00000000000E+00 0.  1.
         -6    2    1    2    0  503 -0.36634042272E+02  0.58468775251E+02 -0.32916689809E+03  0.37813896459E+03  0.17285132055E+03 0.  0.
        -24    2    3    3    0    0  0.36704729305E+02  0.29272589520E+02 -0.24493352929E+03  0.26260393486E+03  0.82245189411E+02 0.  0.
          6    2    1    2  501    0  0.36634042272E+02 -0.58468775251E+02 -0.10275273182E+03  0.21212428650E+03  0.17227286000E+03 0.  0.
         24    2    5    5    0    0  0.82058714888E+02 -0.73481823067E+02 -0.61659452104E+02  0.14888236903E+03  0.78935801534E+02 0.  0.
          5    1    5    5  501    0 -0.45424672616E+02  0.15013047816E+02 -0.41093279715E+02  0.63241917466E+02  0.47000000000E+01 0. -1.
        -11    1    6    6    0    0  0.32198683523E+02 -0.53263716932E+02 -0.70843913333E+02  0.94300789066E+02  0.00000000000E+00 0.  1.
         12    1    6    6    0    0  0.49860031364E+02 -0.20218106135E+02  0.91844612289E+01  0.54581579964E+02  0.00000000000E+00 0. -1.
         -5    1    3    3    0  503 -0.73338771577E+02  0.29196185731E+02 -0.84233368793E+02  0.11553502974E+03  0.47000000000E+01 0.  1.
         11    1    4    4    0    0  0.33938690525E+02 -0.19831410042E+02 -0.64019857479E+02  0.75124308253E+02  0.00000000000E+00 0. -1.
        -12    1    4    4    0    0  0.27660387798E+01  0.49103999561E+02 -0.18091367181E+03  0.18747962661E+03  0.00000000000E+00 0.  1.
</event>
<event>
12    1  0.8356052E-002  0.1766737E+03  0.7818608E-02  0.1171374E+00
         21   -1    0    0  503  502  0.00000000000E+00  0.00000000000E+00  0.28099274277E+03  0.28099274277E+03  0.00000000000E+00 0. -1.
         21   -1    0    0  501  503 -0.00000000000E+00 -0.00000000000E+00 -0.13845934665E+03  0.13845934665E+03  0.00000000000E+00 0. -1.
          6    2    1    2  501    0 -0.19185773616E+02  0.30033730179E+02  0.16565054143E+03  0.24127242850E+03  0.17176193997E+03 0.  0.
         24    2    3    3    0    0 -0.68102983442E+02 -0.17990195997E+02  0.93889420370E+02  0.14191982714E+03  0.79776879935E+02 0.  0.
         -6    2    1    2    0  502  0.19185773616E+02 -0.30033730179E+02 -0.23117145313E+02  0.17817966091E+03  0.17304181662E+03 0.  0.
        -24    2    5    5    0    0  0.15974303564E+02  0.25288062536E+02 -0.42249362185E+02  0.11936685609E+03  0.10755823188E+03 0.  0.
          5    1    3    3  501    0  0.48917209826E+02  0.48023926177E+02  0.71761121056E+02  0.99352601364E+02  0.47000000000E+01 0. -1.
        -11    1    4    4    0    0 -0.14765314513E+02  0.10367688668E+02  0.77156153897E+02  0.79237463142E+02  0.00000000000E+00 0.  1.
         12    1    4    4    0    0 -0.53337668929E+02 -0.28357884665E+02  0.16733266473E+02  0.62682363998E+02  0.00000000000E+00 0. -1.
         -5    1    5    5    0  502  0.32114700514E+01 -0.55321792715E+02  0.19132216872E+02  0.58812804826E+02  0.47000000000E+01 0.  1.
         11    1    6    6    0    0 -0.24468828925E+02 -0.29727093981E+02 -0.32515782673E+02  0.50395434598E+02  0.00000000000E+00 0. -1.
        -12    1    6    6    0    0  0.40443132490E+02  0.55015156517E+02 -0.97335795125E+01  0.68971421489E+02  0.00000000000E+00 0.  1.
</event>
<event>
12    1  0.8356052E-002  0.1977354E+03  0.7818608E-02  0.1151825E+00
         21   -1    0    0  503  502  0.00000000000E+00  0.00000000000E+00  0.36767824332E+03  0.36767824332E+03  0.00000000000E+00 0.  1.
         21   -1    0    0  501  503 -0.00000000000E+00 -0.00000000000E+00 -0.22330737712E+03  0.22330737712E+03  0.00000000000E+00 0. -1.
          6    2    1    2  501    0 -0.84673204616E+02  0.41530944350E+02 -0.14210559407E+03  0.24289359785E+03  0.17294198187E+03 0.  0.
         24    2    3    3    0    0 -0.41286540735E+02  0.82115885078E+02 -0.47876827044E+02  0.13140059111E+03  0.80785690251E+02 0.  0.
         -6    2    1    2    0  502  0.84673204616E+02 -0.41530944350E+02  0.28647646027E+03  0.34809202259E+03  0.17379563570E+03 0.  0.
        -24    2    5    5    0    0  0.63116558316E+02  0.12670900172E+02  0.57415509163E+02  0.11167387974E+03  0.70924347580E+02 0.  0.
          5    1    3    3  501    0 -0.43386663881E+02 -0.40584940729E+02 -0.94228767024E+02  0.11149300674E+03  0.47000000000E+01 0. -1.
        -11    1    4    4    0    0 -0.19699882769E+02  0.92425206252E+02 -0.50817764382E+02  0.10729841242E+03  0.00000000000E+00 0.  1.
         12    1    4    4    0    0 -0.21586657966E+02 -0.10309321174E+02  0.29409373377E+01  0.24102178691E+02  0.00000000000E+00 0. -1.
         -5    1    5    5    0  502  0.21556646300E+02 -0.54201844521E+02  0.22906095110E+03  0.23641814285E+03  0.47000000000E+01 0.  1.
         13    1    6    6    0    0  0.24378004546E+02  0.37471249516E+02  0.10393822063E+02  0.45895677171E+02  0.00000000000E+00 0. -1.
        -14    1    6    6    0    0  0.38738553771E+02 -0.24800349345E+02  0.47021687101E+02  0.65778202572E+02  0.00000000000E+00 0.  1.
</event>
<event>
12    1  0.8356052E-002  0.1898808E+03  0.7818608E-02  0.1158587E+00
         21   -1    0    0  501  502  0.00000000000E+00  0.00000000000E+00  0.84544472806E+03  0.84544472806E+03  0.00000000000E+00 0.  1.
         21   -1    0    0  502  503 -0.00000000000E+00 -0.00000000000E+00 -0.57711384116E+02  0.57711384116E+02  0.00000000000E+00 0. -1.
         -6    2    1    2    0  503  0.57974405662E+02  0.55529770830E+02  0.16294780109E+03  0.25015405339E+03  0.17198975954E+03 0.  0.
        -24    2    3    3    0    0 -0.35516887656E+02  0.21914721809E+02  0.77843898233E+02  0.11925196124E+03  0.80122739766E+02 0.  0.
          6    2    1    2  501    0 -0.57974405662E+02 -0.55529770830E+02  0.62478554286E+03  0.65300205879E+03  0.17207593398E+03 0.  0.
         24    2    5    5    0    0 -0.21154768525E+02  0.42977475945E+02  0.29588620575E+03  0.30766710936E+03  0.69396078842E+02 0.  0.
          5    1    5    5  501    0 -0.36819637137E+02 -0.98507246775E+02  0.32889933711E+03  0.34533494943E+03  0.47000000000E+01 0. -1.
        -13    1    6    6    0    0 -0.19780790608E+02  0.17684475756E+02  0.27052397210E+03  0.27182207386E+03  0.00000000000E+00 0.  1.
         14    1    6    6    0    0 -0.13739779166E+01  0.25293000189E+02  0.25362233651E+02  0.35845035495E+02  0.00000000000E+00 0. -1.
         -5    1    3    3    0  503  0.93491293318E+02  0.33615049021E+02  0.85103902853E+02  0.13090209214E+03  0.47000000000E+01 0.  1.
         13    1    4    4    0    0  0.19399225012E+02 -0.14557076907E+02  0.24174041552E+02  0.34243579020E+02  0.00000000000E+00 0. -1.
        -14    1    4    4    0    0 -0.54916112667E+02  0.36471798717E+02  0.53669856681E+02  0.85008382223E+02  0.00000000000E+00 0.  1.
</event>
<event>
12    1  0.8356052E-002  0.2199254E+03  0.7818608E-02  0.1134071E+00
         21   -1    0    0  503  502  0.00000000000E+00  0.00000000000E+00  0.33883181138E+03  0.33883181138E+03  0.00000000000E+00 0. -1.
         21   -1    0    0  501  503 -0.00000000000E+00 -0.00000000000E+00 -0.14440063184E+03  0.14440063184E+03  0.00000000000E+00 0. -1.
          6    2    1    2  501    0  0.95937377688E+02 -0.95378204432E+02  0.12629623304E+03  0.25299440974E+03  0.17249478416E+03 0.  0.
         24    2    3    3    0    0  0.25377662469E+01 -0.43971842731E+02  0.60923669792E+01  0.92254990631E+02  0.80832562438E+02 0.  0.
         -6    2    1    2    0  502 -0.95937377688E+02  0.95378204432E+02  0.68134946495E+02  0.23023803348E+03  0.17339607495E+03 0.  0.
        -24    2    5    5    0    0 -0.12304795160E+03  0.45546318630E+02  0.19173326240E+02  0.15515454449E+03  0.80560850926E+02 0.  0.
          5    1    3    3  501    0  0.93399611441E+02 -0.51406361701E+02  0.12020386606E+03  0.16073941911E+03  0.47000000000E+01 0. -1.
        -11    1    4    4    0    0  0.13186369143E+02 -0.34448710259E+02 -0.33708137382E+02  0.49968314915E+02  0.00000000000E+00 0.  1.
         12    1    4    4    0    0 -0.10648602896E+02 -0.95231324720E+01  0.39800504361E+02  0.42286675716E+02  0.00000000000E+00 0. -1.
         -5    1    5    5    0  502  0.27110573915E+02  0.49831885802E+02  0.48961620256E+02  0.75083488988E+02  0.47000000000E+01 0.  1.
         13    1    6    6    0    0 -0.74942647342E+02  0.16676638205E+02  0.49529092005E+02  0.91365428950E+02  0.00000000000E+00 0. -1.
        -14    1    6    6    0    0 -0.48105304262E+02  0.28869680424E+02 -0.30355765766E+02  0.63789115538E+02  0.00000000000E+00 0.  1.
</event>
<event>
12    1  0.8356052E-002  0.1924681E+03  0.7818608E-02  0.1156575E+00
         21   -1    0    0  503  502  0.00000000000E+00  0.00000000000E+00  0.41513866329E+03  0.41513866329E+03  0.00000000000E+00 0. -1.
         21   -1    0    0  501  503 -0.00000000000E+00 -0.00000000000E+00 -0.14895497409E+03  0.14895497409E+03  0.00000000000E+00 0.  1.
          6    2    1    2  501    0  0.46908413494E+02 -0.72967451339E+02 -0.46792875092E+02  0.19667249718E+03  0.17019356561E+03 0.  0.
         24    2    3    3    0    0 -0.34504650314E+02 -0.37635801091E+02 -0.59844381524E+02  0.10684575123E+03  0.72302421390E+02 0.  0.
         -6    2    1    2    0  502 -0.46908413494E+02  0.72967451339E+02  0.31297656429E+03  0.36742114020E+03  0.17181186298E+03 0.  0.
        -24    2    5    5    0    0  0.82605411408E+01  0.41981019191E+02  0.28399182153E+03  0.29766457889E+03  0.78244516222E+02 0.  0.
          5    1    3    3  501    0  0.81413063808E+02 -0.35331650248E+02  0.13051506432E+02  0.89826745950E+02  0.47000000000E+01 0. -1.
        -11    1    4    4    0    0  0.81194220574E+01 -0.80922409027E+01 -0.53363291556E+02  0.54580676646E+02  0.00000000000E+00 0.  1.
         12    1    4    4    0    0 -0.42624072372E+02 -0.29543560188E+02 -0.64810899682E+01  0.52265074585E+02  0.00000000000E+00 0. -1.
         -5    1    5    5    0  502 -0.55168954634E+02  0.30986432148E+02  0.28984742761E+02  0.69756561309E+02  0.47000000000E+01 0.  1.
         13    1    6    6    0    0 -0.14361700142E+01 -0.22467188841E+01  0.21575856324E+03  0.21577504012E+03  0.00000000000E+00 0. -1.
        -14    1    6    6    0    0  0.96967111550E+01  0.44227738075E+02  0.68233258289E+02  0.81889538766E+02  0.00000000000E+00 0.  1.
</event>
<event>
12    1  0.8356052E-002  0.2060471E+03  0.7818608E-02  0.1145563E+00
         21   -1    0    0  503  502  0.00000000000E+00  0.00000000000E+00  0.28341217625E+04  0.28341217625E+04  0.00000000000E+00 0. -1.
         21   -1    0    0  501  503 -0.00000000000E+00 -0.00000000000E+00 -0.16512081162E+02  0.16512081162E+02  0.00000000000E+00 0. -1.
          6    2    1    2  501    0  0.27700331344E+01  0.10576445361E+03  0.18949048764E+04  0.19060744785E+04  0.17680959808E+03 0.  0.
         24    2    3    3    0    0  0.70688533473E+02  0.70284212151E+02  0.10498815968E+04  0.10575709703E+04  0.79172284913E+02 0.  0.
         -6    2    1    2    0  502 -0.27700331344E+01 -0.10576445361E+03  0.92270480492E+03  0.94455936522E+03  0.17208847918E+03 0.  0.
        -24    2    5    5    0    0 -0.34045342403E+02 -0.12364632469E+03  0.67610433885E+03  0.69529688078E+03  0.99363858928E+02 0.  0.
          5    1    3    3  501    0 -0.67918500338E+02  0.35480241462E+02  0.84502327964E+03  0.84850350816E+03  0.47000000000E+01 0. -1.
        -13    1    4    4    0    0  0.72611226893E+02  0.74760579866E+02  0.10464140552E+04  0.10515911323E+04  0.00000000000E+00 0.  1.
         14    1    4    4    0    0 -0.19226934206E+01 -0.44763677153E+01  0.34675415652E+01  0.59798379927E+01  0.00000000000E+00 0. -1.
         -5    1    5    5    0  502  0.31275309269E+02  0.17881871075E+02  0.24660046607E+03  0.24926248444E+03  0.47000000000E+01 0.  1.
         11    1    6    6    0    0 -0.26603875050E+01  0.17385987673E+02  0.64121576791E+02  0.66490050678E+02  0.00000000000E+00 0. -1.
        -12    1    6    6    0    0 -0.31384954898E+02 -0.14103231236E+03  0.61198276206E+03  0.62880683010E+03  0.00000000000E+00 0.  1.
</event>
<event>
12    1  0.8356052E-002  0.1972768E+03  0.7818608E-02  0.1152588E+00
         21   -1    0    0  503  502  0.00000000000E+00  0.00000000000E+00  0.20131040816E+03  0.20131040816E+03  0.00000000000E+00 0. -1.
         21   -1    0    0  501  503 -0.00000000000E+00 -0.00000000000E+00 -0.21951396268E+03  0.21951396268E+03  0.00000000000E+00 0. -1.
          6    2    1    2  501    0  0.92112145213E+02 -0.26186613021E+02 -0.85084042633E+02  0.21484281774E+03  0.17247537803E+03 0.  0.
         24    2    3    3    0    0  0.67635381047E+02 -0.12016613766E+01  0.14620385234E+02  0.10907693133E+03  0.84309148522E+02 0.  0.
         -6    2    1    2    0  502 -0.92112145213E+02  0.26186613021E+02  0.66880488112E+02  0.20598155310E+03  0.16966147038E+03 0.  0.
        -24    2    5    5    0    0 -0.38650185362E+01 -0.16836560061E+02 -0.94424355076E+01  0.81539488437E+02  0.79127242232E+02 0.  0.
          5    1    3    3  501    0  0.24476764166E+02 -0.24984951644E+02 -0.99704427867E+02  0.10576588641E+03  0.47000000000E+01 0. -1.
        -13    1    4    4    0    0  0.80191223591E+02  0.24578188832E+01 -0.10345304419E+02  0.80893130352E+02  0.00000000000E+00 0.  1.
         14    1    4    4    0    0 -0.12555842543E+02 -0.36594802599E+01  0.24965689652E+02  0.28183800978E+02  0.00000000000E+00 0. -1.
         -5    1    5    5    0  502 -0.88247126677E+02  0.43023173082E+02  0.76322923620E+02  0.12444206467E+03  0.47000000000E+01 0.  1.
         13    1    6    6    0    0 -0.35176154085E+02 -0.17755249566E+02  0.14632210452E+02  0.42032276718E+02  0.00000000000E+00 0. -1.
        -14    1    6    6    0    0  0.31311135549E+02  0.91868950518E+00 -0.24074645960E+02  0.39507211719E+02  0.00000000000E+00 0.  1.
</event>
<event>
12    1  0.8356052E-002  0.2484575E+03  0.7818608E-02  0.1114609E+00
         21   -1    0    0  503  502  0.00000000000E+00  0.00000000000E+00  0.39903460346E+03  0.39903460346E+03  0.00000000000E+00 0.  1.
         21   -1    0    0  501  503 -0.00000000000E+00 -0.00000000000E+00 -0.17464322099E+03  0.17464322099E+03  0.00000000000E+00 0. -1.
          6    2    1    2  501    0  0.50302085522E+02 -0.17318613358E+03  0.11839658600E+02  0.24670784576E+03  0.16793107804E+03 0.  0.
         24    2    3    3    0    0  0.83050640906E+02 -0.17180461633E+03  0.29971529341E+02  0.20895561131E+03  0.79686383900E+02 0.  0.
         -6    2    1    2    0  502 -0.50302085522E+02  0.17318613358E+03  0.21255172386E+03  0.32696997869E+03  0.17090171144E+03 0.  0.
        -24    2    5    5    0    0  0.17083646599E+01  0.13271427573E+03  0.69469870848E+02  0.16937059776E+03  0.79021129693E+02 0.  0.
          5    1    3    3  501    0 -0.32748555384E+02 -0.13815172519E+01 -0.18131870741E+02  0.37752234453E+02  0.47000000000E+01 0. -1.
        -11    1    4    4    0    0  0.16402523895E+02 -0.12108638631E+03  0.84553621010E+01  0.12248448428E+03  0.00000000000E+00 0.  1.
         12    1    4    4    0    0  0.66648117012E+02 -0.50718230016E+02  0.21516167240E+02  0.86471127030E+02  0.00000000000E+00 0. -1.
         -5    1    5    5    0  502 -0.52010450182E+02  0.40471857849E+02  0.14308185302E+03  0.15759938093E+03  0.47000000000E+01 0.  1.
         13    1    6    6    0    0  0.30659670859E+02  0.21345339228E+02  0.56377770600E+01  0.37781257974E+02  0.00000000000E+00 0. -1.
        -14    1    6    6    0    0 -0.28951306199E+02  0.11136893650E+03  0.63832093788E+02  0.13158933979E+03  0.00000000000E+00 0.  1.
</event>
<event>
12    1  0.8356052E-002  0.2282679E+03  0.7818608E-02  0.1128099E+00
         21   -1    0    0  503  502  0.00000000000E+00  0.00000000000E+00  0.22447088444E+03  0.22447088444E+03  0.00000000000E+00 0. -1.
         21   -1    0    0  501  503 -0.00000000000E+00 -0.00000000000E+00 -0.24480686222E+03  0.24480686222E+03  0.00000000000E+00 0. -1.
          6    2    1    2  501    0 -0.91367044752E+02  0.11626501734E+03  0.45937562735E+02  0.23284437633E+03  0.17389868543E+03 0.  0.
         24    2    3    3    0    0 -0.90467039717E+02  0.77784931976E+01  0.23592231710E+02  0.12197715959E+03  0.77955396432E+02 0.  0.
         -6    2    1    2    0  502  0.91367044752E+02 -0.11626501734E+03 -0.66273540512E+02  0.23643337033E+03  0.17217161586E+03 0.  0.
        -24    2    5    5    0    0  0.13364389762E+03 -0.81277816557E+02 -0.52118223906E+02  0.17956598516E+03  0.71139714153E+02 0.  0.
          5    1    3    3  501    0 -0.90000503513E+00  0.10848652414E+03  0.22345331025E+02  0.11086721674E+03  0.47000000000E+01 0. -1.
        -13    1    4    4    0    0 -0.42357289981E+02 -0.32195479433E+02  0.26339494374E+02  0.59367144738E+02  0.00000000000E+00 0.  1.
         14    1    4    4    0    0 -0.48109749735E+02  0.39973972631E+02 -0.27472626638E+01  0.62610014851E+02  0.00000000000E+00 0. -1.
         -5    1    5    5    0  502 -0.42276852866E+02 -0.34987200786E+02 -0.14155316606E+02  0.56867385163E+02  0.47000000000E+01 0.  1.
         11    1    6    6    0    0  0.91070678956E+02 -0.32325585432E+02 -0.60708891195E+02  0.11412441242E+03  0.00000000000E+00 0. -1.
        -12    1    6    6    0    0  0.42573218662E+02 -0.48952231124E+02  0.85906672883E+01  0.65441572748E+02  0.00000000000E+00 0.  1.
</event>
<event>
12    1  0.8356052E-002  0.1873475E+03  0.7818608E-02  0.1160935E+00
         21   -1    0    0  503  502  0.00000000000E+00  0.00000000000E+00  0.46462889745E+03  0.46462889745E+03  0.00000000000E+00 0. -1.
         21   -1    0    0  501  503 -0.00000000000E+00 -0.00000000000E+00 -0.22195744795E+03  0.22195744795E+03  0.00000000000E+00 0. -1.
          6    2    1    2  501    0 -0.73143940291E+02  0.21648014202E+01 -0.15755436934E+03  0.24479067094E+03  0.17246556442E+03 0.  0.
         24    2    3    3    0    0  0.26329584691E+02 -0.57265325649E+01 -0.95828418507E+02  0.12736223174E+03  0.79448172264E+02 0.  0.
         -6    2    1    2    0  502  0.73143940291E+02 -0.21648014202E+01  0.40022581884E+03  0.44179567447E+03  0.17218591563E+03 0.  0.
        -24    2    5    5    0    0  0.85494501120E+02 -0.36939395267E+02  0.17643742751E+03  0.21493637263E+03  0.79960301477E+02 0.  0.
          5    1    3    3  501    0 -0.99473524982E+02  0.78913339851E+01 -0.61725950837E+02  0.11742843919E+03  0.47000000000E+01 0. -1.
        -13    1    4    4    0    0  0.42816642768E+02  0.63581076991E+01 -0.17975074290E+02  0.46869966153E+02  0.00000000000E+00 0.  1.
         14    1    4    4    0    0 -0.16487058076E+02 -0.12084640264E+02 -0.77853344217E+02  0.80492265592E+02  0.00000000000E+00 0. -1.
         -5    1    5    5    0  502 -0.12350560829E+02  0.34774593846E+02  0.22378839134E+03  0.22685930183E+03  0.47000000000E+01 0.  1.
         11    1    6    6    0    0  0.11900064831E+01 -0.30858653322E+02  0.84908336602E+02  0.90349865660E+02  0.00000000000E+00 0. -1.
        -12    1    6    6    0    0  0.84304494637E+02 -0.60807419450E+01  0.91529090904E+02  0.12458650698E+03  0.00000000000E+00 0.  1.
</event>
<event>
12    1  0.8356052E-002  0.2100463E+03  0.7818608E-02  0.1141780E+00
         21   -1    0    0  501  502  0.00000000000E+00  0.00000000000E+00  0.58227616527E+02  0.58227616527E+02  0.00000000000E+00 0.  1.
         21   -1    0    0  502  503 -0.00000000000E+00 -0.00000000000E+00 -0.13195619782E+04  0.13195619782E+04  0.00000000000E+00 0.  1.
         -6    2    1    2    0  503 -0.10814186435E+03 -0.52139572067E+02 -0.10809163134E+04  0.11008959186E+04  0.17081729740E+03 0.  0.
        -24    2    3    3    0    0 -0.61511937258E+02 -0.99188057987E+02 -0.80680194786E+03  0.81885215328E+03  0.77249443944E+02 0.  0.
          6    2    1    2  501    0  0.10814186435E+03  0.52139572067E+02 -0.18041804825E+03  0.27689367617E+03  0.17235497662E+03 0.  0.
         24    2    5    5    0    0  0.10799240660E+03  0.77581720551E+02 -0.19395582868E+03  0.24769287556E+03  0.77792119658E+02 0.  0.
          5    1    5    5  501    0  0.14945775255E+00 -0.25442148483E+02  0.13537780422E+02  0.29200800602E+02  0.47000000000E+01 0. -1.
        -11    1    6    6    0    0  0.85903745985E+02  0.29229304213E+02 -0.16196179736E+03  0.18564867250E+03  0.00000000000E+00 0.  1.
         12    1    6    6    0    0  0.22088660614E+02  0.48352416338E+02 -0.31994031320E+02  0.62044203062E+02  0.00000000000E+00 0. -1.
         -5    1    3    3    0  503 -0.46629927094E+02  0.47048485920E+02 -0.27411436559E+03  0.28204376531E+03  0.47000000000E+01 0.  1.
         11    1    4    4    0    0  0.15647574380E+01 -0.19307396254E+02 -0.32093729084E+02  0.37486417040E+02  0.00000000000E+00 0. -1.
        -12    1    4    4    0    0 -0.63076694696E+02 -0.79880661733E+02 -0.77470821877E+03  0.78136573624E+03  0.00000000000E+00 0.  1.
</event>
<event>
12    1  0.8356052E-002  0.2242787E+03  0.7818608E-02  0.1131340E+00
         21   -1    0    0  501  502  0.00000000000E+00  0.00000000000E+00  0.11352732163E+03  0.11352732163E+03  0.00000000000E+00 0. -1.
         21   -1    0    0  502  503 -0.00000000000E+00 -0.00000000000E+00 -0.43761250319E+03  0.43761250319E+03  0.00000000000E+00 0. -1.
         -6    2    1    2    0  503  0.12753972054E+03  0.53308833829E+02 -0.17441286711E+03  0.28150538417E+03  0.17238683541E+03 0.  0.
        -24    2    3    3    0    0  0.11736076578E+03 -0.67869226766E+01 -0.63053620748E+02  0.15446963006E+03  0.77881293383E+02 0.  0.
          6    2    1    2  501    0 -0.12753972054E+03 -0.53308833829E+02 -0.14967231445E+03  0.26963444065E+03  0.17661460243E+03 0.  0.
         24    2    5    5    0    0 -0.13188721784E+03 -0.66035155665E+02 -0.17391385456E+03  0.24151679019E+03  0.79557847670E+02 0.  0.
          5    1    5    5  501    0  0.43474972984E+01  0.12726321836E+02  0.24241540110E+02  0.28117650455E+02  0.47000000000E+01 0. -1.
        -13    1    6    6    0    0 -0.53035806210E+02 -0.19653466140E+02 -0.12630031641E+03  0.13838650728E+03  0.00000000000E+00 0.  1.
         14    1    6    6    0    0 -0.78851411627E+02 -0.46381689525E+02 -0.47613538143E+02  0.10313028291E+03  0.00000000000E+00 0. -1.
         -5    1    3    3    0  503  0.10178954759E+02  0.60095756505E+02 -0.11135924637E+03  0.12703575411E+03  0.47000000000E+01 0.  1.
         11    1    4    4    0    0  0.10074699205E+03  0.26173819465E+02 -0.45657199494E+02  0.11366444078E+03  0.00000000000E+00 0. -1.
        -12    1    4    4    0    0  0.16613773733E+02 -0.32960742142E+02 -0.17396421253E+02  0.40805189285E+02  0.00000000000E+00 0.  1.
</event>
<event>
12    1  0.8356052E-002  0.1850570E+03  0.7818608E-02  0.1163825E+00
         21   -1    0    0  503  502  0.00000000000E+00  0.00000000000E+00  0.79054299178E+02  0.79054299178E+02  0.00000000000E+00 0. -1.
         21   -1    0    0  501  503 -0.00000000000E+00 -0.00000000000E+00 -0.43282675382E+03  0.43282675382E+03  0.00000000000E+00 0. -1.
          6    2    1    2  501    0  0.43121410077E+02  0.29761111604E+02 -0.21294521913E+03  0.28212008617E+03  0.17748492021E+03 0.  0.
         24    2    3    3    0    0 -0.43465592782E+02  0.66564075043E+01 -0.74968863269E+02  0.11752755538E+03  0.79112769497E+02 0.  0.
         -6    2    1    2    0  502 -0.43121410077E+02 -0.29761111604E+02 -0.14082723552E+03  0.22976096683E+03  0.17381775469E+03 0.  0.
        -24    2    5    5    0    0 -0.46743474529E+02  0.34682455932E+02 -0.13012079765E+03  0.16416515478E+03  0.81430650863E+02 0.  0.
          5    1    3    3  501    0  0.86587002859E+02  0.23104704100E+02 -0.13797635586E+03  0.16459253079E+03  0.47000000000E+01 0. -1.
        -13    1    4    4    0    0 -0.25414110451E+02 -0.24034887142E+02 -0.49864859565E+00  0.34982873815E+02  0.00000000000E+00 0.  1.
         14    1    4    4    0    0 -0.18051482330E+02  0.30691294646E+02 -0.74470214674E+02  0.82544681567E+02  0.00000000000E+00 0. -1.
         -5    1    5    5    0  502  0.36220644524E+01 -0.64443567536E+02 -0.10706437866E+02  0.65595812057E+02  0.47000000000E+01 0.  1.
         13    1    6    6    0    0 -0.22103735412E+02  0.45160417449E+02 -0.25896882891E+02  0.56556935621E+02  0.00000000000E+00 0. -1.
        -14    1    6    6    0    0 -0.24639739117E+02 -0.10477961517E+02 -0.10422391476E+03  0.10760821916E+03  0.00000000000E+00 0.  1.
</event>
<event>
12    1  0.8356052E-002  0.2074781E+03  0.7818608E-02  0.1143881E+00
         21   -1    0    0  503  502  0.00000000000E+00  0.00000000000E+00  0.84303934663E+03  0.84303934663E+03  0.00000000000E+00 0.  1.
         21   -1    0    0  501  503 -0.00000000000E+00 -0.00000000000E+00 -0.69157286931E+02  0.69157286931E+02  0.00000000000E+00 0.  1.
          6    2    1    2  501    0 -0.10053594294E+03 -0.55395487028E+02  0.15025124978E+03  0.25495805399E+03  0.17103226428E+03 0.  0.
         24    2    3    3    0    0 -0.21989697055E+02  0.21112466181E+02  0.28670218288E+02  0.91168503447E+02  0.80996491277E+02 0.  0.
         -6    2    1    2    0  502  0.10053594294E+03  0.55395487028E+02  0.62363080991E+03  0.65723857957E+03  0.17283236850E+03 0.  0.
        -24    2    5    5    0    0  0.16811187348E+02 -0.19864197849E+02  0.20277591209E+03  0.22156118759E+03  0.85405426903E+02 0.  0.
          5    1    3    3  501    0 -0.78546245883E+02 -0.76507953209E+02  0.12158103149E+03  0.16378955054E+03  0.47000000000E+01 0. -1.
        -13    1    4    4    0    0 -0.22391047907E+02 -0.27191247586E+02  0.24031776651E+02  0.42640934097E+02  0.00000000000E+00 0.  1.
         14    1    4    4    0    0  0.40135085242E+00  0.48303713767E+02  0.46384416365E+01  0.48527569350E+02  0.00000000000E+00 0. -1.
         -5    1    5    5    0  502  0.83724755590E+02  0.75259684876E+02  0.42085489782E+03  0.43567739198E+03  0.47000000000E+01 0.  1.
         11    1    6    6    0    0 -0.20981851002E+02 -0.28925088157E+01  0.16218244483E+03  0.16355962243E+03  0.00000000000E+00 0. -1.
        -12    1    6    6    0    0  0.37793038350E+02 -0.16971689033E+02  0.40593467263E+02  0.58001565158E+02  0.00000000000E+00 0.  1.
</event>
<event>
12    1  0.8356052E-002  0.2166034E+03  0.7818608E-02  0.1136981E+00
         21   -1    0    0  501  502  0.00000000000E+00  0.00000000000E+00  0.33360527235E+03  0.33360527235E+03  0.00000000000E+00 0. -1.
         21   -1    0    0  502  503 -0.00000000000E+00 -0.00000000000E+00 -0.13958267866E+03  0.13958267866E+03  0.00000000000E+00 0. -1.
         -6    2    1    2    0  503 -0.12338828415E+03  0.45421297348E+02  0.80050634985E+02  0.23092235563E+03  0.17213154055E+03 0.  0.
        -24    2    3    3    0    0 -0.12206122484E+03  0.40653175929E+02  0.11846358626E+03  0.19190773153E+03  0.79014763360E+02 0.  0.
          6    2    1    2  501    0  0.12338828415E+03 -0.45421297348E+02  0.11397195870E+03  0.24226559538E+03  0.16856823074E+03 0.  0.
         24    2    5    5    0    0  0.36710484500E+02  0.33239803202E+02  0.29707650747E+02  0.97963227804E+02  0.79130937690E+02 0.  0.
          5    1    5    5  501    0  0.86677799654E+02 -0.78661100550E+02  0.84264307956E+02  0.14430236758E+03  0.47000000000E+01 0. -1.
        -11    1    6    6    0    0  0.13710432599E+02  0.17262367476E+02  0.55607474829E+02  0.59817694287E+02  0.00000000000E+00 0.  1.
         12    1    6    6    0    0  0.23000051901E+02  0.15977435726E+02 -0.25899824082E+02  0.38145533517E+02  0.00000000000E+00 0. -1.
         -5    1    3    3    0  503 -0.13270593154E+01  0.47681214198E+01 -0.38412951276E+02  0.39014624104E+02  0.47000000000E+01 0.  1.
         11    1    4    4    0    0 -0.18442508608E+02  0.36370319250E+02  0.60911138315E+02  0.73301384822E+02  0.00000000000E+00 0. -1.
        -12    1    4    4    0    0 -0.10361871623E+03  0.42828566785E+01  0.57552447947E+02  0.11860634671E+03  0.00000000000E+00 0.  1.
</event>
<event>
12    1  0.8356052E-002  0.2071067E+03  0.7818608E-02  0.1143928E+00
         21   -1    0    0  501  502  0.00000000000E+00  0.00000000000E+00  0.53385082380E+02  0.53385082380E+02  0.00000000000E+00 0.  1.
         21   -1    0    0  502  503 -0.00000000000E+00 -0.00000000000E+00 -0.81447884235E+03  0.81447884235E+03  0.00000000000E+00 0.  1.
         -6    2    1    2    0  503 -0.80415895460E+02 -0.83456309666E+02 -0.43294297189E+03  0.47982252780E+03  0.17134284173E+03 0.  0.
        -24    2    3    3    0    0  0.15403386292E+01 -0.91070778868E+02 -0.30166659024E+03  0.32480516482E+03  0.78736294160E+02 0.  0.
          6    2    1    2  501    0  0.80415895460E+02  0.83456309666E+02 -0.32815078808E+03  0.38804139693E+03  0.17164356716E+03 0.  0.
         24    2    5    5    0    0  0.28286181029E+02  0.86842634857E+02 -0.30898563040E+03  0.33219905104E+03  0.80884723269E+02 0.  0.
          5    1    5    5  501    0  0.52129714431E+02 -0.33863251911E+01 -0.19165157686E+02  0.55842345886E+02  0.47000000000E+01 0. -1.
        -11    1    6    6    0    0  0.39461744440E+02  0.65236926157E+01 -0.12191019088E+03  0.12830386776E+03  0.00000000000E+00 0.  1.
         12    1    6    6    0    0 -0.11175563411E+02  0.80318942241E+02 -0.18707543951E+03  0.20389518329E+03  0.00000000000E+00 0. -1.
         -5    1    3    3    0  503 -0.81956234089E+02  0.76144692025E+01 -0.13127638165E+03  0.15501736298E+03  0.47000000000E+01 0.  1.
         11    1    4    4    0    0  0.16828220965E+02  0.64362680124E+01 -0.82434106167E+02  0.84380071263E+02  0.00000000000E+00 0. -1.
        -12    1    4    4    0    0 -0.15287882336E+02 -0.97507046881E+02 -0.21923248408E+03  0.24042509356E+03  0.00000000000E+00 0.  1.
</event>
<event>
12    1  0.8356052E-002  0.1860130E+03  0.7818608E-02  0.1162350E+00
         21   -1    0    0  503  502  0.00000000000E+00  0.00000000000E+00  0.34918265453E+03  0.34918265453E+03  0.00000000000E+00 0.  1.
         21   -1    0    0  501  503 -0.00000000000E+00 -0.00000000000E+00 -0.29030747832E+03  0.29030747832E+03  0.00000000000E+00 0.  1.
          6    2    1    2  501    0  0.20268539525E+02 -0.67130230944E+02 -0.23046756269E+03  0.29551332485E+03  0.17115941724E+03 0.  0.
         24    2    3    3    0    0  0.39480622743E+02  0.13392734840E+02 -0.17117114212E+03  0.19357605172E+03  0.80212486478E+02 0.  0.
         -6    2    1    2    0  502 -0.20268539525E+02  0.67130230944E+02  0.28934273891E+03  0.34397680800E+03  0.17228912409E+03 0.  0.
        -24    2    5    5    0    0  0.19043091764E+02 -0.70875363975E+01  0.64560647332E+02  0.10397105799E+03  0.78924211746E+02 0.  0.
          5    1    3    3  501    0 -0.19212083218E+02 -0.80522965784E+02 -0.59296420568E+02  0.10193727313E+03  0.47000000000E+01 0. -1.
        -13    1    4    4    0    0  0.14337764930E+01 -0.58864461988E+01 -0.14147308097E+03  0.14160274928E+03  0.00000000000E+00 0.  1.
         14    1    4    4    0    0  0.38046846250E+02  0.19279181039E+02 -0.29698061155E+02  0.51973302449E+02  0.00000000000E+00 0. -1.
         -5    1    5    5    0  502 -0.39311631288E+02  0.74217767341E+02  0.22478209158E+03  0.24000575001E+03  0.47000000000E+01 0.  1.
         13    1    6    6    0    0  0.12571537633E+02 -0.32964079522E+02  0.68458208860E+02  0.77014287360E+02  0.00000000000E+00 0. -1.
        -14    1    6    6    0    0  0.64715541309E+01  0.25876543125E+02 -0.38975615286E+01  0.26956770631E+02  0.00000000000E+00 0.  1.
</event>
<event>
12    1  0.8356052E-002  0.1763321E+03  0.7818608E-02  0.1171883E+00
         21   -1    0    0  503  502  0.00000000000E+00  0.00000000000E+00  0.13429288462E+03  0.13429288462E+03  0.00000000000E+00 0. -1.
         21   -1    0    0  501  503 -0.00000000000E+00 -0.00000000000E+00 -0.38945370338E+03  0.38945370338E+03  0.00000000000E+00 0. -1.
          6    2    1    2  501    0  0.27659157533E+02 -0.27418382934E+01 -0.29607796903E+03  0.34460872192E+03  0.17412771407E+03 0.  0.
         24    2    3    3    0    0  0.12761059739E+02  0.47595438606E+02 -0.84486230931E+02  0.12655150834E+03  0.80306852911E+02 0.  0.
         -6    2    1    2    0  502 -0.27659157533E+02  0.27418382934E+01  0.40917150269E+02  0.17913786608E+03  0.17217321280E+03 0.  0.
        -24    2    5    5    0    0 -0.17734182313E+02  0.57586185173E+02 -0.62354535897E+01  0.10598142024E+03  0.86962696657E+02 0.  0.
          5    1    3    3  501    0  0.14898097794E+02 -0.50337276899E+02 -0.21159173810E+03  0.21805721358E+03  0.47000000000E+01 0. -1.
        -11    1    4    4    0    0 -0.32877126576E+02  0.31400061147E+02 -0.46210231605E+02  0.64824800785E+02  0.00000000000E+00 0.  1.
         12    1    4    4    0    0  0.45638186315E+02  0.16195377459E+02 -0.38275999326E+02  0.61726707555E+02  0.00000000000E+00 0. -1.
         -5    1    5    5    0  502 -0.99249752205E+01 -0.54844346880E+02  0.47152603859E+02  0.73156445844E+02  0.47000000000E+01 0.  1.
         11    1    6    6    0    0 -0.42456159630E+02  0.65020522454E+02 -0.14248701742E+02  0.78950739908E+02  0.00000000000E+00 0. -1.
        -12    1    6    6    0    0  0.24721977318E+02 -0.74343372807E+01  0.80132481528E+01  0.27030680333E+02  0.00000000000E+00 0.  1.
</event>
<event>
12    1  0.8356052E-002  0.1766981E+03  0.7818608E-02  0.1171125E+00
         21   -1    0    0  503  502  0.00000000000E+00  0.00000000000E+00  0.10765079214E+04  0.10765079214E+04  0.00000000000E+00 0. -1.
         21   -1    0    0  501  503 -0.00000000000E+00 -0.00000000000E+00 -0.10585367093E+03  0.10585367093E+03  0.00000000000E+00 0. -1.
          6    2    1    2  501    0 -0.28754228498E+02  0.28657437993E+02 -0.18715907189E+02  0.17733645849E+03  0.17160967315E+03 0.  0.
         24    2    3    3    0    0 -0.37962081688E+02  0.82088150709E+02 -0.82293729056E+01  0.12191369220E+03  0.81336594681E+02 0.  0.
         -6    2    1    2    0  502  0.28754228498E+02 -0.28657437993E+02  0.98937015765E+03  0.10050251338E+04  0.17197138241E+03 0.  0.
        -24    2    5    5    0    0  0.12640428901E+02 -0.77735742238E+02  0.82548703760E+03  0.83312952154E+03  0.80456972091E+02 0.  0.
          5    1    3    3  501    0  0.92078531904E+01 -0.53430712716E+02 -0.10486534283E+02  0.55422766288E+02  0.47000000000E+01 0. -1.
        -11    1    4    4    0    0 -0.16965064651E+02  0.62268083414E+02  0.32285330111E+02  0.72162803237E+02  0.00000000000E+00 0.  1.
         12    1    4    4    0    0 -0.20997017037E+02  0.19820067295E+02 -0.40514703016E+02  0.49750888962E+02  0.00000000000E+00 0. -1.
         -5    1    5    5    0  502  0.16113799597E+02  0.49078304245E+02  0.16388312005E+03  0.17189561229E+03  0.47000000000E+01 0.  1.
         13    1    6    6    0    0  0.13708752372E+02 -0.48408122210E+02  0.75635291987E+03  0.75802441622E+03  0.00000000000E+00 0. -1.
        -14    1    6    6    0    0 -0.10683234709E+01 -0.29327620028E+02  0.69134117726E+02  0.75105105321E+02  0.00000000000E+00 0.  1.
</event>
<event>
12    1  0.8356052E-002  0.2324786E+03  0.7818608E-02  0.1124953E+00
         21   -1    0    0  503  502  0.00000000000E+00  0.00000000000E+00  0.58179610081E+03  0.58179610081E+03  0.00000000000E+00 0.  1.
         21   -1    0    0  501  503 -0.00000000000E+00 -0.00000000000E+00 -0.10193468149E+03  0.10193468149E+03  0.00000000000E+00 0.  1.
          6    2    1    2  501    0 -0.13065294743E+03  0.87497860545E+02  0.13766479821E+03  0.27018121428E+03  0.17123149129E+03 0.  0.
         24    2    3    3    0    0 -0.44942648128E+02  0.24661631490E+02 -0.21167076870E+01  0.94523574306E+02  0.79386320986E+02 0.  0.
         -6    2    1    2    0  502  0.13065294743E+03 -0.87497860545E+02  0.34219662111E+03  0.41354956803E+03  0.17087612309E+03 0.  0.
        -24    2    5    5    0    0  0.42210313192E+02 -0.94272527309E+02  0.26449067253E+03  0.29553134865E+03  0.81941700191E+02 0.  0.
          5    1    3    3  501    0 -0.85710299305E+02  0.62836229056E+02  0.13978150590E+03  0.17565763997E+03  0.47000000000E+01 0. -1.
        -11    1    4    4    0    0 -0.65491513902E+02  0.30365149900E+02 -0.73600267091E+01  0.72562736406E+02  0.00000000000E+00 0.  1.
         12    1    4    4    0    0  0.20548865774E+02 -0.57035184106E+01  0.52433190221E+01  0.21960837899E+02  0.00000000000E+00 0. -1.
         -5    1    5    5    0  502  0.88442634240E+02  0.67746667632E+01  0.77705948579E+02  0.11801821938E+03  0.47000000000E+01 0.  1.
         13    1    6    6    0    0 -0.12587962342E+02  0.13675568821E+01  0.77044362157E+02  0.78077914598E+02  0.00000000000E+00 0. -1.
        -14    1    6    6    0    0  0.54798275534E+02 -0.95640084191E+02  0.18744631038E+03  0.21745343405E+03  0.00000000000E+00 0.  1.
</event>
<event>
12    1  0.8356052E-002  0.2085554E+03  0.7818608E-02  0.1142857E+00
         21   -1    0    0  501  502  0.00000000000E+00  0.00000000000E+00  0.14776392360E+04  0.14776392360E+04  0.00000000000E+00 0. -1.
         21   -1    0    0  502  503 -0.00000000000E+00 -0.00000000000E+00 -0.34410150224E+02  0.34410150224E+02  0.00000000000E+00 0. -1.
         -6    2    1    2    0  503 -0.63513235027E+02  0.10103841841E+03  0.10108896929E+04  0.10320361670E+04  0.17017046116E+03 0.  0.
        -24    2    3    3    0    0 -0.47009857161E+02 -0.77802390364E+01  0.37048790839E+03  0.38222819749E+03  0.81034843757E+02 0.  0.
          6    2    1    2  501    0  0.63513235027E+02 -0.10103841841E+03  0.43233939286E+03  0.48001321917E+03  0.17103405198E+03 0.  0.
         24    2    5    5    0    0  0.28277467479E+02 -0.61729662167E+02  0.40899746144E+03  0.42210231005E+03  0.79254465685E+02 0.  0.
          5    1    5    5  501    0  0.35235767548E+02 -0.39308756244E+02  0.23341931426E+02  0.57910909118E+02  0.47000000000E+01 0. -1.
        -11    1    6    6    0    0 -0.27267726670E+02 -0.16059508059E+02  0.15037252711E+03  0.15366630608E+03  0.00000000000E+00 0.  1.
         12    1    6    6    0    0  0.55545194149E+02 -0.45670154108E+02  0.25862493433E+03  0.26843600397E+03  0.00000000000E+00 0. -1.
         -5    1    3    3    0  503 -0.16503377866E+02  0.10881865745E+03  0.64040178451E+03  0.64980796955E+03  0.47000000000E+01 0.  1.
         11    1    4    4    0    0 -0.12167974309E+02 -0.52975989638E+00  0.32122160322E+03  0.32145242046E+03  0.00000000000E+00 0. -1.
        -12    1    4    4    0    0 -0.34841882852E+02 -0.72504791401E+01  0.49266305172E+02  0.60775777032E+02  0.00000000000E+00 0.  1.
</event>
<event>
12    1  0.8356052E-002  0.2180443E+03  0.7818608E-02  0.1136634E+00
         21   -1    0    0  501  502  0.00000000000E+00  0.00000000000E+00  0.88900381925E+03  0.88900381925E+03  0.00000000000E+00 0. -1.
         21   -1    0    0  502  503 -0.00000000000E+00 -0.00000000000E+00 -0.79639188374E+02  0.79639188374E+02  0.00000000000E+00 0.  1.
         -6    2    1    2    0  503 -0.66322571095E+02  0.10420806965E+03  0.12271424528E+03  0.25020412685E+03  0.17968114504E+03 0.  0.
        -24    2    3    3    0    0 -0.80683711388E+02  0.97972709152E+02  0.15412190391E+03  0.21479716297E+03  0.79219612041E+02 0.  0.
          6    2    1    2  501    0  0.66322571095E+02 -0.10420806965E+03  0.68665038560E+03  0.71843888077E+03  0.17148664129E+03 0.  0.
         24    2    5    5    0    0 -0.20045332755E+02 -0.31073536071E+02  0.41185588621E+03  0.42121475370E+03  0.80182402807E+02 0.  0.
          5    1    5    5  501    0  0.86367903849E+02 -0.73134533581E+02  0.27479449939E+03  0.29722412707E+03  0.47000000000E+01 0. -1.
        -11    1    6    6    0    0  0.13101815569E+02  0.21739619246E+02  0.14180505261E+03  0.14405881286E+03  0.00000000000E+00 0.  1.
         12    1    6    6    0    0 -0.33147148324E+02 -0.52813155317E+02  0.27005083360E+03  0.27715594084E+03  0.00000000000E+00 0. -1.
         -5    1    3    3    0  503  0.14361140294E+02  0.62353604995E+01 -0.31407658632E+02  0.35406963889E+02  0.47000000000E+01 0.  1.
         13    1    4    4    0    0 -0.46421073775E+02  0.23536353510E+01  0.34596138762E+02  0.57942631171E+02  0.00000000000E+00 0. -1.
        -14    1    4    4    0    0 -0.34262637614E+02  0.95619073801E+02  0.11952576515E+03  0.15685453179E+03  0.00000000000E+00 0.  1.
</event>
<event>
12    1  0.8356052E-002  0.1941950E+03  0.7818608E-02  0.1154817E+00
         21   -1    0    0  501  502  0.00000000000E+00  0.00000000000E+00  0.53404974589E+03  0.53404974589E+03  0.00000000000E+00 0. -1.
         21   -1    0    0  502  503 -0.00000000000E+00 -0.00000000000E+00 -0.12371275787E+03  0.12371275787E+03  0.00000000000E+00 0. -1.
         -6    2    1    2    0  503  0.59666444460E+02 -0.66650275788E+02 -0.10701041527E+02  0.19409807443E+03  0.17192209384E+03 0.  0.
        -24    2    3    3    0    0  0.71815626894E+01 -0.76691464409E+02  0.42637229425E+02  0.11845054023E+03  0.79242927704E+02 0.  0.
          6    2    1    2  501    0 -0.59666444460E+02  0.66650275788E+02  0.42103802956E+03  0.46366442933E+03  0.17236396617E+03 0.  0.
         24    2    5    5    0    0  0.31326855996E+02  0.17096247839E+02  0.15257137588E+03  0.17585925816E+03  0.79842346822E+02 0.  0.
          5    1    5    5  501    0 -0.90993300455E+02  0.49554027948E+02  0.26846665367E+03  0.28780517116E+03  0.47000000000E+01 0. -1.
        -13    1    6    6    0    0  0.81810749740E+01 -0.29303487371E+02  0.29800261652E+02  0.42587321521E+02  0.00000000000E+00 0.  1.
         14    1    6    6    0    0  0.23145781022E+02  0.46399735210E+02  0.12277111423E+03  0.13327193664E+03  0.00000000000E+00 0. -1.
         -5    1    3    3    0  503  0.52484881770E+02  0.10041188621E+02 -0.53338270952E+02  0.75647534206E+02  0.47000000000E+01 0.  1.
         13    1    4    4    0    0  0.31833197967E+02 -0.13439350984E+02 -0.58247197713E+01  0.35041347121E+02  0.00000000000E+00 0. -1.
        -14    1    4    4    0    0 -0.24651635278E+02 -0.63252113425E+02  0.48461949196E+02  0.83409193105E+02  0.00000000000E+00 0.  1.
</event>
<event>
12    1  0.8356052E-002  0.2299468E+03  0.7818608E-02  0.1126684E+00
         21   -1    0    0  501  502  0.00000000000E+00  0.00000000000E+00  0.40709354327E+03  0.40709354327E+03  0.00000000000E+00 0.  1.
         21   -1    0    0  502  503 -0.00000000000E+00 -0.00000000000E+00 -0.13264120319E+03  0.13264120319E+03  0.00000000000E+00 0.  1.
         -6    2    1    2    0  503 -0.14155353711E+02 -0.15154938933E+03  0.98153166325E+02  0.24998155286E+03  0.17230537213E+03 0.  0.
        -24    2    3    3    0    0  0.19328833010E+02 -0.71116317802E+02 -0.11448352465E+02  0.10989139376E+03  0.80708854566E+02 0.  0.
          6    2    1    2  501    0  0.14155353711E+02  0.15154938933E+03  0.17629917376E+03  0.28975319360E+03  0.17235986507E+03 0.  0.
         24    2    5    5    0    0  0.36106192251E+02  0.15344129773E+03  0.19323418339E+03  0.26156980876E+03  0.78939383418E+02 0.  0.
          5    1    5    5  501    0 -0.21950838541E+02 -0.18919083999E+01 -0.16935009631E+02  0.28183384843E+02  0.47000000000E+01 0. -1.
        -13    1    6    6    0    0  0.30380461192E+02  0.75963100495E+02  0.15435161741E+03  0.17469340816E+03  0.00000000000E+00 0.  1.
         14    1    6    6    0    0  0.57257310598E+01  0.77478197235E+02  0.38882565985E+02  0.86876400596E+02  0.00000000000E+00 0. -1.
         -5    1    3    3    0  503 -0.33484186720E+02 -0.80433071528E+02  0.10960151879E+03  0.14009015910E+03  0.47000000000E+01 0.  1.
         13    1    4    4    0    0 -0.38407239222E+01  0.14969110137E+02 -0.13789518776E+02  0.20711741757E+02  0.00000000000E+00 0. -1.
        -14    1    4    4    0    0  0.23169556932E+02 -0.86085427939E+02  0.23411663112E+01  0.89179652004E+02  0.00000000000E+00 0.  1.
</event>
<event>
12    1  0.8356052E-002  0.1788053E+03  0.7818608E-02  0.1169503E+00
         21   -1    0    0  503  502  0.00000000000E+00  0.00000000000E+00  0.20122646914E+03  0.20122646914E+03  0.00000000000E+00 0.  1.
         21   -1    0    0  501  503 -0.00000000000E+00 -0.00000000000E+00 -0.16468243129E+03  0.16468243129E+03  0.00000000000E+00 0.  1.
          6    2    1    2  501    0 -0.46509061669E+02  0.11622022236E+02 -0.21506518073E+02  0.17791638006E+03  0.16998100999E+03 0.  0.
         24    2    3    3    0    0  0.15034550379E+02 -0.44858742327E+02 -0.65305736519E+01  0.92921898707E+02  0.79708759862E+02 0.  0.
         -6    2    1    2    0  502  0.46509061669E+02 -0.11622022236E+02  0.58050555924E+02  0.18799252037E+03  0.17225898077E+03 0.  0.
        -24    2    5    5    0    0  0.48782270955E+02  0.76118400989E+01  0.10150247812E+03  0.14018803854E+03  0.83140140810E+02 0.  0.
          5    1    3    3  501    0 -0.61543612048E+02  0.56480764563E+02 -0.14975944421E+02  0.84994481355E+02  0.47000000000E+01 0. -1.
        -11    1    4    4    0    0 -0.25975174286E+02 -0.82771347671E+01 -0.22875521849E+02  0.35588061748E+02  0.00000000000E+00 0.  1.
         12    1    4    4    0    0  0.41009724666E+02 -0.36581607560E+02  0.16344948197E+02  0.57333836958E+02  0.00000000000E+00 0. -1.
         -5    1    5    5    0  502 -0.22732092858E+01 -0.19233862334E+02 -0.43451922200E+02  0.47804481836E+02  0.47000000000E+01 0.  1.
         11    1    6    6    0    0 -0.16027410147E+02  0.19365836716E+02  0.52118619991E+02  0.57864186311E+02  0.00000000000E+00 0. -1.
        -12    1    6    6    0    0  0.64809681101E+02 -0.11753996617E+02  0.49383858133E+02  0.82323852224E+02  0.00000000000E+00 0.  1.
</event>
<event>
12    1  0.8356052E-002  0.2602536E+03  0.7818608E-02  0.1107077E+00
         21   -1    0    0  501  502  0.00000000000E+00  0.00000000000E+00  0.38318756446E+03  0.38318756446E+03  0.00000000000E+00 0.  1.
         21   -1    0    0  502  503 -0.00000000000E+00 -0.00000000000E+00 -0.18815333908E+03  0.18815333908E+03  0.00000000000E+00 0.  1.
         -6    2    1    2    0  503  0.19422259915E+03  0.18878342607E+02  0.26129368515E+02  0.26156196256E+03  0.17220077387E+03 0.  0.
        -24    2    3    3    0    0  0.11778324068E+03  0.75530759556E+02 -0.23724499585E+01  0.16212899255E+03  0.81868151821E+02 0.  0.
          6    2    1    2  501    0 -0.19422259915E+03 -0.18878342607E+02  0.16890485686E+03  0.30977894098E+03  0.17133397726E+03 0.  0.
         24    2    5    5    0    0 -0.44916205049E+02 -0.52086343232E+02  0.86807503336E+02  0.13612055195E+03  0.79137913797E+02 0.  0.
          5    1    5    5  501    0 -0.14930639410E+03  0.33208000625E+02  0.82097353523E+02  0.17365838903E+03  0.47000000000E+01 0. -1.
        -11    1    6    6    0    0 -0.49111724047E+02 -0.17241843025E+02  0.11891943744E+02  0.53391580945E+02  0.00000000000E+00 0.  1.
         12    1    6    6    0    0  0.41955189989E+01 -0.34844500207E+02  0.74915559592E+02  0.82728971003E+02  0.00000000000E+00 0. -1.
         -5    1    3    3    0  503  0.76439358467E+02 -0.56652416949E+02  0.28501818473E+02  0.99432970012E+02  0.47000000000E+01 0.  1.
         13    1    4    4    0    0  0.13643913514E+01  0.17647020236E+02 -0.24520353263E+02  0.30241141035E+02  0.00000000000E+00 0. -1.
        -14    1    4    4    0    0  0.11641884933E+03  0.57883739320E+02  0.22147903304E+02  0.13188785152E+03  0.00000000000E+00 0.  1.
</event>
<event>
12    1  0.8356052E-002  0.2103482E+03  0.7818608E-02  0.1141859E+00
         21   -1    0    0  501  502  0.00000000000E+00  0.00000000000E+00  0.48124251286E+03  0.48124251286E+03  0.00000000000E+00 0. -1.
         21   -1    0    0  502  503 -0.00000000000E+00 -0.00000000000E+00 -0.13833829781E+03  0.13833829781E+03  0.00000000000E+00 0. -1.
         -6    2    1    2    0  503 -0.12061434967E+03 -0.79293989065E+01  0.35401438172E+03  0.41179188313E+03  0.17215015491E+03 0.  0.
        -24    2    3    3    0    0 -0.94045712569E+02 -0.95823184808E+01  0.10656330993E+03  0.16286870713E+03  0.78956062841E+02 0.  0.
          6    2    1    2  501    0  0.12061434967E+03  0.79293989065E+01 -0.11110166662E+02  0.20778892754E+03  0.16864787545E+03 0.  0.
         24    2    5    5    0    0  0.92049892530E+02  0.69172640528E+02  0.27756125670E+02  0.12969064628E+03  0.52832038661E+02 0.  0.
          5    1    5    5  501    0  0.28564457138E+02 -0.61243241622E+02 -0.38866292332E+02  0.78098281259E+02  0.47000000000E+01 0. -1.
        -11    1    6    6    0    0  0.14416275570E+01  0.91473135293E+01  0.18403352095E+02  0.20601820384E+02  0.00000000000E+00 0.  1.
         12    1    6    6    0    0  0.90608264973E+02  0.60025326999E+02  0.93527735750E+01  0.10908882590E+03  0.00000000000E+00 0. -1.
         -5    1    3    3    0  503 -0.26568637099E+02  0.16529195742E+01  0.24745107178E+03  0.24892317600E+03  0.47000000000E+01 0.  1.
         11    1    4    4    0    0 -0.42414357917E+02 -0.43983989792E+02  0.54450656775E+02  0.81844017122E+02  0.00000000000E+00 0. -1.
        -12    1    4    4    0    0 -0.51631354652E+02  0.34401671311E+02  0.52112653158E+02  0.81024690011E+02  0.00000000000E+00 0.  1.
</event>
<event>
12    1  0.8356052E-002  0.1945083E+03  0.7818608E-02  0.1154730E+00
         21   -1    0    0  501  502  0.00000000000E+00  0.00000000000E+00  0.13155899911E+03  0.13155899911E+03  0.00000000000E+00 0. -1.
         21   -1    0    0  502  503 -0.00000000000E+00 -0.00000000000E+00 -0.29086765526E+03  0.29086765526E+03  0.00000000000E+00 0. -1.
         -6    2    1    2    0  503 -0.86658869255E+02 -0.27570499206E+02 -0.10744571637E+03  0.22112281955E+03  0.17053101570E+03 0.  0.
        -24    2    3    3    0    0 -0.95636191119E+02 -0.55754208517E+02 -0.12731790203E+03  0.18517970420E+03  0.76333884021E+02 0.  0.
          6    2    1    2  501    0  0.86658869255E+02  0.27570499206E+02 -0.51862939783E+02  0.20130383482E+03  0.17194062157E+03 0.  0.
         24    2    5    5    0    0  0.48723710283E+02 -0.36516375180E+02 -0.72732626496E+02  0.12381940040E+03  0.79584944292E+02 0.  0.
          5    1    5    5  501    0  0.37935158972E+02  0.64086874386E+02  0.20869686713E+02  0.77484434425E+02  0.47000000000E+01 0. -1.
        -13    1    6    6    0    0  0.14749681644E+02  0.25480721454E+02 -0.19320980985E+02  0.35215345812E+02  0.00000000000E+00 0.  1.
         14    1    6    6    0    0  0.33974028640E+02 -0.61997096634E+02 -0.53411645511E+02  0.88604054587E+02  0.00000000000E+00 0. -1.
         -5    1    3    3    0  503  0.89773218638E+01  0.28183709311E+02  0.19872185665E+02  0.35943115356E+02  0.47000000000E+01 0.  1.
         13    1    4    4    0    0 -0.95486731458E+02 -0.45440576969E+02 -0.13559461879E+03  0.17195482710E+03  0.00000000000E+00 0. -1.
        -14    1    4    4    0    0 -0.14945966078E+00 -0.10313631549E+02  0.82767167559E+01  0.13224877095E+02  0.00000000000E+00 0.  1.
</event>
<event>
12    1  0.8356052E-002  0.2481646E+03  0.7818608E-02  0.1114679E+00
         21   -1    0    0  503  502  0.00000000000E+00  0.00000000000E+00  0.20788731327E+03  0.20788731327E+03  0.00000000000E+00 0. -1.
         21   -1    0    0  501  503 -0.00000000000E+00 -0.00000000000E+00 -0.50463206159E+03  0.50463206159E+03  0.00000000000E+00 0.  1.
          6    2    1    2  501    0  0.17277574798E+03 -0.97633020704E+01 -0.37793263976E+03  0.45141187778E+03  0.17604778343E+03 0.  0.
         24    2    3    3    0    0  0.18281429650E+03 -0.49560987023E+02 -0.29987846890E+03  0.36309895816E+03  0.77694265338E+02 0.  0.
         -6    2    1    2    0  502 -0.17277574798E+03  0.97633020704E+01  0.81187891437E+02  0.26110749708E+03  0.17787318561E+03 0.  0.
        -24    2    5    5    0    0 -0.15487278996E+02  0.15649739601E+02 -0.29118136240E+01  0.82588133950E+02  0.79545905303E+02 0.  0.
          5    1    3    3  501    0 -0.10038548519E+02  0.39797684952E+02 -0.78054170859E+02  0.88312919623E+02  0.47000000000E+01 0. -1.
        -11    1    4    4    0    0  0.15943131267E+03 -0.43034708636E+02 -0.29538213654E+03  0.33840942096E+03  0.00000000000E+00 0.  1.
         12    1    4    4    0    0  0.23382983830E+02 -0.65262783864E+01 -0.44963323593E+01  0.24689537198E+02  0.00000000000E+00 0. -1.
         -5    1    5    5    0  502 -0.15728846898E+03 -0.58864375305E+01  0.84099705061E+02  0.17851936313E+03  0.47000000000E+01 0.  1.
         13    1    6    6    0    0 -0.24358587225E+02 -0.66657392930E+01  0.31657379262E+02  0.40496450630E+02  0.00000000000E+00 0. -1.
        -14    1    6    6    0    0  0.88713082287E+01  0.22315478894E+02 -0.34569192886E+02  0.42091683320E+02  0.00000000000E+00 0.  1.
</event>
<event>
12    1  0.8356052E-002  0.1740460E+03  0.7818608E-02  0.1173950E+00
         21   -1    0    0  503  502  0.00000000000E+00  0.00000000000E+00  0.12547986022E+04  0.12547986022E+04  0.00000000000E+00 0.  1.
         21   -1    0    0  501  503 -0.00000000000E+00 -0.00000000000E+00 -0.23931883233E+03  0.23931883233E+03  0.00000000000E+00 0.  1.
          6    2    1    2  501    0 -0.47517336576E-01  0.27189386488E+02 -0.20072011778E+03  0.26567004949E+03  0.17190911704E+03 0.  0.
         24    2    3    3    0    0  0.12708868783E+02 -0.50379030669E+02 -0.11809369730E+03  0.15152628011E+03  0.79464017930E+02 0.  0.
         -6    2    1    2    0  502  0.47517336576E-01 -0.27189386488E+02  0.12161998876E+04  0.12284473850E+04  0.17088459868E+03 0.  0.
        -24    2    5    5    0    0  0.54123463409E+02  0.24251650730E+02  0.68543420602E+03  0.69243928150E+03  0.78323789004E+02 0.  0.
          5    1    3    3  501    0 -0.12756386120E+02  0.77568417157E+02 -0.82626420484E+02  0.11414376938E+03  0.47000000000E+01 0. -1.
        -13    1    4    4    0    0 -0.18303821679E+01  0.20577370822E+02 -0.39964091199E+02  0.44987854741E+02  0.00000000000E+00 0.  1.
         14    1    4    4    0    0  0.14539250951E+02 -0.70956401492E+02 -0.78129606098E+02  0.10653842537E+03  0.00000000000E+00 0. -1.
         -5    1    5    5    0  502 -0.54075946072E+02 -0.51441037218E+02  0.53076568162E+03  0.53600810352E+03  0.47000000000E+01 0.  1.
         13    1    6    6    0    0 -0.91085289213E+01 -0.19380830219E+02  0.14637386621E+03  0.14793204720E+03  0.00000000000E+00 0. -1.
        -14    1    6    6    0    0  0.63231992330E+02  0.43632480949E+02  0.53906033980E+03  0.54450723429E+03  0.00000000000E+00 0.  1.
</event>
<event>
12    1  0.8356052E-002  0.2196914E+03  0.7818608E-02  0.1138006E+00
         21   -1    0    0  503  502  0.00000000000E+00  0.00000000000E+00  0.56470706294E+03  0.56470706294E+03  0.00000000000E+00 0.  1.
         21   -1    0    0  501  503 -0.00000000000E+00 -0.00000000000E+00 -0.84616514951E+02  0.84616514951E+02  0.00000000000E+00 0. -1.
          6    2    1    2  501    0 -0.12466853344E+03 -0.40041445463E+02  0.34165479172E+03  0.40619245257E+03  0.17640507712E+03 0.  0.
         24    2    3    3    0    0 -0.24687725420E+02 -0.69505384630E+02  0.13016737293E+03  0.17036772106E+03  0.81493147721E+02 0.  0.
         -6    2    1    2    0  502  0.12466853344E+03  0.40041445463E+02  0.13843575628E+03  0.24313112533E+03  0.15100571149E+03 0.  0.
        -24    2    5    5    0    0  0.13354454361E+03  0.14807457448E+01  0.92501261454E+02  0.18232175982E+03  0.82755078379E+02 0.  0.
          5    1    3    3  501    0 -0.99980808018E+02  0.29463939167E+02  0.21148741879E+03  0.23582473150E+03  0.47000000000E+01 0. -1.
        -11    1    4    4    0    0 -0.49237692886E+02 -0.64495522493E+02  0.78275709795E+02  0.11274355665E+03  0.00000000000E+00 0.  1.
         12    1    4    4    0    0  0.24549967465E+02 -0.50098621362E+01  0.51891663135E+02  0.57624164411E+02  0.00000000000E+00 0. -1.
         -5    1    5    5    0  502 -0.88760101687E+01  0.38560699718E+02  0.45934494822E+02  0.60809365510E+02  0.47000000000E+01 0.  1.
         11    1    6    6    0    0  0.56846292688E+02 -0.39976712952E+02  0.34340946008E+02  0.77517347371E+02  0.00000000000E+00 0. -1.
        -12    1    6    6    0    0  0.76698250919E+02  0.41457458696E+02  0.58160315446E+02  0.10480441245E+03  0.00000000000E+00 0.  1.
</event>
<event>
12    1  0.8356052E-002  0.2544247E+03  0.7818608E-02  0.1110964E+00
         21   -1    0    0  501  502  0.00000000000E+00  0.00000000000E+00  0.38008388911E+03  0.38008388911E+03  0.00000000000E+00 0. -1.
         21   -1    0    0  502  503 -0.00000000000E+00 -0.00000000000E+00 -0.20159457692E+03  0.20159457692E+03  0.00000000000E+00 0. -1.
         -6    2    1    2    0  503 -0.12426008493E+03  0.13878215429E+03 -0.29017275375E+02  0.25336319836E+03  0.16926267443E+03 0.  0.
        -24    2    3    3    0    0 -0.62730466463E+02  0.20314722783E+02 -0.42899808022E+02  0.11906784852E+03  0.89380980288E+02 0.  0.
          6    2    1    2  501    0  0.12426008493E+03 -0.13878215429E+03  0.20750658756E+03  0.32831526767E+03  0.17329418932E+03 0.  0.
         24    2    5    5    0    0  0.60175168420E+02 -0.15691990638E+03  0.13844965786E+03  0.23225901273E+03  0.80814808795E+02 0.  0.
          5    1    5    5  501    0  0.64084916510E+02  0.18137752086E+02  0.69056929702E+02  0.96056254948E+02  0.47000000000E+01 0. -1.
        -11    1    6    6    0    0 -0.20002689184E+02 -0.33330120571E+02  0.23743214133E+02  0.45549365849E+02  0.00000000000E+00 0.  1.
         12    1    6    6    0    0  0.80177857605E+02 -0.12358978580E+03  0.11470644372E+03  0.18670964688E+03  0.00000000000E+00 0. -1.
         -5    1    3    3    0  503 -0.61529618466E+02  0.11846743151E+03  0.13882532647E+02  0.13429534984E+03  0.47000000000E+01 0.  1.
         11    1    4    4    0    0 -0.35615418935E+02  0.50856264516E+02 -0.47213231258E+02  0.77999403281E+02  0.00000000000E+00 0. -1.
        -12    1    4    4    0    0 -0.27115047529E+02 -0.30541541733E+02  0.43134232361E+01  0.41068445234E+02  0.00000000000E+00 0.  1.
</event>
<event>
12    1  0.8356052E-002  0.2002195E+03  0.7818608E-02  0.1150070E+00
         21   -1    0    0  501  502  0.00000000000E+00  0.00000000000E+00  0.45237825812E+03  0.45237825812E+03  0.00000000000E+00 0. -1.
         21   -1    0    0  502  503 -0.00000000000E+00 -0.00000000000E+00 -0.13665111334E+03  0.13665111334E+03  0.00000000000E+00 0. -1.
         -6    2    1    2    0  503  0.14312991979E+02  0.93988206472E+02 -0.18072189006E+02  0.20103349983E+03  0.17620788672E+03 0.  0.
        -24    2    3    3    0    0 -0.98174244720E+01 -0.15485128571E+02 -0.32613582461E+02  0.87895397461E+02  0.79534798069E+02 0.  0.
          6    2    1    2  501    0 -0.14312991979E+02 -0.93988206472E+02  0.33379933379E+03  0.38799587163E+03  0.17343631819E+03 0.  0.
         24    2    5    5    0    0  0.58805442767E+02 -0.37416001768E+02  0.16944645797E+03  0.19936746010E+03  0.78595449882E+02 0.  0.
          5    1    5    5  501    0 -0.73118434747E+02 -0.56572204704E+02  0.16435287582E+03  0.18862841153E+03  0.47000000000E+01 0. -1.
        -11    1    6    6    0    0  0.89241717345E+01 -0.79439505989E+01  0.12696139613E+03  0.12752232471E+03  0.00000000000E+00 0.  1.
         12    1    6    6    0    0  0.49881271033E+02 -0.29472051170E+02  0.42485061837E+02  0.71845135391E+02  0.00000000000E+00 0. -1.
         -5    1    3    3    0  503  0.24130416451E+02  0.10947333504E+03  0.14541393455E+02  0.11313810237E+03  0.47000000000E+01 0.  1.
         11    1    4    4    0    0  0.53725278909E+01  0.31559199115E+02 -0.10049736091E+02  0.33553603387E+02  0.00000000000E+00 0. -1.
        -12    1    4    4    0    0 -0.15189952363E+02 -0.47044327686E+02 -0.22563846370E+02  0.54341794074E+02  0.00000000000E+00 0.  1.
</event>
<event>
12    1  0.8356052E-002  0.2015334E+03  0.7818608E-02  0.1148967E+00
         21   -1    0    0  503  502  0.00000000000E+00  0.00000000000E+00  0.19083569419E+04  0.19083569419E+04  0.00000000000E+00 0. -1.
         21   -1    0    0  501  503 -0.00000000000E+00 -0.00000000000E+00 -0.21054315419E+02  0.21054315419E+02  0.00000000000E+00 0.  1.
          6    2    1    2  501    0  0.45254516604E+02 -0.89848059574E+02  0.98542549972E+03  0.10058226166E+04  0.17462839236E+03 0.  0.
         24    2    3    3    0    0  0.77665079508E+01  0.16032813858E+02  0.55413096607E+03  0.56011736092E+03  0.79705462086E+02 0.  0.
         -6    2    1    2    0  502 -0.45254516604E+02  0.89848059574E+02  0.90187712676E+03  0.92358864075E+03  0.17179342382E+03 0.  0.
        -24    2    5    5    0    0 -0.13830181406E+02  0.20061440587E+02  0.21155128054E+03  0.22901717216E+03  0.84268532242E+02 0.  0.
          5    1    3    3  501    0  0.37488008654E+02 -0.10588087343E+03  0.43129453365E+03  0.44570525565E+03  0.47000000000E+01 0. -1.
        -13    1    4    4    0    0 -0.28411379769E+01  0.29018890539E+02  0.71793759142E+02  0.77488785800E+02  0.00000000000E+00 0.  1.
         14    1    4    4    0    0  0.10607645928E+02 -0.12986076681E+02  0.48233720693E+03  0.48262857512E+03  0.00000000000E+00 0. -1.
         -5    1    5    5    0  502 -0.31424335199E+02  0.69786618987E+02  0.69032584621E+03  0.69457146859E+03  0.47000000000E+01 0.  1.
         11    1    6    6    0    0 -0.95946833408E+01  0.35215611827E+02  0.21006483572E+03  0.21321217712E+03  0.00000000000E+00 0. -1.
        -12    1    6    6    0    0 -0.42354980649E+01 -0.15154171240E+02  0.14864448190E+01  0.15804995034E+02  0.00000000000E+00 0.  1.
</event>
<event>
12    1  0.8356052E-002  0.2269744E+03  0.7818608E-02  0.1128957E+00
         21   -1    0    0  501  502  0.00000000000E+00  0.00000000000E+00  0.68201328195E+03  0.68201328195E+03  0.00000000000E+00 0.  1.
         21   -1    0    0  502  503 -0.00000000000E+00 -0.00000000000E+00 -0.76210959486E+02  0.76210959486E+02  0.00000000000E+00 0. -1.
         -6    2    1    2    0  503 -0.13930919672E+03  0.50227142658E+02  0.26036278014E+03  0.34540725488E+03  0.17201039588E+03 0.  0.
        -24    2    3    3    0    0 -0.41938478773E+02 -0.34701337158E+02  0.93745347967E+02  0.13451068757E+03  0.79636147594E+02 0.  0.
          6    2    1    2  501    0  0.13930919672E+03 -0.50227142658E+02  0.34543954232E+03  0.41281698655E+03  0.17076173119E+03 0.  0.
         24    2    5    5    0    0  0.78041394907E+02 -0.45575376442E+01  0.30993717819E+03  0.32842525580E+03  0.75437813808E+02 0.  0.
          5    1    5    5  501    0  0.61267801815E+02 -0.45669605014E+02  0.35502364131E+02  0.84391730757E+02  0.47000000000E+01 0. -1.
        -11    1    6    6    0    0 -0.11238159898E+02  0.30730661927E+01  0.92764453499E+02  0.93493228668E+02  0.00000000000E+00 0.  1.
         12    1    6    6    0    0  0.89279554805E+02 -0.76306038368E+01  0.21717272469E+03  0.23493202713E+03  0.00000000000E+00 0. -1.
         -5    1    3    3    0  503 -0.97370717949E+02  0.84928479816E+02  0.16661743218E+03  0.21089656731E+03  0.47000000000E+01 0.  1.
         13    1    4    4    0    0 -0.42908699754E+02  0.35264428224E+01  0.12684979974E+02  0.44883193186E+02  0.00000000000E+00 0. -1.
        -14    1    4    4    0    0  0.97022098131E+00 -0.38227779981E+02  0.81060367993E+02  0.89627494388E+02  0.00000000000E+00 0.  1.
</event>
<event>
12    1  0.8356052E-002  0.3062059E+03  0.7818608E-02  0.1082360E+00
         21   -1    0    0  503  502  0.00000000000E+00  0.00000000000E+00  0.88471756868E+02  0.88471756868E+02  0.00000000000E+00 0. -1.
         21   -1    0    0  501  503 -0.00000000000E+00 -0.00000000000E+00 -0.15090398413E+04  0.15090398413E+04  0.00000000000E+00 0.  1.
          6    2    1    2  501    0  0.23349944432E+03 -0.95095675059E+02 -0.11497883317E+04  0.11898635434E+04  0.17377245507E+03 0.  0.
         24    2    3    3    0    0  0.13399235280E+03 -0.36534343032E+02 -0.39250290280E+03  0.42381236900E+03  0.79181352520E+02 0.  0.
         -6    2    1    2    0  502 -0.23349944432E+03  0.95095675059E+02 -0.27077975267E+03  0.40764805477E+03  0.17114346084E+03 0.  0.
        -24    2    5    5    0    0 -0.14798284796E+03 -0.15425516311E+02 -0.16323709237E+03  0.23125209172E+03  0.68515047662E+02 0.  0.
          5    1    3    3  501    0  0.99507091525E+02 -0.58561332028E+02 -0.75728542894E+03  0.76605117438E+03  0.47000000000E+01 0. -1.
        -13    1    4    4    0    0  0.11064900612E+02 -0.35173392864E+02 -0.85664196890E+02  0.93262823354E+02  0.00000000000E+00 0.  1.
         14    1    4    4    0    0  0.12292745218E+03 -0.13609501674E+01 -0.30683870591E+03  0.33054954565E+03  0.00000000000E+00 0. -1.
         -5    1    5    5    0  502 -0.85516596362E+02  0.11052119137E+03 -0.10754266030E+03  0.17639596305E+03  0.47000000000E+01 0.  1.
         13    1    6    6    0    0 -0.11081232207E+03  0.16310339669E+02 -0.13257181597E+03  0.17355311663E+03  0.00000000000E+00 0. -1.
        -14    1    6    6    0    0 -0.37170525892E+02 -0.31735855981E+02 -0.30665276400E+02  0.57698975091E+02  0.00000000000E+00 0.  1.
</event>
<event>
12    1  0.8356052E-002  0.3643448E+03  0.7818608E-02  0.1056908E+00
         21   -1    0    0  501  502  0.00000000000E+00  0.00000000000E+00  0.59403440085E+03  0.59403440085E+03  0.00000000000E+00 0. -1.
         21   -1    0    0  502  503 -0.00000000000E+00 -0.00000000000E+00 -0.46321567051E+03  0.46321567051E+03  0.00000000000E+00 0.  1.
         -6    2    1    2    0  503 -0.14881336740E+03 -0.28440530002E+03 -0.31503977292E+03  0.48166087886E+03  0.17238141055E+03 0.  0.
        -24    2    3    3    0    0 -0.11071770188E+03 -0.25127122985E+03 -0.18118383854E+03  0.33852231834E+03  0.79838187647E+02 0.  0.
          6    2    1    2  501    0  0.14881336740E+03  0.28440530002E+03  0.44585850326E+03  0.57558919249E+03  0.17170125390E+03 0.  0.
         24    2    5    5    0    0  0.27159591499E+01  0.10324472895E+03  0.14626246924E+03  0.19619035379E+03  0.80194105289E+02 0.  0.
          5    1    5    5  501    0  0.14609740825E+03  0.18116057107E+03  0.29959603402E+03  0.37939883870E+03  0.47000000000E+01 0. -1.
        -11    1    6    6    0    0  0.37274847190E+02  0.24153066572E+02  0.47688222570E+02  0.65168638391E+02  0.00000000000E+00 0.  1.
         12    1    6    6    0    0 -0.34558888040E+02  0.79091662377E+02  0.98574246671E+02  0.13102171540E+03  0.00000000000E+00 0. -1.
         -5    1    3    3    0  503 -0.38095665518E+02 -0.33134070171E+02 -0.13385593438E+03  0.14313856052E+03  0.47000000000E+01 0.  1.
         13    1    4    4    0    0 -0.44820006900E+02 -0.87395878187E+02 -0.21790542561E+02  0.10060666125E+03  0.00000000000E+00 0. -1.
        -14    1    4    4    0    0 -0.65897694977E+02 -0.16387535167E+03 -0.15939329598E+03  0.23791565709E+03  0.00000000000E+00 0.  1.
</event>
<event>
12    1  0.8356052E-002  0.2410958E+03  0.7818608E-02  0.1119351E+00
         21   -1    0    0  503  502  0.00000000000E+00  0.00000000000E+00  0.13972322850E+03  0.13972322850E+03  0.00000000000E+00 0.  1.
         21   -1    0    0  501  503 -0.00000000000E+00 -0.00000000000E+00 -0.41688044112E+03  0.41688044112E+03  0.00000000000E+00 0.  1.
          6    2    1    2  501    0  0.12388875648E+03 -0.10959156429E+03 -0.16473822579E+03  0.29058637930E+03  0.17304053241E+03 0.  0.
         24    2    3    3    0    0  0.14717059458E+03 -0.12672377661E+03 -0.14261449578E+03  0.25388343510E+03  0.79998779619E+02 0.  0.
         -6    2    1    2    0  502 -0.12388875648E+03  0.10959156429E+03 -0.11241898683E+03  0.26601729031E+03  0.17540933612E+03 0.  0.
        -24    2    5    5    0    0 -0.12119756026E+03  0.14057433985E+02 -0.70078435149E+02  0.16138065759E+03  0.79033344278E+02 0.  0.
          5    1    3    3  501    0 -0.23281838101E+02  0.17132212320E+02 -0.22123730002E+02  0.36702944209E+02  0.47000000000E+01 0. -1.
        -13    1    4    4    0    0  0.13563135603E+03 -0.11601150450E+03 -0.91835550545E+02  0.20071946158E+03  0.00000000000E+00 0.  1.
         14    1    4    4    0    0  0.11539238551E+02 -0.10712272116E+02 -0.50778945239E+02  0.53163973513E+02  0.00000000000E+00 0. -1.
         -5    1    5    5    0  502 -0.26911962183E+01  0.95534130308E+02 -0.42340551684E+02  0.10463663272E+03  0.47000000000E+01 0.  1.
         13    1    6    6    0    0 -0.44181766320E+02  0.33054336512E+00 -0.70440275415E+02  0.83150286437E+02  0.00000000000E+00 0. -1.
        -14    1    6    6    0    0 -0.77015793939E+02  0.13726890620E+02  0.36184026568E+00  0.78230371151E+02  0.00000000000E+00 0.  1.
</event>
<event>
12    1  0.8356052E-002  0.1754945E+03  0.7818608E-02  0.1173116E+00
         21   -1    0    0  503  502  0.00000000000E+00  0.00000000000E+00  0.14516504149E+03  0.14516504149E+03  0.00000000000E+00 0. -1.
         21   -1    0    0  501  503 -0.00000000000E+00 -0.00000000000E+00 -0.27036295169E+03  0.27036295169E+03  0.00000000000E+00 0. -1.
          6    2    1    2  501    0 -0.15373378117E+02  0.42944060653E+02 -0.16191621195E+03  0.23623335485E+03  0.16585778593E+03 0.  0.
         24    2    3    3    0    0  0.18768901219E+00  0.52325777742E+02 -0.18403516015E+03  0.20722471312E+03  0.79593462749E+02 0.  0.
         -6    2    1    2    0  502  0.15373378117E+02 -0.42944060653E+02  0.36718301745E+02  0.17929463833E+03  0.16946327198E+03 0.  0.
        -24    2    5    5    0    0  0.47387497691E+02 -0.22625225009E+02 -0.31569390846E+02  0.10104466776E+03  0.80348756683E+02 0.  0.
          5    1    3    3  501    0 -0.15561067129E+02 -0.93817170886E+01  0.22118948201E+02  0.29008641734E+02  0.47000000000E+01 0. -1.
        -11    1    4    4    0    0  0.39660908547E+02  0.21977947810E+02 -0.82557095752E+02  0.94189659282E+02  0.00000000000E+00 0.  1.
         12    1    4    4    0    0 -0.39473219534E+02  0.30347829932E+02 -0.10147806440E+03  0.11303505384E+03  0.00000000000E+00 0. -1.
         -5    1    5    5    0  502 -0.32014119574E+02 -0.20318835644E+02  0.68287692591E+02  0.78249970565E+02  0.47000000000E+01 0.  1.
         13    1    6    6    0    0  0.43246736311E+02 -0.35752772981E+02 -0.51938787883E+02  0.76460307769E+02  0.00000000000E+00 0. -1.
        -14    1    6    6    0    0  0.41407613808E+01  0.13127547972E+02  0.20369397037E+02  0.24584359992E+02  0.00000000000E+00 0.  1.
</event>
<event>
12    1  0.8356052E-002  0.1783271E+03  0.7818608E-02  0.1170383E+00
         21   -1    0    0  501  502  0.00000000000E+00  0.00000000000E+00  0.18772507164E+04  0.18772507164E+04  0.00000000000E+00 0. -1.
         21   -1    0    0  502  503 -0.00000000000E+00 -0.00000000000E+00 -0.19172111115E+02  0.19172111115E+02  0.00000000000E+00 0. -1.
         -6    2    1    2    0  503  0.38861103895E+02  0.18378424865E+02  0.57149263447E+03  0.59753714924E+03  0.16911197939E+03 0.  0.
        -24    2    3    3    0    0  0.40145689911E+02  0.69332294986E+02  0.28402033877E+03  0.30554338589E+03  0.79186894613E+02 0.  0.
          6    2    1    2  501    0 -0.38861103895E+02 -0.18378424865E+02  0.12865859708E+04  0.12988856783E+04  0.17306817452E+03 0.  0.
         24    2    5    5    0    0 -0.81440284452E+02  0.13544497750E+02  0.10403021378E+04  0.10468740198E+04  0.83070464412E+02 0.  0.
          5    1    5    5  501    0  0.42579180556E+02 -0.31922922616E+02  0.24628383302E+03  0.25201165848E+03  0.47000000000E+01 0. -1.
        -11    1    6    6    0    0 -0.44928504067E+00 -0.11160071251E+02  0.48719244447E+03  0.48732045617E+03  0.00000000000E+00 0.  1.
         12    1    6    6    0    0 -0.80990999411E+02  0.24704569002E+02  0.55310969330E+03  0.55955356360E+03  0.00000000000E+00 0. -1.
         -5    1    3    3    0  503 -0.12845860161E+01 -0.50953870121E+02  0.28747229570E+03  0.29199376336E+03  0.47000000000E+01 0.  1.
         11    1    4    4    0    0  0.56874764689E+01  0.45236949905E+01  0.16862971691E+03  0.16878623354E+03  0.00000000000E+00 0. -1.
        -12    1    4    4    0    0  0.34458213443E+02  0.64808599996E+02  0.11539062185E+03  0.13675715235E+03  0.00000000000E+00 0.  1.
</event>
<event>
12    1  0.8356052E-002  0.1788038E+03  0.7818608E-02  0.1172660E+00
         21   -1    0    0  503  502  0.00000000000E+00  0.00000000000E+00  0.11663505154E+04  0.11663505154E+04  0.00000000000E+00 0. -1.
         21   -1    0    0  501  503 -0.00000000000E+00 -0.00000000000E+00 -0.33823603548E+02  0.33823603548E+02  0.00000000000E+00 0. -1.
          6    2    1    2  501    0 -0.13245527465E+02 -0.28777084702E+02  0.24631204278E+03  0.29610133484E+03  0.16125387894E+03 0.  0.
         24    2    3    3    0    0 -0.69665988837E+02 -0.49546335542E+01  0.15087543182E+03  0.18260677835E+03  0.75524440945E+02 0.  0.
         -6    2    1    2    0  502  0.13245527465E+02  0.28777084702E+02  0.88621486903E+03  0.90407278407E+03  0.17597511244E+03 0.  0.
        -24    2    5    5    0    0 -0.11326645378E+02 -0.46464996038E+02  0.35762055772E+03  0.36956441338E+03  0.79988146468E+02 0.  0.
          5    1    3    3  501    0  0.56420461372E+02 -0.23822451148E+02  0.95436610962E+02  0.11349455649E+03  0.47000000000E+01 0. -1.
        -11    1    4    4    0    0 -0.24837828263E+02  0.31617432848E+02  0.90277666164E+02  0.98826295998E+02  0.00000000000E+00 0.  1.
         12    1    4    4    0    0 -0.44828160575E+02 -0.36572066402E+02  0.60597765655E+02  0.83780482356E+02  0.00000000000E+00 0. -1.
         -5    1    5    5    0  502  0.24572172843E+02  0.75242080740E+02  0.52859431131E+03  0.53450837069E+03  0.47000000000E+01 0.  1.
         11    1    6    6    0    0  0.13463470465E+02  0.18288747178E+02  0.65410031122E+02  0.69240273553E+02  0.00000000000E+00 0. -1.
        -12    1    6    6    0    0 -0.24790115843E+02 -0.64753743215E+02  0.29221052660E+03  0.30032413982E+03  0.00000000000E+00 0.  1.
</event>
<event>
12    1  0.8356052E-002  0.1767815E+03  0.7818608E-02  0.1174190E+00
         21   -1    0    0  501  502  0.00000000000E+00  0.00000000000E+00  0.28418397256E+03  0.28418397256E+03  0.00000000000E+00 0. -1.
         21   -1    0    0  502  503 -0.00000000000E+00 -0.00000000000E+00 -0.16634977217E+03  0.16634977217E+03  0.00000000000E+00 0. -1.
         -6    2    1    2    0  503 -0.12877709987E+02  0.41414220374E+02 -0.82141288046E+02  0.18362196303E+03  0.15839463703E+03 0.  0.
        -24    2    3    3    0    0 -0.41247862261E+01  0.12605778958E+02  0.13217531222E+02  0.83512351183E+02  0.81386056201E+02 0.  0.
          6    2    1    2  501    0  0.12877709987E+02 -0.41414220374E+02  0.19997548844E+03  0.26691178170E+03  0.17137890818E+03 0.  0.
         24    2    5    5    0    0  0.28107159655E+02  0.39795822921E+02  0.12805208210E+03  0.15726656453E+03  0.77212153457E+02 0.  0.
          5    1    5    5  501    0 -0.15229449668E+02 -0.81210043296E+02  0.71923406340E+02  0.10964521717E+03  0.47000000000E+01 0. -1.
        -13    1    6    6    0    0 -0.44774992102E+01 -0.13211274687E+02 -0.10129065394E+01  0.13986127330E+02  0.00000000000E+00 0.  1.
         14    1    6    6    0    0  0.32584658865E+02  0.53007097609E+02  0.12906498864E+03  0.14328043720E+03  0.00000000000E+00 0. -1.
         -5    1    3    3    0  503 -0.87529237612E+01  0.28808441417E+02 -0.95358819268E+02  0.10010961184E+03  0.47000000000E+01 0.  1.
         11    1    4    4    0    0 -0.15141879325E+02  0.18580275689E+02 -0.30066027248E+02  0.38450866683E+02  0.00000000000E+00 0. -1.
        -12    1    4    4    0    0  0.11017093099E+02 -0.59744967314E+01  0.43283558470E+02  0.45061484500E+02  0.00000000000E+00 0.  1.
</event>
<event>
12    1  0.8356052E-002  0.1924928E+03  0.7818608E-02  0.1156297E+00
         21   -1    0    0  501  502  0.00000000000E+00  0.00000000000E+00  0.19048133501E+03  0.19048133501E+03  0.00000000000E+00 0.  1.
         21   -1    0    0  502  503 -0.00000000000E+00 -0.00000000000E+00 -0.26986870207E+03  0.26986870207E+03  0.00000000000E+00 0.  1.
         -6    2    1    2    0  503 -0.84552451488E+02  0.18430172037E+02 -0.16153006928E+03  0.25106334485E+03  0.17161600029E+03 0.  0.
        -24    2    3    3    0    0 -0.92403840107E+01 -0.41265395159E+02 -0.47701581911E+02  0.10201810747E+03  0.79649455747E+02 0.  0.
          6    2    1    2  501    0  0.84552451488E+02 -0.18430172037E+02  0.82142702218E+02  0.20928669223E+03  0.17194390866E+03 0.  0.
         24    2    5    5    0    0  0.79109152871E+02  0.10148943526E+02 -0.15375515431E+02  0.10741280883E+03  0.70284037329E+02 0.  0.
          5    1    5    5  501    0  0.54432986164E+01 -0.28579115564E+02  0.97518217649E+02  0.10187388340E+03  0.47000000000E+01 0. -1.
        -11    1    6    6    0    0  0.72861029886E+02 -0.16255811457E+02  0.28824293578E+01  0.74708028224E+02  0.00000000000E+00 0.  1.
         12    1    6    6    0    0  0.62481229856E+01  0.26404754983E+02 -0.18257944789E+02  0.32704780606E+02  0.00000000000E+00 0. -1.
         -5    1    3    3    0  503 -0.75312067477E+02  0.59695567196E+02 -0.11382848737E+03  0.14904523738E+03  0.47000000000E+01 0.  1.
         13    1    4    4    0    0  0.93175699113E+01  0.19250512378E+02 -0.28966146670E+02  0.36006068777E+02  0.00000000000E+00 0. -1.
        -14    1    4    4    0    0 -0.18557953922E+02 -0.60515907537E+02 -0.18735435240E+02  0.66012038693E+02  0.00000000000E+00 0.  1.
</event>
<event>
12    1  0.8356052E-002  0.1805466E+03  0.7818608E-02  0.1167461E+00
         21   -1    0    0  501  502  0.00000000000E+00  0.00000000000E+00  0.93454144463E+02  0.93454144463E+02  0.00000000000E+00 0.  1.
         21   -1    0    0  502  503 -0.00000000000E+00 -0.00000000000E+00 -0.38189898516E+03  0.38189898516E+03  0.00000000000E+00 0.  1.
         -6    2    1    2    0  503 -0.22161544904E+02  0.49166856971E+02 -0.21546348897E+03  0.28061391466E+03  0.17149676418E+03 0.  0.
        -24    2    3    3    0    0 -0.61054817829E+01  0.22147366015E+02 -0.23088610585E+03  0.24528974211E+03  0.79566833449E+02 0.  0.
          6    2    1    2  501    0  0.22161544904E+02 -0.49166856971E+02 -0.72981351727E+02  0.19473921496E+03  0.17230371513E+03 0.  0.
         24    2    5    5    0    0  0.66298985817E+02 -0.33539131985E+02  0.58333314148E+01  0.10294496810E+03  0.71015560313E+02 0.  0.
          5    1    5    5  501    0 -0.44137440913E+02 -0.15627724986E+02 -0.78814683142E+02  0.91794246864E+02  0.47000000000E+01 0. -1.
        -13    1    6    6    0    0  0.45199311700E+02  0.15641738772E+02  0.11313655998E+02  0.49149166646E+02  0.00000000000E+00 0.  1.
         14    1    6    6    0    0  0.21099674117E+02 -0.49180870757E+02 -0.54803245834E+01  0.53795801452E+02  0.00000000000E+00 0. -1.
         -5    1    3    3    0  503 -0.16056063121E+02  0.27019490956E+02  0.15422616879E+02  0.35324172543E+02  0.47000000000E+01 0.  1.
         13    1    4    4    0    0  0.30746111233E+02  0.18840722667E+02 -0.56535052361E+02  0.67056008919E+02  0.00000000000E+00 0. -1.
        -14    1    4    4    0    0 -0.36851593016E+02  0.33066433479E+01 -0.17435105348E+03  0.17823373320E+03  0.00000000000E+00 0.  1.
</event>
<event>
12    1  0.8356052E-002  0.2134200E+03  0.7818608E-02  0.1139066E+00
         21   -1    0    0  501  502  0.00000000000E+00  0.00000000000E+00  0.71440998722E+02  0.71440998722E+02  0.00000000000E+00 0.  1.
         21   -1    0    0  502  503 -0.00000000000E+00 -0.00000000000E+00 -0.67532642948E+03  0.67532642948E+03  0.00000000000E+00 0. -1.
         -6    2    1    2    0  503 -0.11040993652E+03  0.56429192933E+02 -0.39402103038E+03  0.44810787144E+03  0.17370516449E+03 0.  0.
        -24    2    3    3    0    0  0.43108774891E+00 -0.19717622063E+02 -0.10619837544E+03  0.13038465732E+03  0.73028032029E+02 0.  0.
          6    2    1    2  501    0  0.11040993652E+03 -0.56429192933E+02 -0.20986440038E+03  0.29865955676E+03  0.17256841079E+03 0.  0.
         24    2    5    5    0    0  0.11194064051E+03  0.74269584251E+00 -0.89491233491E+02  0.16530755180E+03  0.82381109580E+02 0.  0.
          5    1    5    5  501    0 -0.15307039904E+01 -0.57171888776E+02 -0.12037316689E+03  0.13335200496E+03  0.47000000000E+01 0. -1.
        -11    1    6    6    0    0 -0.31685506326E+01  0.19072690170E+02 -0.17463616607E+01  0.19412805116E+02  0.00000000000E+00 0.  1.
         12    1    6    6    0    0  0.11510919114E+03 -0.18329994328E+02 -0.87744871830E+02  0.14589474668E+03  0.00000000000E+00 0. -1.
         -5    1    3    3    0  503 -0.11084102427E+03  0.76146814997E+02 -0.28782265495E+03  0.31772321413E+03  0.47000000000E+01 0.  1.
         13    1    4    4    0    0  0.16556482866E+02  0.23426296712E+02 -0.31296192275E+02  0.42454212435E+02  0.00000000000E+00 0. -1.
        -14    1    4    4    0    0 -0.16125395117E+02 -0.43143918775E+02 -0.74902183160E+02  0.87930444882E+02  0.00000000000E+00 0.  1.
</event>
<event>
12    1  0.8356052E-002  0.1816127E+03  0.7818608E-02  0.1167417E+00
         21   -1    0    0  503  502  0.00000000000E+00  0.00000000000E+00  0.32152196616E+03  0.32152196616E+03  0.00000000000E+00 0. -1.
         21   -1    0    0  501  503 -0.00000000000E+00 -0.00000000000E+00 -0.13125957057E+03  0.13125957057E+03  0.00000000000E+00 0. -1.
          6    2    1    2  501    0  0.16838122779E+02  0.36890967427E+02 -0.14567485529E+02  0.18219605170E+03  0.17702746613E+03 0.  0.
         24    2    3    3    0    0  0.25669528867E+02  0.13891494732E+02  0.54072702326E+02  0.10911708847E+03  0.90170857384E+02 0.  0.
         -6    2    1    2    0  502 -0.16838122779E+02 -0.36890967427E+02  0.20482988112E+03  0.27058548503E+03  0.17209520230E+03 0.  0.
        -24    2    5    5    0    0  0.71691552169E+01  0.10239420805E+02  0.20168827794E+03  0.21739166432E+03  0.80154424274E+02 0.  0.
          5    1    3    3  501    0 -0.88314060876E+01  0.22999472695E+02 -0.68640187855E+02  0.73078963228E+02  0.47000000000E+01 0. -1.
        -13    1    4    4    0    0 -0.12759633982E+02  0.42634561351E+02  0.14166401679E+02  0.46703329833E+02  0.00000000000E+00 0.  1.
         14    1    4    4    0    0  0.38429162849E+02 -0.28743066619E+02  0.39906300647E+02  0.62413758638E+02  0.00000000000E+00 0. -1.
         -5    1    5    5    0  502 -0.24007277996E+02 -0.47130388232E+02  0.31416031733E+01  0.53193820714E+02  0.47000000000E+01 0.  1.
         11    1    6    6    0    0 -0.17281969901E+02 -0.28500491281E+02  0.62116291349E+02  0.70493816310E+02  0.00000000000E+00 0. -1.
        -12    1    6    6    0    0  0.24451125118E+02  0.38739912086E+02  0.13957198659E+03  0.14689784801E+03  0.00000000000E+00 0.  1.
</event>
<event>
12    1  0.8356052E-002  0.1902466E+03  0.7818608E-02  0.1158297E+00
         21   -1    0    0  501  502  0.00000000000E+00  0.00000000000E+00  0.83301120003E+02  0.83301120003E+02  0.00000000000E+00 0. -1.
         21   -1    0    0  502  503 -0.00000000000E+00 -0.00000000000E+00 -0.17547225582E+04  0.17547225582E+04  0.00000000000E+00 0. -1.
         -6    2    1    2    0  503 -0.18825213311E+02 -0.79091238693E+02 -0.16331795247E+04  0.16442229553E+04  0.17199986628E+03 0.  0.
        -24    2    3    3    0    0 -0.49992518470E+02 -0.10450646204E+03 -0.97091964522E+03  0.98072648016E+03  0.75621550595E+02 0.  0.
          6    2    1    2  501    0  0.18825213311E+02  0.79091238693E+02 -0.38241913461E+02  0.19380072291E+03  0.17171622975E+03 0.  0.
         24    2    5    5    0    0  0.56225726120E+01 -0.26492503375E+02 -0.12542010923E+02  0.84234253124E+02  0.78769545533E+02 0.  0.
          5    1    5    5  501    0  0.13202640699E+02  0.10558374207E+03 -0.25699902538E+02  0.10956646979E+03  0.47000000000E+01 0. -1.
        -13    1    6    6    0    0  0.15081981028E+02 -0.30943202121E+02 -0.41224101931E+02  0.53706372892E+02  0.00000000000E+00 0.  1.
         14    1    6    6    0    0 -0.94594084158E+01  0.44506987452E+01  0.28682091008E+02  0.30527880233E+02  0.00000000000E+00 0. -1.
         -5    1    3    3    0  503  0.31167305158E+02  0.25415223345E+02 -0.66225987953E+03  0.66349647514E+03  0.47000000000E+01 0.  1.
         13    1    4    4    0    0 -0.38435152155E+02 -0.32314818616E+02 -0.63298489502E+03  0.63497353154E+03  0.00000000000E+00 0. -1.
        -14    1    4    4    0    0 -0.11557366315E+02 -0.72191643422E+02 -0.33793475019E+03  0.34575294863E+03  0.00000000000E+00 0.  1.
</event>
<event>
12    1  0.8356052E-002  0.2031310E+03  0.7818608E-02  0.1147238E+00
         21   -1    0    0  503  502  0.00000000000E+00  0.00000000000E+00  0.11459849998E+04  0.11459849998E+04  0.00000000000E+00 0.  1.
         21   -1    0    0  501  503 -0.00000000000E+00 -0.00000000000E+00 -0.56607434542E+02  0.56607434542E+02  0.00000000000E+00 0.  1.
          6    2    1    2  501    0  0.96260576951E+02 -0.48273750784E+02  0.18062143096E+03  0.27141042662E+03  0.17158981517E+03 0.  0.
         24    2    3    3    0    0  0.43387991595E+02  0.23275869535E+02  0.28969380776E+02  0.95526110168E+02  0.76561927771E+02 0.  0.
         -6    2    1    2    0  502 -0.96260576951E+02  0.48273750784E+02  0.90875613428E+03  0.93118200770E+03  0.17223752839E+03 0.  0.
        -24    2    5    5    0    0 -0.11595348685E+03  0.79309850440E+02  0.69415607085E+03  0.71340614263E+03  0.85792832793E+02 0.  0.
          5    1    3    3  501    0  0.52872585356E+02 -0.71549620319E+02  0.15165205018E+03  0.17588431646E+03  0.47000000000E+01 0. -1.
        -11    1    4    4    0    0  0.64433812968E+02  0.21868101846E+02  0.13502974177E+02  0.69370458003E+02  0.00000000000E+00 0.  1.
         12    1    4    4    0    0 -0.21045821373E+02  0.14077676892E+01  0.15466406598E+02  0.26155652165E+02  0.00000000000E+00 0. -1.
         -5    1    5    5    0  502  0.19692909898E+02 -0.31036099656E+02  0.21460006344E+03  0.21777586507E+03  0.47000000000E+01 0.  1.
         11    1    6    6    0    0  0.19898898421E+01 -0.12168652177E+02  0.25924860648E+02  0.28707736884E+02  0.00000000000E+00 0. -1.
        -12    1    6    6    0    0 -0.11794337669E+03  0.91478502617E+02  0.66823121020E+03  0.68469840575E+03  0.00000000000E+00 0.  1.
</event>
<event>
12    1  0.8356052E-002  0.2454761E+03  0.7818608E-02  0.1116308E+00
         21   -1    0    0  503  502  0.00000000000E+00  0.00000000000E+00  0.50081811660E+03  0.50081811660E+03  0.00000000000E+00 0.  1.
         21   -1    0    0  501  503 -0.00000000000E+00 -0.00000000000E+00 -0.12031825285E+03  0.12031825285E+03  0.00000000000E+00 0. -1.
          6    2    1    2  501    0 -0.73368515326E+02 -0.15937819261E+03  0.17366466447E+03  0.30013901276E+03  0.17070343867E+03 0.  0.
         24    2    3    3    0    0  0.16278528157E+02 -0.11069691554E+03  0.12911120539E+03  0.18872285658E+03  0.80173659318E+02 0.  0.
         -6    2    1    2    0  502  0.73368515326E+02  0.15937819261E+03  0.20683519928E+03  0.32099735670E+03  0.17168038917E+03 0.  0.
        -24    2    5    5    0    0  0.30701855350E+02  0.32277873288E+02  0.25752111231E+02  0.95635181915E+02  0.80612975141E+02 0.  0.
          5    1    3    3  501    0 -0.89647043483E+02 -0.48681277068E+02  0.44553459081E+02  0.11141615618E+03  0.47000000000E+01 0. -1.
        -11    1    4    4    0    0  0.32849726977E+02 -0.90286371527E+02  0.56407347643E+02  0.11141149992E+03  0.00000000000E+00 0.  1.
         12    1    4    4    0    0 -0.16571198820E+02 -0.20410544017E+02  0.72703857748E+02  0.77311356661E+02  0.00000000000E+00 0. -1.
         -5    1    5    5    0  502  0.42666659976E+02  0.12710031933E+03  0.18108308805E+03  0.22536217478E+03  0.47000000000E+01 0.  1.
         11    1    6    6    0    0  0.27541505173E+02 -0.22563793694E+02  0.16353828763E+01  0.35641741964E+02  0.00000000000E+00 0. -1.
        -12    1    6    6    0    0  0.31603501768E+01  0.54841666982E+02  0.24116728355E+02  0.59993439951E+02  0.00000000000E+00 0.  1.
</event>
<event>
12    1  0.8356052E-002  0.2188175E+03  0.7818608E-02  0.1134924E+00
         21   -1    0    0  503  502  0.00000000000E+00  0.00000000000E+00  0.39427409963E+02  0.39427409963E+02  0.00000000000E+00 0. -1.
         21   -1    0    0  501  503 -0.00000000000E+00 -0.00000000000E+00 -0.13858245884E+04  0.13858245884E+04  0.00000000000E+00 0. -1.
          6    2    1    2  501    0 -0.12570402707E+03 -0.47445683257E+02 -0.92828761068E+03  0.95372899929E+03  0.17270935312E+03 0.  0.
         24    2    3    3    0    0 -0.26610658468E+02  0.19079429256E+02 -0.56351016153E+03  0.56989340466E+03  0.78502476136E+02 0.  0.
         -6    2    1    2    0  502  0.12570402707E+03  0.47445683257E+02 -0.41810956772E+03  0.47152299904E+03  0.17165585549E+03 0.  0.
        -24    2    5    5    0    0  0.11702787892E+03  0.23135812735E+02 -0.17336588348E+03  0.22537709449E+03  0.80674127763E+02 0.  0.
          5    1    3    3  501    0 -0.99093368601E+02 -0.66525112513E+02 -0.36477744915E+03  0.38383559463E+03  0.47000000000E+01 0. -1.
        -11    1    4    4    0    0 -0.20072666218E+02  0.49432716113E+02 -0.32099363367E+03  0.32539732360E+03  0.00000000000E+00 0.  1.
         12    1    4    4    0    0 -0.65379922497E+01 -0.30353286856E+02 -0.24251652786E+03  0.24449608106E+03  0.00000000000E+00 0. -1.
         -5    1    5    5    0  502  0.86761481461E+01  0.24309870521E+02 -0.24474368424E+03  0.24614590455E+03  0.47000000000E+01 0.  1.
         13    1    6    6    0    0  0.10413055505E+03  0.16572345896E+02 -0.18065422837E+03  0.20917400740E+03  0.00000000000E+00 0. -1.
        -14    1    6    6    0    0  0.12897323873E+02  0.65634668394E+01  0.72883448907E+01  0.16203087091E+02  0.00000000000E+00 0.  1.
</event>
<event>
12    1  0.8356052E-002  0.2768906E+03  0.7818608E-02  0.1097864E+00
         21   -1    0    0  503  502  0.00000000000E+00  0.00000000000E+00  0.36342650825E+03  0.36342650825E+03  0.00000000000E+00 0.  1.
         21   -1    0    0  501  503 -0.00000000000E+00 -0.00000000000E+00 -0.30148800829E+03  0.30148800829E+03  0.00000000000E+00 0. -1.
          6    2    1    2  501    0 -0.11231561545E+03 -0.18145893896E+03 -0.15360253887E+03  0.31664201701E+03  0.17642642373E+03 0.  0.
         24    2    3    3    0    0 -0.14187368781E+03 -0.13028481255E+03 -0.82131737099E+02  0.22378386518E+03  0.78938712956E+02 0.  0.
         -6    2    1    2    0  502  0.11231561545E+03  0.18145893896E+03  0.21554103883E+03  0.34827249952E+03  0.17115387960E+03 0.  0.
        -24    2    5    5    0    0  0.64567176851E+01  0.42448678687E+02  0.34785651686E+02  0.96827557879E+02  0.79510721768E+02 0.  0.
          5    1    3    3  501    0  0.29558072365E+02 -0.51174126410E+02 -0.71470801769E+02  0.92858151830E+02  0.47000000000E+01 0. -1.
        -11    1    4    4    0    0 -0.37176484483E+02 -0.74129741100E+02 -0.70215381677E+01  0.83226266961E+02  0.00000000000E+00 0.  1.
         12    1    4    4    0    0 -0.10469720333E+03 -0.56155071448E+02 -0.75110198932E+02  0.14055759822E+03  0.00000000000E+00 0. -1.
         -5    1    5    5    0  502  0.10585889776E+03  0.13901026027E+03  0.18075538714E+03  0.25144494164E+03  0.47000000000E+01 0.  1.
         11    1    6    6    0    0  0.25151639229E+02  0.71620682759E+00 -0.14947322764E+02  0.29266710884E+02  0.00000000000E+00 0. -1.
        -12    1    6    6    0    0 -0.18694921544E+02  0.41732471859E+02  0.49732974451E+02  0.67560846996E+02  0.00000000000E+00 0.  1.
</event>
<event>
12    1  0.8356052E-002  0.1859495E+03  0.7818608E-02  0.1162273E+00
         21   -1    0    0  501  502  0.00000000000E+00  0.00000000000E+00  0.86822638626E+03  0.86822638626E+03  0.00000000000E+00 0.  1.
         21   -1    0    0  502  503 -0.00000000000E+00 -0.00000000000E+00 -0.39805383190E+02  0.39805383190E+02  0.00000000000E+00 0. -1.
         -6    2    1    2    0  503 -0.15218999295E+02 -0.67647431070E+02  0.43495520130E+03  0.47303620111E+03  0.17253819156E+03 0.  0.
        -24    2    3    3    0    0  0.19367553771E+02 -0.97546151906E+02  0.23188263683E+03  0.26482784488E+03  0.80460401882E+02 0.  0.
          6    2    1    2  501    0  0.15218999295E+02  0.67647431070E+02  0.39346580176E+03  0.43499556834E+03  0.17204073485E+03 0.  0.
         24    2    5    5    0    0  0.26120575210E+02 -0.20338100986E+02  0.12724566280E+03  0.15436137477E+03  0.80870591191E+02 0.  0.
          5    1    5    5  501    0 -0.10901575916E+02  0.87985532055E+02  0.26622013896E+03  0.28063419357E+03  0.47000000000E+01 0. -1.
        -13    1    6    6    0    0 -0.19555857074E+02 -0.31553933462E+02  0.77324034929E+02  0.85773472826E+02  0.00000000000E+00 0.  1.
         14    1    6    6    0    0  0.45676432284E+02  0.11215832476E+02  0.49921627869E+02  0.68587901947E+02  0.00000000000E+00 0. -1.
         -5    1    3    3    0  503 -0.34586553066E+02  0.29898720836E+02  0.20307256447E+03  0.20820835622E+03  0.47000000000E+01 0.  1.
         11    1    4    4    0    0 -0.16401381627E+02 -0.16855678669E+01  0.72904322773E+01  0.18027669320E+02  0.00000000000E+00 0. -1.
        -12    1    4    4    0    0  0.35768935398E+02 -0.95860584039E+02  0.22459220456E+03  0.24680017556E+03  0.00000000000E+00 0.  1.
</event>
<event>
12    1  0.8356052E-002  0.1863407E+03  0.7818608E-02  0.1164893E+00
         21   -1    0    0  501  502  0.00000000000E+00  0.00000000000E+00  0.11556680236E+03  0.11556680236E+03  0.00000000000E+00 0.  1.
         21   -1    0    0  502  503 -0.00000000000E+00 -0.00000000000E+00 -0.34339739989E+03  0.34339739989E+03  0.00000000000E+00 0.  1.
         -6    2    1    2    0  503 -0.24811500006E+02  0.55274490701E+01 -0.20908039318E+03  0.27168249910E+03  0.17161178945E+03 0.  0.
        -24    2    3    3    0    0 -0.21053886042E+02  0.66562233885E+02 -0.11272467135E+03  0.15746393778E+03  0.84936700388E+02 0.  0.
          6    2    1    2  501    0  0.24811500006E+02 -0.55274490701E+01 -0.18750204354E+02  0.18728170315E+03  0.18459876204E+03 0.  0.
         24    2    5    5    0    0  0.78611891121E+01  0.24143443626E+02  0.59093355967E+02  0.10213838400E+03  0.79344316758E+02 0.  0.
          5    1    5    5  501    0  0.16950310894E+02 -0.29670892696E+02 -0.77843560321E+02  0.85143319152E+02  0.47000000000E+01 0. -1.
        -13    1    6    6    0    0  0.27695287424E+02 -0.17968056980E+02  0.10021237757E+02  0.34500800328E+02  0.00000000000E+00 0.  1.
         14    1    6    6    0    0 -0.19834098311E+02  0.42111500605E+02  0.49072118209E+02  0.67637583669E+02  0.00000000000E+00 0. -1.
         -5    1    3    3    0  503 -0.37576139636E+01 -0.61034784815E+02 -0.96355721835E+02  0.11421856132E+03  0.47000000000E+01 0.  1.
         11    1    4    4    0    0 -0.18828004119E+02  0.36808669305E+01  0.84221749113E+01  0.20951743381E+02  0.00000000000E+00 0. -1.
        -12    1    4    4    0    0 -0.22258819230E+01  0.62881366954E+02 -0.12114684626E+03  0.13651219440E+03  0.00000000000E+00 0.  1.
</event>
<event>
12    1  0.8356052E-002  0.2006344E+03  0.7818608E-02  0.1149387E+00
         21   -1    0    0  501  502  0.00000000000E+00  0.00000000000E+00  0.47468270931E+03  0.47468270931E+03  0.00000000000E+00 0.  1.
         21   -1    0    0  502  503 -0.00000000000E+00 -0.00000000000E+00 -0.13556266730E+03  0.13556266730E+03  0.00000000000E+00 0.  1.
         -6    2    1    2    0  503 -0.39929056297E+02  0.95488983171E+02 -0.17592909019E+02  0.20140429966E+03  0.17187700844E+03 0.  0.
        -24    2    3    3    0    0 -0.22287945941E+02 -0.68091812503E+01 -0.35732798109E+02  0.95918429543E+02  0.85909224079E+02 0.  0.
          6    2    1    2  501    0  0.39929056297E+02 -0.95488983171E+02  0.35671295103E+03  0.40884107695E+03  0.17086375076E+03 0.  0.
         24    2    5    5    0    0  0.54309550397E+02 -0.91622911598E+02  0.36657001527E+03  0.39037497732E+03  0.81699214400E+02 0.  0.
          5    1    5    5  501    0 -0.14380494100E+02 -0.38660715726E+01 -0.98570642378E+01  0.18466099625E+02  0.47000000000E+01 0. -1.
        -13    1    6    6    0    0  0.82489834426E+01 -0.78885492090E+02  0.28505691076E+03  0.29588580392E+03  0.00000000000E+00 0.  1.
         14    1    6    6    0    0  0.46060566954E+02 -0.12737419508E+02  0.81513104508E+02  0.94489173403E+02  0.00000000000E+00 0. -1.
         -5    1    3    3    0  503 -0.17641110357E+02  0.10229816442E+03  0.18139889090E+02  0.10548587012E+03  0.47000000000E+01 0.  1.
         11    1    4    4    0    0  0.15090614446E+02 -0.17387223652E+02  0.18272807208E+02  0.29392816707E+02  0.00000000000E+00 0. -1.
        -12    1    4    4    0    0 -0.37378560387E+02  0.10578042402E+02 -0.54005605317E+02  0.66525612837E+02  0.00000000000E+00 0.  1.
</event>
<event>
12    1  0.8356052E-002  0.2483358E+03  0.7818608E-02  0.1114857E+00
         21   -1    0    0  501  502  0.00000000000E+00  0.00000000000E+00  0.10785409354E+03  0.10785409354E+03  0.00000000000E+00 0.  1.
         21   -1    0    0  502  503 -0.00000000000E+00 -0.00000000000E+00 -0.90871969950E+03  0.90871969950E+03  0.00000000000E+00 0. -1.
         -6    2    1    2    0  503  0.87511065429E+02  0.15327800920E+03 -0.71472943939E+03  0.75664313145E+03  0.17469494029E+03 0.  0.
        -24    2    3    3    0    0  0.17262556572E+02  0.14905045706E+03 -0.42195788445E+03  0.45549532957E+03  0.83147485855E+02 0.  0.
          6    2    1    2  501    0 -0.87511065429E+02 -0.15327800920E+03 -0.86136166574E+02  0.25993066159E+03  0.17027088702E+03 0.  0.
         24    2    5    5    0    0 -0.54407965325E+02 -0.34855853188E+02 -0.75997540732E+02  0.13646202588E+03  0.93118747399E+02 0.  0.
          5    1    5    5  501    0 -0.33103100104E+02 -0.11842215601E+03 -0.10138625842E+02  0.12346863572E+03  0.47000000000E+01 0. -1.
        -11    1    6    6    0    0 -0.67183499434E+02 -0.56743569103E+02 -0.60792101634E+02  0.10690713190E+03  0.00000000000E+00 0.  1.
         12    1    6    6    0    0  0.12775534109E+02  0.21887715915E+02 -0.15205439098E+02  0.29554893975E+02  0.00000000000E+00 0. -1.
         -5    1    3    3    0  503  0.70248508857E+02  0.42275521446E+01 -0.29277155494E+03  0.30114780188E+03  0.47000000000E+01 0.  1.
         11    1    4    4    0    0  0.49879449557E+02  0.91328505149E+02 -0.23105740594E+03  0.25340951083E+03  0.00000000000E+00 0. -1.
        -12    1    4    4    0    0 -0.32616892985E+02  0.57721951909E+02 -0.19090047851E+03  0.20208581874E+03  0.00000000000E+00 0.  1.
</event>
<event>
12    1  0.8356052E-002  0.1795591E+03  0.7818608E-02  0.1168899E+00
         21   -1    0    0  503  502  0.00000000000E+00  0.00000000000E+00  0.48920925177E+02  0.48920925177E+02  0.00000000000E+00 0.  1.
         21   -1    0    0  501  503 -0.00000000000E+00 -0.00000000000E+00 -0.79901361551E+03  0.79901361551E+03  0.00000000000E+00 0. -1.
          6    2    1    2  501    0  0.33353918078E+02 -0.28885224218E+02 -0.56103791583E+03  0.58907131447E+03  0.17405352770E+03 0.  0.
         24    2    3    3    0    0  0.77648320894E+01 -0.50534365719E+02 -0.15200815739E+03  0.17864358643E+03  0.78695846944E+02 0.  0.
         -6    2    1    2    0  502 -0.33353918078E+02  0.28885224218E+02 -0.18905477450E+03  0.25886322622E+03  0.17123557485E+03 0.  0.
        -24    2    5    5    0    0 -0.36282949873E+02  0.62223914210E+02 -0.19721155530E+03  0.22409728670E+03  0.78351314040E+02 0.  0.
          5    1    3    3  501    0  0.25589085988E+02  0.21649141501E+02 -0.40902975845E+03  0.41042772804E+03  0.47000000000E+01 0. -1.
        -11    1    4    4    0    0 -0.13708891600E+02 -0.73979386435E+01  0.33933305972E+01  0.15942957618E+02  0.00000000000E+00 0.  1.
         12    1    4    4    0    0  0.21473723689E+02 -0.43136427075E+02 -0.15540148798E+03  0.16270062882E+03  0.00000000000E+00 0. -1.
         -5    1    5    5    0  502  0.29290317950E+01 -0.33338689992E+02  0.81567807922E+01  0.34765939518E+02  0.47000000000E+01 0.  1.
         13    1    6    6    0    0 -0.33182112067E+00  0.61236957275E+02 -0.16432034369E+03  0.17536034441E+03  0.00000000000E+00 0. -1.
        -14    1    6    6    0    0 -0.35951128752E+02  0.98695693519E+00 -0.32891211606E+02  0.48736942287E+02  0.00000000000E+00 0.  1.
</event>
<event>
12    1  0.8356052E-002  0.1798229E+03  0.7818608E-02  0.1168170E+00
         21   -1    0    0  503  502  0.00000000000E+00  0.00000000000E+00  0.20875503981E+04  0.20875503981E+04  0.00000000000E+00 0.  1.
         21   -1    0    0  501  503 -0.00000000000E+00 -0.00000000000E+00 -0.17861844816E+02  0.17861844816E+02  0.00000000000E+00 0.  1.
          6    2    1    2  501    0  0.47039526230E+02 -0.15048939661E+02  0.64367193857E+03  0.66810237447E+03  0.17206984235E+03 0.  0.
         24    2    3    3    0    0  0.13844786257E+02  0.93561406112E+01  0.60808242725E+03  0.61345622161E+03  0.79278509291E+02 0.  0.
         -6    2    1    2    0  502 -0.47039526230E+02  0.15048939661E+02  0.14260166148E+04  0.14373098685E+04  0.17290773524E+03 0.  0.
        -24    2    5    5    0    0 -0.94940278132E+02  0.65062971538E+01  0.82785340575E+03  0.83715257796E+03  0.80169751543E+02 0.  0.
          5    1    3    3  501    0  0.33194739973E+02 -0.24405080272E+02  0.35589511325E+02  0.54646152850E+02  0.47000000000E+01 0. -1.
        -11    1    4    4    0    0 -0.61209025953E+00 -0.20659416269E+02  0.46500722486E+02  0.50887162691E+02  0.00000000000E+00 0.  1.
         12    1    4    4    0    0  0.14456876516E+02  0.30015556880E+02  0.56158170476E+03  0.56256905892E+03  0.00000000000E+00 0. -1.
         -5    1    5    5    0  502  0.47900751902E+02  0.85426425074E+01  0.59816320901E+03  0.60015729054E+03  0.47000000000E+01 0.  1.
         11    1    6    6    0    0  0.13027109099E+02  0.98806812195E+01  0.11799253585E+03  0.11911998971E+03  0.00000000000E+00 0. -1.
        -12    1    6    6    0    0 -0.10796738723E+03 -0.33743840658E+01  0.70986086990E+03  0.71803258825E+03  0.00000000000E+00 0.  1.
</event>
<event>
12    1  0.8356052E-002  0.1823583E+03  0.7818608E-02  0.1166064E+00
         21   -1    0    0  503  502  0.00000000000E+00  0.00000000000E+00  0.20880642336E+03  0.20880642336E+03  0.00000000000E+00 0.  1.
         21   -1    0    0  501  503 -0.00000000000E+00 -0.00000000000E+00 -0.53428727986E+03  0.53428727986E+03  0.00000000000E+00 0.  1.
          6    2    1    2  501    0  0.52069175895E+02 -0.25843598233E+02 -0.47510164994E+03  0.50889698552E+03  0.17284522974E+03 0.  0.
         24    2    3    3    0    0  0.22626174763E+02  0.50834233639E+02 -0.21718870776E+03  0.23818024063E+03  0.80391723177E+02 0.  0.
         -6    2    1    2    0  502 -0.52069175895E+02  0.25843598233E+02  0.14962079344E+03  0.23419671771E+03  0.17053630143E+03 0.  0.
        -24    2    5    5    0    0 -0.51942822253E+02  0.81247458686E+02  0.12372988011E+03  0.17286130288E+03  0.72613638362E+02 0.  0.
          5    1    3    3  501    0  0.29443001133E+02 -0.76677831872E+02 -0.25791294218E+03  0.27071674489E+03  0.47000000000E+01 0. -1.
        -11    1    4    4    0    0  0.12789112392E+02  0.61771421851E+02 -0.21403298423E+03  0.22313535867E+03  0.00000000000E+00 0.  1.
         12    1    4    4    0    0  0.98370623704E+01 -0.10937188212E+02 -0.31557235283E+01  0.15044881955E+02  0.00000000000E+00 0. -1.
         -5    1    5    5    0  502 -0.12635364251E+00 -0.55403860452E+02  0.25890913337E+02  0.61335414824E+02  0.47000000000E+01 0.  1.
         13    1    6    6    0    0 -0.11474041666E+02  0.38566682742E+02  0.52405404163E+01  0.40577160000E+02  0.00000000000E+00 0. -1.
        -14    1    6    6    0    0 -0.40468780587E+02  0.42680775944E+02  0.11848933969E+03  0.13228414288E+03  0.00000000000E+00 0.  1.
</event>
<event>
12    1  0.8356052E-002  0.1749829E+03  0.7818608E-02  0.1172784E+00
         21   -1    0    0  503  502  0.00000000000E+00  0.00000000000E+00  0.80552356061E+03  0.80552356061E+03  0.00000000000E+00 0. -1.
         21   -1    0    0  501  503 -0.00000000000E+00 -0.00000000000E+00 -0.20077794543E+03  0.20077794543E+03  0.00000000000E+00 0. -1.
          6    2    1    2  501    0 -0.36396885273E+00 -0.30585100476E+02 -0.15071705978E+03  0.23083851389E+03  0.17214879187E+03 0.  0.
         24    2    3    3    0    0 -0.13794538170E+02  0.17760898078E+02 -0.18410667995E+02  0.89258899977E+02  0.84394666569E+02 0.  0.
         -6    2    1    2    0  502  0.36396885273E+00  0.30585100476E+02  0.75546267495E+03  0.77546299215E+03  0.17228876374E+03 0.  0.
        -24    2    5    5    0    0 -0.81279102081E+01  0.23619224431E+02  0.75695338108E+03  0.76342357174E+03  0.95985405565E+02 0.  0.
          5    1    3    3  501    0  0.13430569318E+02 -0.48345998554E+02 -0.13230639178E+03  0.14157961391E+03  0.47000000000E+01 0. -1.
        -13    1    4    4    0    0  0.22619179841E+02  0.16151670004E+02 -0.38620298059E+02  0.47581836480E+02  0.00000000000E+00 0.  1.
         14    1    4    4    0    0 -0.36413718012E+02  0.16092280734E+01  0.20209630064E+02  0.41677063497E+02  0.00000000000E+00 0. -1.
         -5    1    5    5    0  502  0.84918790609E+01  0.69658760446E+01 -0.14907061270E+01  0.12039420410E+02  0.47000000000E+01 0.  1.
         13    1    6    6    0    0 -0.47002953304E+01  0.60020569588E+02  0.38517912542E+03  0.38985576847E+03  0.00000000000E+00 0. -1.
        -14    1    6    6    0    0 -0.34276148778E+01 -0.36401345156E+02  0.37177425566E+03  0.37356780328E+03  0.00000000000E+00 0.  1.
</event>
<event>
12    1  0.8356052E-002  0.2104260E+03  0.7818608E-02  0.1141354E+00
         21   -1    0    0  501  502  0.00000000000E+00  0.00000000000E+00  0.22446286477E+03  0.22446286477E+03  0.00000000000E+00 0. -1.
         21   -1    0    0  502  503 -0.00000000000E+00 -0.00000000000E+00 -0.24323787156E+03  0.24323787156E+03  0.00000000000E+00 0. -1.
         -6    2    1    2    0  503  0.11611073908E+03 -0.33198477735E+02 -0.11169299683E+03  0.23767282147E+03  0.17154941525E+03 0.  0.
        -24    2    3    3    0    0  0.11474673016E+03 -0.24648507617E+01 -0.15649202601E+02  0.13671284546E+03  0.72612788124E+02 0.  0.
          6    2    1    2  501    0 -0.11611073908E+03  0.33198477735E+02  0.92917990035E+02  0.23002791486E+03  0.17232308636E+03 0.  0.
         24    2    5    5    0    0 -0.10292666772E+03 -0.33821328069E+02  0.90393249581E+02  0.16151559172E+03  0.78603852572E+02 0.  0.
          5    1    5    5  501    0 -0.13184071353E+02  0.67019805804E+02  0.25247404544E+01  0.68512323139E+02  0.47000000000E+01 0. -1.
        -13    1    6    6    0    0 -0.15307108497E+02  0.64255824524E+01 -0.12292097152E+02  0.20656508243E+02  0.00000000000E+00 0.  1.
         14    1    6    6    0    0 -0.87619559226E+02 -0.40246910521E+02  0.10268534673E+03  0.14085908348E+03  0.00000000000E+00 0. -1.
         -5    1    3    3    0  503  0.13640089136E+01 -0.30733626974E+02 -0.96043794226E+02  0.10095997601E+03  0.47000000000E+01 0.  1.
         11    1    4    4    0    0  0.84619621208E+02 -0.15213859817E+02 -0.41071227622E+02  0.95282671889E+02  0.00000000000E+00 0. -1.
        -12    1    4    4    0    0  0.30127108955E+02  0.12749009055E+02  0.25422025021E+02  0.41430173570E+02  0.00000000000E+00 0.  1.
</event>
<event>
12    1  0.8356052E-002  0.2291538E+03  0.7818608E-02  0.1127261E+00
         21   -1    0    0  503  502  0.00000000000E+00  0.00000000000E+00  0.73787521318E+02  0.73787521318E+02  0.00000000000E+00 0. -1.
         21   -1    0    0  501  503 -0.00000000000E+00 -0.00000000000E+00 -0.71153225243E+03  0.71153225243E+03  0.00000000000E+00 0.  1.
          6    2    1    2  501    0 -0.44575460923E+02 -0.14504430714E+03 -0.31074855677E+03  0.38602291129E+03  0.17153483540E+03 0.  0.
         24    2    3    3    0    0  0.21729023633E+02 -0.31430497237E+02 -0.17764510407E+03  0.19882515064E+03  0.80707068473E+02 0.  0.
         -6    2    1    2    0  502  0.44575460923E+02  0.14504430714E+03 -0.32699617435E+03  0.39929686246E+03  0.17171681218E+03 0.  0.
        -24    2    5    5    0    0  0.91084909874E+02  0.77064379347E+02 -0.17459892210E+03  0.22600112704E+03  0.79726698498E+02 0.  0.
          5    1    3    3  501    0 -0.66304484556E+02 -0.11361380990E+03 -0.13310345270E+03  0.18719776065E+03  0.47000000000E+01 0. -1.
        -13    1    4    4    0    0 -0.10917967273E+02 -0.14789608911E+02 -0.15426889194E+03  0.15536030883E+03  0.00000000000E+00 0.  1.
         14    1    4    4    0    0  0.32646990906E+02 -0.16640888326E+02 -0.23376212135E+02  0.43464841806E+02  0.00000000000E+00 0. -1.
         -5    1    5    5    0  502 -0.46509448951E+02  0.67979927790E+02 -0.15239725225E+03  0.17329573542E+03  0.47000000000E+01 0.  1.
         11    1    6    6    0    0  0.11970153667E+02  0.32040753504E+02 -0.64687357474E+01  0.34810041742E+02  0.00000000000E+00 0. -1.
        -12    1    6    6    0    0  0.79114756208E+02  0.45023625843E+02 -0.16813018635E+03  0.19119108530E+03  0.00000000000E+00 0.  1.
</event>
<event>
12    1  0.8356052E-002  0.2248572E+03  0.7818608E-02  0.1130816E+00
         21   -1    0    0  501  502  0.00000000000E+00  0.00000000000E+00  0.26141657459E+03  0.26141657459E+03  0.00000000000E+00 0. -1.
         21   -1    0    0  502  503 -0.00000000000E+00 -0.00000000000E+00 -0.23150692056E+03  0.23150692056E+03  0.00000000000E+00 0.  1.
         -6    2    1    2    0  503 -0.14088025810E+03 -0.19577742406E+02 -0.88004076645E+02  0.24146526796E+03  0.17415574353E+03 0.  0.
        -24    2    3    3    0    0 -0.16516038314E+03 -0.29923949766E+02 -0.65697649333E+02  0.20659070447E+03  0.10094623876E+03 0.  0.
          6    2    1    2  501    0  0.14088025810E+03  0.19577742406E+02  0.11791373068E+03  0.25145822719E+03  0.17057859485E+03 0.  0.
         24    2    5    5    0    0  0.90060100267E+02  0.66267136897E+02  0.31569649260E+02  0.14082379134E+03  0.79577272888E+02 0.  0.
          5    1    5    5  501    0  0.50820157833E+02 -0.46689394490E+02  0.86344081423E+02  0.11063443585E+03  0.47000000000E+01 0. -1.
        -13    1    6    6    0    0  0.10086118596E+03  0.52447116877E+02  0.41072998119E+02  0.12087460476E+03  0.00000000000E+00 0.  1.
         14    1    6    6    0    0 -0.10801085695E+02  0.13820020019E+02 -0.95033488584E+01  0.19949186576E+02  0.00000000000E+00 0. -1.
         -5    1    3    3    0  503  0.24280125038E+02  0.10346207360E+02 -0.22306427312E+02  0.34874563481E+02  0.47000000000E+01 0.  1.
         13    1    4    4    0    0 -0.45993248239E+02  0.12678470792E+02  0.22085117144E+02  0.52572567984E+02  0.00000000000E+00 0. -1.
        -14    1    4    4    0    0 -0.11916713490E+03 -0.42602420558E+02 -0.87782766477E+02  0.15401813649E+03  0.00000000000E+00 0.  1.
</event>
<event>
12    1  0.8356052E-002  0.1750649E+03  0.7818608E-02  0.1173003E+00
         21   -1    0    0  501  502  0.00000000000E+00  0.00000000000E+00  0.24211420323E+03  0.24211420323E+03  0.00000000000E+00 0.  1.
         21   -1    0    0  502  503 -0.00000000000E+00 -0.00000000000E+00 -0.34101165286E+03  0.34101165286E+03  0.00000000000E+00 0.  1.
         -6    2    1    2    0  503  0.23653938977E+02  0.10810872579E+02 -0.28109701777E+03  0.33045134477E+03  0.17177361284E+03 0.  0.
        -24    2    3    3    0    0  0.47404377993E+02  0.60465018768E+02 -0.13666836143E+03  0.17581841051E+03  0.79565563599E+02 0.  0.
          6    2    1    2  501    0 -0.23653938977E+02 -0.10810872579E+02  0.18219956814E+03  0.25267451132E+03  0.17312233317E+03 0.  0.
         24    2    5    5    0    0 -0.28442288921E+02 -0.39486388820E+02  0.19815791205E+03  0.21917865684E+03  0.80028662406E+02 0.  0.
          5    1    5    5  501    0  0.47883499441E+01  0.28675516241E+02 -0.15958343903E+02  0.33495854475E+02  0.47000000000E+01 0. -1.
        -11    1    6    6    0    0  0.78068992234E+00  0.14014537220E+02  0.11614646221E+03  0.11699152710E+03  0.00000000000E+00 0.  1.
         12    1    6    6    0    0 -0.29222978843E+02 -0.53500926040E+02  0.82011449841E+02  0.10218712974E+03  0.00000000000E+00 0. -1.
         -5    1    3    3    0  503 -0.23750439016E+02 -0.49654146190E+02 -0.14442865634E+03  0.15463293426E+03  0.47000000000E+01 0.  1.
         11    1    4    4    0    0  0.68066479569E+02  0.51008675393E+02 -0.12217013924E+03  0.14886394301E+03  0.00000000000E+00 0. -1.
        -12    1    4    4    0    0 -0.20662101576E+02  0.94563433750E+01 -0.14498222187E+02  0.26954467499E+02  0.00000000000E+00 0.  1.
</event>
<event>
12    1  0.8356052E-002  0.1848828E+03  0.7818608E-02  0.1164160E+00
         21   -1    0    0  501  502  0.00000000000E+00  0.00000000000E+00  0.78685436908E+03  0.78685436908E+03  0.00000000000E+00 0.  1.
         21   -1    0    0  502  503 -0.00000000000E+00 -0.00000000000E+00 -0.11334135698E+03  0.11334135698E+03  0.00000000000E+00 0.  1.
         -6    2    1    2    0  503  0.18717135342E+02  0.64208396247E+02 -0.17735132280E+02  0.18573151479E+03  0.17236186169E+03 0.  0.
        -24    2    3    3    0    0 -0.35236867780E+02  0.34547198205E+02 -0.59667610883E+02  0.11109074923E+03  0.79660435732E+02 0.  0.
          6    2    1    2  501    0 -0.18717135342E+02 -0.64208396247E+02  0.69124814438E+03  0.71446421126E+03  0.16781556172E+03 0.  0.
         24    2    5    5    0    0 -0.40815665890E+02 -0.16220690304E+02  0.19183676505E+03  0.21224415912E+03  0.79480873650E+02 0.  0.
          5    1    5    5  501    0  0.22098530548E+02 -0.47987705944E+02  0.49941137933E+03  0.50222005214E+03  0.47000000000E+01 0. -1.
        -11    1    6    6    0    0  0.18878302942E+01 -0.23793558282E+02  0.11003014572E+02  0.26282382857E+02  0.00000000000E+00 0.  1.
         12    1    6    6    0    0 -0.42703496184E+02  0.75728679787E+01  0.18083375048E+03  0.18596177626E+03  0.00000000000E+00 0. -1.
         -5    1    3    3    0  503  0.53954003122E+02  0.29661198043E+02  0.41932478604E+02  0.74640765565E+02  0.47000000000E+01 0.  1.
         11    1    4    4    0    0 -0.14491929648E+02 -0.20773627886E+02  0.23463946325E+01  0.25437476451E+02  0.00000000000E+00 0. -1.
        -12    1    4    4    0    0 -0.20744938133E+02  0.55320826090E+02 -0.62014005516E+02  0.85653272778E+02  0.00000000000E+00 0.  1.
</event>
<event>
12    1  0.8356052E-002  0.2692515E+03  0.7818608E-02  0.1101752E+00
         21   -1    0    0  501  502  0.00000000000E+00  0.00000000000E+00  0.29036142383E+03  0.29036142383E+03  0.00000000000E+00 0. -1.
         21   -1    0    0  502  503 -0.00000000000E+00 -0.00000000000E+00 -0.30550595293E+03  0.30550595293E+03  0.00000000000E+00 0. -1.
         -6    2    1    2    0  503 -0.20396491064E+03  0.71720715752E+01 -0.13525422269E+03  0.30131387147E+03  0.17562238183E+03 0.  0.
        -24    2    3    3    0    0 -0.76398755563E+02 -0.50990101105E+02 -0.23984513846E+02  0.12226359820E+03  0.77047844078E+02 0.  0.
          6    2    1    2  501    0  0.20396491064E+03 -0.71720715752E+01  0.12010969359E+03  0.29455350529E+03  0.17516365378E+03 0.  0.
         24    2    5    5    0    0  0.89116921071E+02 -0.70799861047E+02  0.58309572094E+02  0.14936431383E+03  0.77170241045E+02 0.  0.
          5    1    5    5  501    0  0.11484798957E+03  0.63627789472E+02  0.61800121496E+02  0.14518919146E+03  0.47000000000E+01 0. -1.
        -13    1    6    6    0    0  0.64629796744E+02 -0.81983298106E+02  0.26525502965E+02  0.10771199610E+03  0.00000000000E+00 0.  1.
         14    1    6    6    0    0  0.24487124327E+02  0.11183437059E+02  0.31784069129E+02  0.41652317735E+02  0.00000000000E+00 0. -1.
         -5    1    3    3    0  503 -0.12756615508E+03  0.58162172680E+02 -0.11126970885E+03  0.17905027327E+03  0.47000000000E+01 0.  1.
         13    1    4    4    0    0 -0.58510607051E+02 -0.64593836269E+02 -0.38742996480E+02  0.95377537175E+02  0.00000000000E+00 0. -1.
        -14    1    4    4    0    0 -0.17888148513E+02  0.13603735163E+02  0.14758482633E+02  0.26886061021E+02  0.00000000000E+00 0.  1.
</event>
<event>
12    1  0.8356052E-002  0.2608793E+03  0.7818608E-02  0.1106693E+00
         21   -1    0    0  501  502  0.00000000000E+00  0.00000000000E+00  0.90035494520E+02  0.90035494520E+02  0.00000000000E+00 0. -1.
         21   -1    0    0  502  503 -0.00000000000E+00 -0.00000000000E+00 -0.12075231124E+04  0.12075231124E+04  0.00000000000E+00 0.  1.
         -6    2    1    2    0  503  0.83051977818E+02 -0.17724363936E+03 -0.95651002502E+03  0.99144815200E+03  0.17246759530E+03 0.  0.
        -24    2    3    3    0    0 -0.22420841700E+02 -0.76402332041E+02 -0.34597978923E+03  0.36370398140E+03  0.78984562043E+02 0.  0.
          6    2    1    2  501    0 -0.83051977818E+02  0.17724363936E+03 -0.16097759284E+03  0.30611045490E+03  0.17168834116E+03 0.  0.
         24    2    5    5    0    0  0.19011654169E+02  0.11775540335E+03 -0.89013173035E+02  0.16770235212E+03  0.77284900984E+02 0.  0.
          5    1    5    5  501    0 -0.10206363199E+03  0.59488236002E+02 -0.71964419808E+02  0.13840810278E+03  0.47000000000E+01 0. -1.
        -13    1    6    6    0    0  0.37609766409E+02  0.24040475302E+02 -0.15860699301E+02  0.47370885198E+02  0.00000000000E+00 0.  1.
         14    1    6    6    0    0 -0.18598112240E+02  0.93714928052E+02 -0.73152473734E+02  0.12033146692E+03  0.00000000000E+00 0. -1.
         -5    1    3    3    0  503  0.10547281952E+03 -0.10084130732E+03 -0.61053023579E+03  0.62774417061E+03  0.47000000000E+01 0.  1.
         11    1    4    4    0    0 -0.41129730213E+01 -0.21680426416E+02 -0.12689576023E+02  0.25455505815E+02  0.00000000000E+00 0. -1.
        -12    1    4    4    0    0 -0.18307868679E+02 -0.54721905625E+02 -0.33329021321E+03  0.33824847558E+03  0.00000000000E+00 0.  1.
</event>
<event>
12    1  0.8356052E-002  0.1839932E+03  0.7818608E-02  0.1164026E+00
         21   -1    0    0  501  502  0.00000000000E+00  0.00000000000E+00  0.16024407203E+03  0.16024407203E+03  0.00000000000E+00 0. -1.
         21   -1    0    0  502  503 -0.00000000000E+00 -0.00000000000E+00 -0.21453534142E+03  0.21453534142E+03  0.00000000000E+00 0. -1.
         -6    2    1    2    0  503 -0.63548797455E+02  0.68414017254E+01 -0.50840290784E+02  0.19075388318E+03  0.17238635197E+03 0.  0.
        -24    2    3    3    0    0 -0.94809232294E+02  0.34580404511E+02 -0.87248784582E+01  0.13123527250E+03  0.83438470376E+02 0.  0.
          6    2    1    2  501    0  0.63548797455E+02 -0.68414017254E+01 -0.34509786109E+01  0.18402553027E+03  0.17253472724E+03 0.  0.
         24    2    5    5    0    0  0.10117684920E+03  0.22926681541E+02 -0.24626988621E+02  0.13137078254E+03  0.76742468006E+02 0.  0.
          5    1    5    5  501    0 -0.37628051742E+02 -0.29768083267E+02  0.21176010010E+02  0.52654747736E+02  0.47000000000E+01 0. -1.
        -13    1    6    6    0    0  0.54916919884E+02  0.22033558646E+02 -0.50996698369E+02  0.78115357266E+02  0.00000000000E+00 0.  1.
         14    1    6    6    0    0  0.46259929312E+02  0.89312289479E+00  0.26369709749E+02  0.53255425270E+02  0.00000000000E+00 0. -1.
         -5    1    3    3    0  503  0.31260434839E+02 -0.27739002786E+02 -0.42115412326E+02  0.59518610680E+02  0.47000000000E+01 0.  1.
         11    1    4    4    0    0 -0.64983395073E+02 -0.19910295997E+02 -0.12058190287E+02  0.69026527327E+02  0.00000000000E+00 0. -1.
        -12    1    4    4    0    0 -0.29825837221E+02  0.54490700508E+02  0.33333118289E+01  0.62208745169E+02  0.00000000000E+00 0.  1.
</event>
<event>
12    1  0.8356052E-002  0.1847169E+03  0.7818608E-02  0.1165396E+00
         21   -1    0    0  501  502  0.00000000000E+00  0.00000000000E+00  0.27067287974E+03  0.27067287974E+03  0.00000000000E+00 0.  1.
         21   -1    0    0  502  503 -0.00000000000E+00 -0.00000000000E+00 -0.28365358693E+03  0.28365358693E+03  0.00000000000E+00 0.  1.
         -6    2    1    2    0  503  0.32578535254E+02  0.18179137836E+02 -0.21692197631E+03  0.28491307624E+03  0.18091013017E+03 0.  0.
        -24    2    3    3    0    0  0.84329885917E+01 -0.32948922174E+02 -0.34462545170E+01  0.64026092158E+02  0.54136097364E+02 0.  0.
          6    2    1    2  501    0 -0.32578535254E+02 -0.18179137836E+02  0.20394126912E+03  0.26941339044E+03  0.17204560932E+03 0.  0.
         24    2    5    5    0    0 -0.76647328631E+02 -0.45479343797E+02  0.16850701497E+03  0.20644485733E+03  0.79257058506E+02 0.  0.
          5    1    5    5  501    0  0.44068793377E+02  0.27300205962E+02  0.35434254141E+02  0.62968533109E+02  0.47000000000E+01 0. -1.
        -13    1    6    6    0    0 -0.83501882108E+02 -0.25784864488E+02  0.16288278688E+03  0.18484649257E+03  0.00000000000E+00 0.  1.
         14    1    6    6    0    0  0.68545534767E+01 -0.19694479309E+02  0.56242280904E+01  0.21598364758E+02  0.00000000000E+00 0. -1.
         -5    1    3    3    0  503  0.24145546662E+02  0.51128060010E+02 -0.21347572179E+03  0.22088698408E+03  0.47000000000E+01 0.  1.
         13    1    4    4    0    0  0.22932716312E+02 -0.32887085468E+02  0.12955045524E+02  0.42134345522E+02  0.00000000000E+00 0. -1.
        -14    1    4    4    0    0 -0.14499727720E+02 -0.61836706369E-01 -0.16401300041E+02  0.21891746636E+02  0.00000000000E+00 0.  1.
</event>
<event>
12    1  0.8356052E-002  0.1957612E+03  0.7818608E-02  0.1153452E+00
         21   -1    0    0  503  502  0.00000000000E+00  0.00000000000E+00  0.23217959563E+03  0.23217959563E+03  0.00000000000E+00 0.  1.
         21   -1    0    0  501  503 -0.00000000000E+00 -0.00000000000E+00 -0.19751739879E+03  0.19751739879E+03  0.00000000000E+00 0. -1.
          6    2    1    2  501    0 -0.45166748466E+02 -0.80039023656E+02 -0.70203457088E+02  0.20796863827E+03  0.17284718291E+03 0.  0.
         24    2    3    3    0    0 -0.52130799677E+02 -0.92805992056E+02  0.27252872324E+01  0.13345565121E+03  0.80451297156E+02 0.  0.
         -6    2    1    2    0  502  0.45166748466E+02  0.80039023656E+02  0.10486565393E+03  0.22172835615E+03  0.17239599204E+03 0.  0.
        -24    2    5    5    0    0  0.20999253069E+02  0.12260842024E+03  0.81989147756E+02  0.16749141400E+03  0.76533391877E+02 0.  0.
          5    1    3    3  501    0  0.69640512109E+01  0.12766968400E+02 -0.72928744320E+02  0.74512987053E+02  0.47000000000E+01 0. -1.
        -11    1    4    4    0    0 -0.26788419423E+02  0.40284099572E+01 -0.16232270665E+02  0.31580597096E+02  0.00000000000E+00 0.  1.
         12    1    4    4    0    0 -0.25342380253E+02 -0.96834402013E+02  0.18957557897E+02  0.10187505412E+03  0.00000000000E+00 0. -1.
         -5    1    5    5    0  502  0.24167495397E+02 -0.42569396579E+02  0.22876506171E+02  0.54236942147E+02  0.47000000000E+01 0.  1.
         11    1    6    6    0    0  0.43553075598E+02  0.69693314872E+02  0.23545434324E+02  0.85489274236E+02  0.00000000000E+00 0. -1.
        -12    1    6    6    0    0 -0.22553822529E+02  0.52915105363E+02  0.58443713432E+02  0.82002139764E+02  0.00000000000E+00 0.  1.
</event>
<event>
12    1  0.8356052E-002  0.2361384E+03  0.7818608E-02  0.1122554E+00
         21   -1    0    0  503  502  0.00000000000E+00  0.00000000000E+00  0.16204203349E+03  0.16204203349E+03  0.00000000000E+00 0. -1.
         21   -1    0    0  501  503 -0.00000000000E+00 -0.00000000000E+00 -0.51928850824E+03  0.51928850824E+03  0.00000000000E+00 0. -1.
          6    2    1    2  501    0 -0.13047632354E+03  0.92580016501E+02 -0.37702311541E+03  0.44436543632E+03  0.17239223006E+03 0.  0.
         24    2    3    3    0    0 -0.36225386678E+02  0.47548734796E+02 -0.79436539678E+02  0.12894363066E+03  0.82116595344E+02 0.  0.
         -6    2    1    2    0  502  0.13047632354E+03 -0.92580016501E+02  0.19776640656E+02  0.23696510541E+03  0.17368423995E+03 0.  0.
        -24    2    5    5    0    0 -0.22312265404E+01 -0.18566916688E+02  0.84349676967E+01  0.84518536616E+02  0.81991009169E+02 0.  0.
          5    1    3    3  501    0 -0.94250936857E+02  0.45031281705E+02 -0.29758657574E+03  0.31542180566E+03  0.47000000000E+01 0. -1.
        -13    1    4    4    0    0 -0.28474937068E+02 -0.10493951707E+02 -0.60011032366E+02  0.67247818322E+02  0.00000000000E+00 0.  1.
         14    1    4    4    0    0 -0.77504496095E+01  0.58042686502E+02 -0.19425507312E+02  0.61695812337E+02  0.00000000000E+00 0. -1.
         -5    1    5    5    0  502  0.13270755008E+03 -0.74013099813E+02  0.11341672959E+02  0.15244656879E+03  0.47000000000E+01 0.  1.
         11    1    6    6    0    0 -0.14856522118E+01 -0.99216387249E+01  0.45427409803E+02  0.46521990917E+02  0.00000000000E+00 0. -1.
        -12    1    6    6    0    0 -0.74557432862E+00 -0.86452779628E+01 -0.36992442106E+02  0.37996545700E+02  0.00000000000E+00 0.  1.
</event>
<event>
12    1  0.8356052E-002  0.2715179E+03  0.7818608E-02  0.1100450E+00
         21   -1    0    0  503  502  0.00000000000E+00  0.00000000000E+00  0.21042824131E+04  0.21042824131E+04  0.00000000000E+00 0. -1.
         21   -1    0    0  501  503 -0.00000000000E+00 -0.00000000000E+00 -0.37225201471E+02  0.37225201471E+02  0.00000000000E+00 0.  1.
          6    2    1    2  501    0  0.20316867839E+03  0.51490822022E+02  0.12956979162E+04  0.13238410248E+04  0.17260692957E+03 0.  0.
         24    2    3    3    0    0  0.21704792462E+03  0.16724840046E+02  0.10372782953E+04  0.10626818828E+04  0.77181605254E+02 0.  0.
         -6    2    1    2    0  502 -0.20316867839E+03 -0.51490822022E+02  0.77135929542E+03  0.81766658981E+03  0.17220532173E+03 0.  0.
        -24    2    5    5    0    0 -0.17790418579E+03 -0.90688158765E+02  0.69991404812E+03  0.73221930106E+03  0.79944909913E+02 0.  0.
          5    1    3    3  501    0 -0.13879246234E+02  0.34765981976E+02  0.25841962088E+03  0.26115914197E+03  0.47000000000E+01 0. -1.
        -13    1    4    4    0    0  0.19777334297E+03  0.56194854173E+01  0.78977085448E+03  0.81417680905E+03  0.00000000000E+00 0.  1.
         14    1    4    4    0    0  0.19274581656E+02  0.11105354629E+02  0.24750744087E+03  0.24850507376E+03  0.00000000000E+00 0. -1.
         -5    1    5    5    0  502 -0.25264492596E+02  0.39197336742E+02  0.71445247299E+02  0.85447288754E+02  0.47000000000E+01 0.  1.
         11    1    6    6    0    0 -0.12039006425E+03 -0.45388558517E+02  0.55673221532E+03  0.57140585261E+03  0.00000000000E+00 0. -1.
        -12    1    6    6    0    0 -0.57514121539E+02 -0.45299600248E+02  0.14318183280E+03  0.16081344845E+03  0.00000000000E+00 0.  1.
</event>
<event>
12    1  0.8356052E-002  0.2017723E+03  0.7818608E-02  0.1148542E+00
         21   -1    0    0  501  502  0.00000000000E+00  0.00000000000E+00  0.73408424205E+02  0.73408424205E+02  0.00000000000E+00 0.  1.
         21   -1    0    0  502  503 -0.00000000000E+00 -0.00000000000E+00 -0.55119237573E+03  0.55119237573E+03  0.00000000000E+00 0. -1.
         -6    2    1    2    0  503  0.99530003627E+02 -0.23459165460E+02 -0.23140142932E+03  0.30701579556E+03  0.17394114858E+03 0.  0.
        -24    2    3    3    0    0  0.12576806695E+02 -0.26226317412E+01 -0.19284670295E+03  0.20952950668E+03  0.80917915621E+02 0.  0.
          6    2    1    2  501    0 -0.99530003627E+02  0.23459165460E+02 -0.24638252221E+03  0.31758500437E+03  0.17233494621E+03 0.  0.
         24    2    5    5    0    0 -0.88078243374E+02  0.69039287414E+02 -0.11279672004E+03  0.17589538982E+03  0.75444601842E+02 0.  0.
          5    1    5    5  501    0 -0.11451760253E+02 -0.45580121953E+02 -0.13358580217E+03  0.14168961455E+03  0.47000000000E+01 0. -1.
        -11    1    6    6    0    0 -0.81009675871E+02  0.20195340479E+02 -0.55398045382E+02  0.10019662067E+03  0.00000000000E+00 0.  1.
         12    1    6    6    0    0 -0.70685675031E+01  0.48843946935E+02 -0.57398674659E+02  0.75698769153E+02  0.00000000000E+00 0. -1.
         -5    1    3    3    0  503  0.86953196932E+02 -0.20836533719E+02 -0.38554726368E+02  0.97486288879E+02  0.47000000000E+01 0.  1.
         11    1    4    4    0    0  0.36241274133E+02 -0.42182993525E-01 -0.36698594889E+02  0.51577306997E+02  0.00000000000E+00 0. -1.
        -12    1    4    4    0    0 -0.23664467438E+02 -0.25804487477E+01 -0.15614810806E+03  0.15795219969E+03  0.00000000000E+00 0.  1.
</event>
<event>
12    1  0.8356052E-002  0.1764429E+03  0.7818608E-02  0.1172163E+00
         21   -1    0    0  503  502  0.00000000000E+00  0.00000000000E+00  0.17273912615E+04  0.17273912615E+04  0.00000000000E+00 0. -1.
         21   -1    0    0  501  503 -0.00000000000E+00 -0.00000000000E+00 -0.20331329055E+02  0.20331329055E+02  0.00000000000E+00 0. -1.
          6    2    1    2  501    0 -0.60708108642E+01 -0.35570442854E+02  0.11623320801E+04  0.11751315154E+04  0.16916294747E+03 0.  0.
         24    2    3    3    0    0  0.34501917630E+02 -0.50995694229E+02  0.43743715688E+03  0.44892298856E+03  0.79935225571E+02 0.  0.
         -6    2    1    2    0  502  0.60708108642E+01  0.35570442854E+02  0.54472785235E+03  0.57259107521E+03  0.17271362174E+03 0.  0.
        -24    2    5    5    0    0  0.27232914045E+02  0.86785741853E+02  0.33757708938E+03  0.35810478180E+03  0.77507076289E+02 0.  0.
          5    1    3    3  501    0 -0.40572728494E+02  0.15425251375E+02  0.72489492323E+03  0.72620852680E+03  0.47000000000E+01 0. -1.
        -11    1    4    4    0    0  0.55050492131E+02 -0.45842693597E+02  0.24313652397E+03  0.25347086327E+03  0.00000000000E+00 0.  1.
         12    1    4    4    0    0 -0.20548574501E+02 -0.51530006329E+01  0.19430063291E+03  0.19545212528E+03  0.00000000000E+00 0. -1.
         -5    1    5    5    0  502 -0.21162103181E+02 -0.51215298999E+02  0.20715076297E+03  0.21448629341E+03  0.47000000000E+01 0.  1.
         13    1    6    6    0    0 -0.10367669811E+02  0.20335025058E+02  0.16734836226E+02  0.28302942690E+02  0.00000000000E+00 0. -1.
        -14    1    6    6    0    0  0.37600583855E+02  0.66450716795E+02  0.32084225316E+03  0.32980183911E+03  0.00000000000E+00 0.  1.
</event>
<event>
12    1  0.8356052E-002  0.1792053E+03  0.7818608E-02  0.1169095E+00
         21   -1    0    0  501  502  0.00000000000E+00  0.00000000000E+00  0.86163137051E+03  0.86163137051E+03  0.00000000000E+00 0.  1.
         21   -1    0    0  502  503 -0.00000000000E+00 -0.00000000000E+00 -0.59645614590E+02  0.59645614590E+02  0.00000000000E+00 0.  1.
         -6    2    1    2    0  503  0.36897753084E+02  0.27594638373E+02  0.11758342743E+03  0.21433712166E+03  0.17318092003E+03 0.  0.
        -24    2    3    3    0    0  0.86048571624E+02  0.39527852700E+01  0.49242802275E+02  0.12677416586E+03  0.78910419865E+02 0.  0.
          6    2    1    2  501    0 -0.36897753084E+02 -0.27594638373E+02  0.68440232849E+03  0.70693986344E+03  0.17098103706E+03 0.  0.
         24    2    5    5    0    0  0.13244305540E+02  0.41366761991E+02  0.30395958847E+03  0.31703132389E+03  0.78935469071E+02 0.  0.
          5    1    5    5  501    0 -0.50142058624E+02 -0.68961400364E+02  0.38044274001E+03  0.38990853955E+03  0.47000000000E+01 0. -1.
        -11    1    6    6    0    0 -0.11523892893E+02 -0.96835830106E+01  0.11040697885E+02  0.18667321638E+02  0.00000000000E+00 0.  1.
         12    1    6    6    0    0  0.24768198433E+02  0.51050345001E+02  0.29291889059E+03  0.29836400225E+03  0.00000000000E+00 0. -1.
         -5    1    3    3    0  503 -0.49150818540E+02  0.23641853103E+02  0.68340625154E+02  0.87562955797E+02  0.47000000000E+01 0.  1.
         11    1    4    4    0    0 -0.10598328829E+02  0.11224532165E+02  0.20537604387E+02  0.25692564882E+02  0.00000000000E+00 0. -1.
        -12    1    4    4    0    0  0.96646900453E+02 -0.72717468952E+01  0.28705197889E+02  0.10108160098E+03  0.00000000000E+00 0.  1.
</event>
<event>
12    1  0.8356052E-002  0.2123943E+03  0.7818608E-02  0.1139945E+00
         21   -1    0    0  501  502  0.00000000000E+00  0.00000000000E+00  0.98060625952E+03  0.98060625952E+03  0.00000000000E+00 0.  1.
         21   -1    0    0  502  503 -0.00000000000E+00 -0.00000000000E+00 -0.13265976716E+03  0.13265976716E+03  0.00000000000E+00 0.  1.
         -6    2    1    2    0  503  0.12021973956E+03 -0.16975796451E+02 -0.27115671231E+02  0.21279662526E+03  0.17264466586E+03 0.  0.
        -24    2    3    3    0    0  0.83775275072E+02 -0.71286317359E+02 -0.40328374003E+02  0.14590494276E+03  0.86958834029E+02 0.  0.
          6    2    1    2  501    0 -0.12021973956E+03  0.16975796451E+02  0.87506216359E+03  0.90046940143E+03  0.17427102259E+03 0.  0.
         24    2    5    5    0    0 -0.14436433240E+03 -0.16894610874E+02  0.76713659513E+03  0.78471023685E+03  0.78390764018E+02 0.  0.
          5    1    5    5  501    0  0.24144592844E+02  0.33870407325E+02  0.10792556846E+03  0.11575916457E+03  0.47000000000E+01 0. -1.
        -13    1    6    6    0    0 -0.16706782854E+02 -0.30916817052E+02  0.21355714061E+03  0.21642924589E+03  0.00000000000E+00 0.  1.
         14    1    6    6    0    0 -0.12765754955E+03  0.14022206178E+02  0.55357945452E+03  0.56828099096E+03  0.00000000000E+00 0. -1.
         -5    1    3    3    0  503  0.36444464487E+02  0.54310520908E+02  0.13212702772E+02  0.66891682500E+02  0.47000000000E+01 0.  1.
         13    1    4    4    0    0 -0.45959459393E+01 -0.22704016250E+02  0.18063214810E+02  0.29374730676E+02  0.00000000000E+00 0. -1.
        -14    1    4    4    0    0  0.88371221011E+02 -0.48582301109E+02 -0.58391588813E+02  0.11653021208E+03  0.00000000000E+00 0.  1.
</event>
<event>
12    1  0.8356052E-002  0.2435082E+03  0.7818608E-02  0.1118214E+00
         21   -1    0    0  501  502  0.00000000000E+00  0.00000000000E+00  0.44353298317E+03  0.44353298317E+03  0.00000000000E+00 0.  1.
         21   -1    0    0  502  503 -0.00000000000E+00 -0.00000000000E+00 -0.17779919633E+03  0.17779919633E+03  0.00000000000E+00 0.  1.
         -6    2    1    2    0  503 -0.14421480730E+03 -0.93207213514E+02 -0.26992173471E+02  0.24056358707E+03  0.16630323719E+03 0.  0.
        -24    2    3    3    0    0 -0.21811541750E+02 -0.25356042647E+01  0.75877425924E+01  0.84288954656E+02  0.81023955698E+02 0.  0.
          6    2    1    2  501    0  0.14421480730E+03  0.93207213514E+02  0.29272596031E+03  0.38076859243E+03  0.17265786355E+03 0.  0.
         24    2    5    5    0    0  0.94598037442E+02  0.12848996505E+03  0.18796802744E+03  0.25951261977E+03  0.80971357123E+02 0.  0.
          5    1    5    5  501    0  0.49616769863E+02 -0.35282751532E+02  0.10475793287E+03  0.12125597266E+03  0.47000000000E+01 0. -1.
        -11    1    6    6    0    0  0.96767442671E+02  0.69781419164E+02  0.13769301275E+03  0.18218877622E+03  0.00000000000E+00 0.  1.
         12    1    6    6    0    0 -0.21694052290E+01  0.58708545882E+02  0.50275014691E+02  0.77323843546E+02  0.00000000000E+00 0. -1.
         -5    1    3    3    0  503 -0.12240326555E+03 -0.90671609249E+02 -0.34579916063E+02  0.15627463242E+03  0.47000000000E+01 0.  1.
         11    1    4    4    0    0 -0.24427468970E+02 -0.98165109219E+01  0.41697540407E+02  0.49312777279E+02  0.00000000000E+00 0. -1.
        -12    1    4    4    0    0  0.26159272200E+01  0.72809066572E+01 -0.34109797815E+02  0.34976177377E+02  0.00000000000E+00 0.  1.
</event>
<event>
12    1  0.8356052E-002  0.2294995E+03  0.7818608E-02  0.1128683E+00
         21   -1    0    0  503  502  0.00000000000E+00  0.00000000000E+00  0.15354338516E+03  0.15354338516E+03  0.00000000000E+00 0. -1.
         21   -1    0    0  501  503 -0.00000000000E+00 -0.00000000000E+00 -0.67592566571E+03  0.67592566571E+03  0.00000000000E+00 0. -1.
          6    2    1    2  501    0  0.11039721637E+03  0.81308926782E+02 -0.56086088217E+03  0.60599913284E+03  0.18404166077E+03 0.  0.
         24    2    3    3    0    0  0.77406912840E+02  0.12913124514E+03 -0.37069493984E+03  0.40710089282E+03  0.75164419028E+02 0.  0.
         -6    2    1    2    0  502 -0.11039721637E+03 -0.81308926782E+02  0.38478601616E+02  0.22346991804E+03  0.17221937908E+03 0.  0.
        -24    2    5    5    0    0 -0.14530373226E+03 -0.63832019013E+02  0.45673255744E+02  0.18349792529E+03  0.79985880223E+02 0.  0.
          5    1    3    3  501    0  0.32990303533E+02 -0.47822318357E+02 -0.19016594233E+03  0.19889824002E+03  0.47000000000E+01 0. -1.
        -13    1    4    4    0    0  0.72012683258E+02  0.67870519111E+02 -0.16489170412E+03  0.19230576695E+03  0.00000000000E+00 0.  1.
         14    1    4    4    0    0  0.53942295819E+01  0.61260726028E+02 -0.20580323572E+03  0.21479512587E+03  0.00000000000E+00 0. -1.
         -5    1    5    5    0  502  0.34906515887E+02 -0.17476907769E+02 -0.71946541281E+01  0.39971992752E+02  0.47000000000E+01 0.  1.
         11    1    6    6    0    0 -0.66774342865E+02 -0.20935609467E+02 -0.19677372121E+02  0.72693270544E+02  0.00000000000E+00 0. -1.
        -12    1    6    6    0    0 -0.78529389394E+02 -0.42896409546E+02  0.65350627865E+02  0.11080465474E+03  0.00000000000E+00 0.  1.
</event>
<event>
12    1  0.8356052E-002  0.1813412E+03  0.7818608E-02  0.1167391E+00
         21   -1    0    0  501  502  0.00000000000E+00  0.00000000000E+00  0.43647232310E+03  0.43647232310E+03  0.00000000000E+00 0.  1.
         21   -1    0    0  502  503 -0.00000000000E+00 -0.00000000000E+00 -0.88607690442E+02  0.88607690442E+02  0.00000000000E+00 0.  1.
         -6    2    1    2    0  503 -0.41974778095E+02 -0.30048116373E+02  0.68223262150E+02  0.19374991421E+03  0.17383855863E+03 0.  0.
        -24    2    3    3    0    0 -0.62714630268E+02 -0.96936962514E+01  0.10485252223E+03  0.14675803640E+03  0.80726558403E+02 0.  0.
          6    2    1    2  501    0  0.41974778095E+02  0.30048116373E+02  0.27964137051E+03  0.33133009933E+03  0.17004578010E+03 0.  0.
         24    2    5    5    0    0  0.84511530612E+02 -0.14325755486E+01  0.22475053630E+03  0.25493963553E+03  0.85657242086E+02 0.  0.
          5    1    5    5  501    0 -0.42536752517E+02  0.31480691921E+02  0.54890834213E+02  0.76390463797E+02  0.47000000000E+01 0. -1.
        -11    1    6    6    0    0  0.63177252150E+02 -0.27693584567E+02  0.20376721844E+03  0.21512642591E+03  0.00000000000E+00 0.  1.
         12    1    6    6    0    0  0.21334278463E+02  0.26261009018E+02  0.20983317859E+02  0.39813209624E+02  0.00000000000E+00 0. -1.
         -5    1    3    3    0  503  0.20739852172E+02 -0.20354420121E+02 -0.36629260082E+02  0.46991877817E+02  0.47000000000E+01 0.  1.
         11    1    4    4    0    0  0.17305697450E+02  0.79146503146E+01  0.31414458149E+02  0.36728694976E+02  0.00000000000E+00 0. -1.
        -12    1    4    4    0    0 -0.80020327718E+02 -0.17608346566E+02  0.73438064083E+02  0.11002934142E+03  0.00000000000E+00 0.  1.
</event>
<event>
12    1  0.8356052E-002  0.1716689E+03  0.7818608E-02  0.1176237E+00
         21   -1    0    0  503  502  0.00000000000E+00  0.00000000000E+00  0.35263448786E+02  0.35263448786E+02  0.00000000000E+00 0. -1.
         21   -1    0    0  501  503 -0.00000000000E+00 -0.00000000000E+00 -0.87356715368E+03  0.87356715368E+03  0.00000000000E+00 0. -1.
          6    2    1    2  501    0 -0.78282669894E+01  0.20125388561E+02 -0.32126730775E+03  0.36403996460E+03  0.16984139592E+03 0.  0.
         24    2    3    3    0    0 -0.57877062097E+02  0.49174824778E+02 -0.17597257305E+03  0.20757462796E+03  0.79705470334E+02 0.  0.
         -6    2    1    2    0  502  0.78282669894E+01 -0.20125388561E+02 -0.51703639714E+03  0.54479063786E+03  0.17030528501E+03 0.  0.
        -24    2    5    5    0    0 -0.16713428186E+02 -0.22096329450E+01 -0.50384733237E+03  0.51133453930E+03  0.85537451360E+02 0.  0.
          5    1    3    3  501    0  0.50048795107E+02 -0.29049436217E+02 -0.14529473470E+03  0.15646533664E+03  0.47000000000E+01 0. -1.
        -11    1    4    4    0    0 -0.22400531565E+02  0.49761455913E+02 -0.15926809842E+03  0.16835769505E+03  0.00000000000E+00 0.  1.
         12    1    4    4    0    0 -0.35476530532E+02 -0.58663113483E+00 -0.16704474629E+02  0.39216932915E+02  0.00000000000E+00 0. -1.
         -5    1    5    5    0  502  0.24541695175E+02 -0.17915755616E+02 -0.13189064771E+02  0.33456098561E+02  0.47000000000E+01 0.  1.
         13    1    6    6    0    0 -0.27885572469E+02  0.36914938181E+02 -0.24942974579E+03  0.25368388970E+03  0.00000000000E+00 0. -1.
        -14    1    6    6    0    0  0.11172144283E+02 -0.39124571126E+02 -0.25441758659E+03  0.25765064960E+03  0.00000000000E+00 0.  1.
</event>
<event>
12    1  0.8356052E-002  0.2601706E+03  0.7818608E-02  0.1107549E+00
         21   -1    0    0  501  502  0.00000000000E+00  0.00000000000E+00  0.81628776755E+03  0.81628776755E+03  0.00000000000E+00 0. -1.
         21   -1    0    0  502  503 -0.00000000000E+00 -0.00000000000E+00 -0.81855315559E+02  0.81855315559E+02  0.00000000000E+00 0.  1.
         -6    2    1    2    0  503 -0.18736282673E+03 -0.47877101178E+02  0.37028549889E+03  0.45254842347E+03  0.17404504947E+03 0.  0.
        -24    2    3    3    0    0 -0.15721112439E+03 -0.79441926664E+02  0.35825683828E+03  0.40702653821E+03  0.79349122795E+02 0.  0.
          6    2    1    2  501    0  0.18736282673E+03  0.47877101178E+02  0.36414695310E+03  0.44559465963E+03  0.16898092076E+03 0.  0.
         24    2    5    5    0    0  0.20372342813E+03  0.66194112670E+02  0.34606150048E+03  0.41473439741E+03  0.79756896611E+02 0.  0.
          5    1    5    5  501    0 -0.16360601398E+02 -0.18317011492E+02  0.18085452620E+02  0.30860262224E+02  0.47000000000E+01 0. -1.
        -13    1    6    6    0    0  0.90771124200E+02  0.54821128388E+02  0.22520444433E+03  0.24892126235E+03  0.00000000000E+00 0.  1.
         14    1    6    6    0    0  0.11295230393E+03  0.11372984282E+02  0.12085705615E+03  0.16581313505E+03  0.00000000000E+00 0. -1.
         -5    1    3    3    0  503 -0.30151702338E+02  0.31564825486E+02  0.12028660608E+02  0.45521885263E+02  0.47000000000E+01 0.  1.
         11    1    4    4    0    0 -0.89796665588E+02 -0.15472779679E+02  0.11568289466E+03  0.14725956736E+03  0.00000000000E+00 0. -1.
        -12    1    4    4    0    0 -0.67414458805E+02 -0.63969146985E+02  0.24257394362E+03  0.25976697086E+03  0.00000000000E+00 0.  1.
</event>
<event>
12    1  0.8356052E-002  0.1861114E+03  0.7818608E-02  0.1162295E+00
         21   -1    0    0  503  502  0.00000000000E+00  0.00000000000E+00  0.88418759218E+03  0.88418759218E+03  0.00000000000E+00 0.  1.
         21   -1    0    0  501  503 -0.00000000000E+00 -0.00000000000E+00 -0.68390399284E+02  0.68390399284E+02  0.00000000000E+00 0. -1.
          6    2    1    2  501    0  0.68178787247E+02 -0.90714155338E+01  0.96006581443E+02  0.20941517623E+03  0.17293586888E+03 0.  0.
         24    2    3    3    0    0  0.25201400292E+02  0.16636418348E+02  0.12445921015E+03  0.15162598526E+03  0.81169350263E+02 0.  0.
         -6    2    1    2    0  502 -0.68178787247E+02  0.90714155338E+01  0.71979061145E+03  0.74316281524E+03  0.17164442317E+03 0.  0.
        -24    2    5    5    0    0 -0.68211740745E+02 -0.46487487081E+02  0.31009986616E+03  0.32969529593E+03  0.75651392145E+02 0.  0.
          5    1    3    3  501    0  0.42977386954E+02 -0.25707833881E+02 -0.28452628709E+02  0.57789190968E+02  0.47000000000E+01 0. -1.
        -11    1    4    4    0    0  0.26713218148E+02  0.41374770462E+02  0.39521119311E+02  0.63145756201E+02  0.00000000000E+00 0.  1.
         12    1    4    4    0    0 -0.15118178552E+01 -0.24738352115E+02  0.84938090841E+02  0.88480229059E+02  0.00000000000E+00 0. -1.
         -5    1    5    5    0  502  0.32953497751E-01  0.55558902615E+02  0.40969074529E+03  0.41346751931E+03  0.47000000000E+01 0.  1.
         13    1    6    6    0    0  0.93256817440E+00 -0.17822363604E+02  0.10116358930E+02  0.20514556925E+02  0.00000000000E+00 0. -1.
        -14    1    6    6    0    0 -0.69144308919E+02 -0.28665123477E+02  0.29998350723E+03  0.30918073900E+03  0.00000000000E+00 0.  1.
</event>
<event>
12    1  0.8356052E-002  0.2103074E+03  0.7818608E-02  0.1141926E+00
         21   -1    0    0  501  502  0.00000000000E+00  0.00000000000E+00  0.23989936324E+03  0.23989936324E+03  0.00000000000E+00 0.  1.
         21   -1    0    0  502  503 -0.00000000000E+00 -0.00000000000E+00 -0.25530917999E+03  0.25530917999E+03  0.00000000000E+00 0. -1.
         -6    2    1    2    0  503 -0.12216140031E+03 -0.13598007490E+02 -0.14067635127E+03  0.25301983414E+03  0.17064843136E+03 0.  0.
        -24    2    3    3    0    0 -0.12263708540E+02 -0.35284445033E+02 -0.24188334193E+02  0.91343143322E+02  0.79769064884E+02 0.  0.
          6    2    1    2  501    0  0.12216140031E+03  0.13598007490E+02  0.12526653452E+03  0.24218870909E+03  0.16689922889E+03 0.  0.
         24    2    5    5    0    0  0.11093440505E+03  0.15173188719E+02  0.15670288009E+03  0.20844170269E+03  0.79721282684E+02 0.  0.
          5    1    5    5  501    0  0.11226995263E+02 -0.15751812286E+01 -0.31436345565E+02  0.33747006400E+02  0.47000000000E+01 0. -1.
        -13    1    6    6    0    0  0.75740237202E+02 -0.93443865341E+01  0.44549108477E+02  0.88365854023E+02  0.00000000000E+00 0.  1.
         14    1    6    6    0    0  0.35194167850E+02  0.24517575253E+02  0.11215377161E+03  0.12007584867E+03  0.00000000000E+00 0. -1.
         -5    1    3    3    0  503 -0.10989769177E+03  0.21686437543E+02 -0.11648801708E+03  0.16167669082E+03  0.47000000000E+01 0.  1.
         13    1    4    4    0    0 -0.46218862106E+02 -0.22214849448E+02 -0.18511448500E+02  0.54519322043E+02  0.00000000000E+00 0. -1.
        -14    1    4    4    0    0  0.33955153566E+02 -0.13069595585E+02 -0.56768856927E+01  0.36823821280E+02  0.00000000000E+00 0.  1.
</event>
<event>
12    1  0.8356052E-002  0.2386103E+03  0.7818608E-02  0.1120740E+00
         21   -1    0    0  503  502  0.00000000000E+00  0.00000000000E+00  0.33081191230E+03  0.33081191230E+03  0.00000000000E+00 0. -1.
         21   -1    0    0  501  503 -0.00000000000E+00 -0.00000000000E+00 -0.17261320380E+03  0.17261320380E+03  0.00000000000E+00 0. -1.
          6    2    1    2  501    0  0.70765443962E+02 -0.14825498423E+03  0.93704410946E+02  0.25625230319E+03  0.17290875585E+03 0.  0.
         24    2    3    3    0    0  0.10427922111E+01 -0.47722933208E+02  0.16380753867E+02  0.11144560654E+03  0.99364120035E+02 0.  0.
         -6    2    1    2    0  502 -0.70765443962E+02  0.14825498423E+03  0.64494297558E+02  0.24717281291E+03  0.17305373910E+03 0.  0.
        -24    2    5    5    0    0 -0.13808301992E+02  0.12809478417E+03  0.95587090267E+02  0.17905966112E+03  0.79539471207E+02 0.  0.
          5    1    3    3  501    0  0.69722651751E+02 -0.10053205102E+03  0.77323657079E+02  0.14480669665E+03  0.47000000000E+01 0. -1.
        -11    1    4    4    0    0  0.26289706555E+02  0.14863632353E+02 -0.18562129827E+02  0.35448961920E+02  0.00000000000E+00 0.  1.
         12    1    4    4    0    0 -0.25246914344E+02 -0.62586565561E+02  0.34942883695E+02  0.75996644620E+02  0.00000000000E+00 0. -1.
         -5    1    5    5    0  502 -0.56957141969E+02  0.20160200054E+02 -0.31092792709E+02  0.68113151784E+02  0.47000000000E+01 0.  1.
         13    1    6    6    0    0 -0.43724868904E+02  0.56087679816E+02  0.61257675325E+02  0.93862637796E+02  0.00000000000E+00 0. -1.
        -14    1    6    6    0    0  0.29916566912E+02  0.72007104357E+02  0.34329414942E+02  0.85197023328E+02  0.00000000000E+00 0.  1.
</event>
<event>
12    1  0.8356052E-002  0.3171785E+03  0.7818608E-02  0.1077060E+00
         21   -1    0    0  501  502  0.00000000000E+00  0.00000000000E+00  0.11716762022E+03  0.11716762022E+03  0.00000000000E+00 0.  1.
         21   -1    0    0  502  503 -0.00000000000E+00 -0.00000000000E+00 -0.85893970415E+03  0.85893970415E+03  0.00000000000E+00 0. -1.
         -6    2    1    2    0  503  0.99763889433E+02 -0.24628156010E+03 -0.39905536302E+03  0.50975227302E+03  0.17318994376E+03 0.  0.
        -24    2    3    3    0    0  0.18753706475E+02 -0.56698481024E+02 -0.19810796973E+03  0.22181766503E+03  0.79936784952E+02 0.  0.
          6    2    1    2  501    0 -0.99763889433E+02  0.24628156010E+03 -0.34271672091E+03  0.46635505134E+03  0.17153670931E+03 0.  0.
         24    2    5    5    0    0 -0.11115612575E+03  0.14292729301E+03 -0.28596231810E+03  0.34780109817E+03  0.80045369218E+02 0.  0.
          5    1    5    5  501    0  0.11392236322E+02  0.10335426710E+03 -0.56754402804E+02  0.11855395317E+03  0.47000000000E+01 0. -1.
        -11    1    6    6    0    0 -0.36761597467E+02  0.12397444189E+01 -0.39811121882E+02  0.54202190362E+02  0.00000000000E+00 0.  1.
         12    1    6    6    0    0 -0.74394528287E+02  0.14168754859E+03 -0.24615119622E+03  0.29359890781E+03  0.00000000000E+00 0. -1.
         -5    1    3    3    0  503  0.81010182958E+02 -0.18958307908E+03 -0.20094739328E+03  0.28793460800E+03  0.47000000000E+01 0.  1.
         11    1    4    4    0    0 -0.79130479658E+01 -0.67754100072E+01  0.45769907182E+01  0.11378547926E+02  0.00000000000E+00 0. -1.
        -12    1    4    4    0    0  0.26666754440E+02 -0.49923071017E+02 -0.20268496045E+03  0.21043911710E+03  0.00000000000E+00 0.  1.
</event>
<event>
12    1  0.8356052E-002  0.1745630E+03  0.7818608E-02  0.1173272E+00
         21   -1    0    0  503  502  0.00000000000E+00  0.00000000000E+00  0.14419217131E+04  0.14419217131E+04  0.00000000000E+00 0.  1.
         21   -1    0    0  501  503 -0.00000000000E+00 -0.00000000000E+00 -0.46310039457E+02  0.46310039457E+02  0.00000000000E+00 0.  1.
          6    2    1    2  501    0  0.29179364050E+02 -0.85377268035E+01  0.14825018353E+03  0.22871481646E+03  0.17148767387E+03 0.  0.
         24    2    3    3    0    0  0.32607988247E+02  0.33537415230E+02  0.13129142988E+02  0.87074925765E+02  0.72260841287E+02 0.  0.
         -6    2    1    2    0  502 -0.29179364050E+02  0.85377268035E+01  0.12473614901E+04  0.12595169361E+04  0.17189501800E+03 0.  0.
        -24    2    5    5    0    0  0.32644119688E+02 -0.39928124071E+02  0.62383527696E+03  0.63104409632E+03  0.79914360880E+02 0.  0.
          5    1    3    3  501    0 -0.34286241965E+01 -0.42075142033E+02  0.13512104054E+03  0.14163989070E+03  0.47000000000E+01 0. -1.
        -11    1    4    4    0    0  0.52877373861E+02  0.10429616220E+02  0.64898214871E+00  0.53900043959E+02  0.00000000000E+00 0.  1.
         12    1    4    4    0    0 -0.20269385614E+02  0.23107799010E+02  0.12480160839E+02  0.33174881806E+02  0.00000000000E+00 0. -1.
         -5    1    5    5    0  502 -0.61823483738E+02  0.48465850875E+02  0.62352621312E+03  0.62847283974E+03  0.47000000000E+01 0.  1.
         11    1    6    6    0    0  0.30640451435E+02  0.14556477964E+02  0.13579751854E+03  0.13997033384E+03  0.00000000000E+00 0. -1.
        -12    1    6    6    0    0  0.20036682530E+01 -0.54484602036E+02  0.48803775842E+03  0.49107376247E+03  0.00000000000E+00 0.  1.
</event>
<event>
12    1  0.8356052E-002  0.2096905E+03  0.7818608E-02  0.1142054E+00
         21   -1    0    0  503  502  0.00000000000E+00  0.00000000000E+00  0.73180999491E+02  0.73180999491E+02  0.00000000000E+00 0.  1.
         21   -1    0    0  501  503 -0.00000000000E+00 -0.00000000000E+00 -0.11058184850E+04  0.11058184850E+04  0.00000000000E+00 0. -1.
          6    2    1    2  501    0 -0.84210265653E+02 -0.81404798125E+02 -0.91686441294E+03  0.94053732031E+03  0.17393098971E+03 0.  0.
         24    2    3    3    0    0 -0.10447384780E+03 -0.43720374084E+01 -0.57890519625E+03  0.59328642955E+03  0.76965327676E+02 0.  0.
         -6    2    1    2    0  502  0.84210265653E+02  0.81404798125E+02 -0.11577307255E+03  0.23846216416E+03  0.17246068946E+03 0.  0.
        -24    2    5    5    0    0  0.50028217705E+02  0.12510329619E+03 -0.71314940790E+02  0.16721199494E+03  0.68704972076E+02 0.  0.
          5    1    3    3  501    0  0.20263582144E+02 -0.77032760717E+02 -0.33795921670E+03  0.34725089076E+03  0.47000000000E+01 0. -1.
        -13    1    4    4    0    0 -0.15058704811E+01  0.14666092559E+02 -0.21116636399E+02  0.25754111316E+02  0.00000000000E+00 0.  1.
         14    1    4    4    0    0 -0.10296797732E+03 -0.19038129968E+02 -0.55778855985E+03  0.56753231824E+03  0.00000000000E+00 0. -1.
         -5    1    5    5    0  502  0.34182047948E+02 -0.43698498060E+02 -0.44458131757E+02  0.71250169220E+02  0.47000000000E+01 0.  1.
         11    1    6    6    0    0  0.38658647857E+02  0.74397132993E+02 -0.78374725023E+02  0.11476942962E+03  0.00000000000E+00 0. -1.
        -12    1    6    6    0    0  0.11369569847E+02  0.50706163192E+02  0.70597842331E+01  0.52442565322E+02  0.00000000000E+00 0.  1.
</event>
<event>
12    1  0.8356052E-002  0.1995380E+03  0.7818608E-02  0.1150134E+00
         21   -1    0    0  501  502  0.00000000000E+00  0.00000000000E+00  0.20613849182E+03  0.20613849182E+03  0.00000000000E+00 0.  1.
         21   -1    0    0  502  503 -0.00000000000E+00 -0.00000000000E+00 -0.19939407445E+03  0.19939407445E+03  0.00000000000E+00 0.  1.
         -6    2    1    2    0  503 -0.99106586091E+02  0.18642778857E+02  0.39321385905E+02  0.20337545830E+03  0.17217937461E+03 0.  0.
        -24    2    3    3    0    0 -0.11601866038E+03  0.48638855890E+02  0.62695907191E+02  0.16149179634E+03  0.79515757230E+02 0.  0.
          6    2    1    2  501    0  0.99106586091E+02 -0.18642778857E+02 -0.32576968532E+02  0.20215710797E+03  0.17215274849E+03 0.  0.
         24    2    5    5    0    0  0.10824588169E+03  0.38960594514E+02 -0.98137613147E+01  0.13937232517E+03  0.78059184498E+02 0.  0.
          5    1    5    5  501    0 -0.91392956036E+01 -0.57603373372E+02 -0.22763207218E+02  0.62784782796E+02  0.47000000000E+01 0. -1.
        -13    1    6    6    0    0  0.57386698338E+02  0.50457230779E+02 -0.31821932892E+02  0.82775604480E+02  0.00000000000E+00 0.  1.
         14    1    6    6    0    0  0.50859183357E+02 -0.11496636265E+02  0.22008171577E+02  0.56596720694E+02  0.00000000000E+00 0. -1.
         -5    1    3    3    0  503  0.16912074288E+02 -0.29996077033E+02 -0.23374521285E+02  0.41883661963E+02  0.47000000000E+01 0.  1.
         11    1    4    4    0    0 -0.11093827524E+01 -0.50892968484E+01 -0.12839311604E+02  0.13855670138E+02  0.00000000000E+00 0. -1.
        -12    1    4    4    0    0 -0.11490927763E+03  0.53728152738E+02  0.75535218795E+02  0.14763612620E+03  0.00000000000E+00 0.  1.
</event>
<event>
12    1  0.8356052E-002  0.1920659E+03  0.7818608E-02  0.1157103E+00
         21   -1    0    0  501  502  0.00000000000E+00  0.00000000000E+00  0.25248746425E+04  0.25248746425E+04  0.00000000000E+00 0.  1.
         21   -1    0    0  502  503 -0.00000000000E+00 -0.00000000000E+00 -0.19958004387E+02  0.19958004387E+02  0.00000000000E+00 0.  1.
         -6    2    1    2    0  503  0.76587001083E+02  0.93985470852E+01  0.58884562941E+03  0.61937751340E+03  0.17588469918E+03 0.  0.
        -24    2    3    3    0    0 -0.14206412028E+02  0.41771604489E+02  0.22500763622E+03  0.24295802135E+03  0.80333521607E+02 0.  0.
          6    2    1    2  501    0 -0.76587001083E+02 -0.93985470852E+01  0.19160710087E+04  0.19254551335E+04  0.17348042905E+03 0.  0.
         24    2    5    5    0    0 -0.15250428396E+02  0.24877569994E+02  0.15720018080E+04  0.15742532937E+04  0.78944787854E+02 0.  0.
          5    1    5    5  501    0 -0.61336572687E+02 -0.34276117080E+02  0.34406920072E+03  0.35120183974E+03  0.47000000000E+01 0. -1.
        -11    1    6    6    0    0 -0.43230553293E+02  0.28876184334E+02  0.12248431409E+04  0.12259459346E+04  0.00000000000E+00 0.  1.
         12    1    6    6    0    0  0.27980124897E+02 -0.39986143402E+01  0.34715866707E+03  0.34830735914E+03  0.00000000000E+00 0. -1.
         -5    1    3    3    0  503  0.90793413111E+02 -0.32373057404E+02  0.36383799319E+03  0.37641949206E+03  0.47000000000E+01 0.  1.
         11    1    4    4    0    0  0.28452406611E+02  0.22956288833E+02  0.15198654536E+03  0.15632159355E+03  0.00000000000E+00 0. -1.
        -12    1    4    4    0    0 -0.42658818639E+02  0.18815315656E+02  0.73021090862E+02  0.86636427797E+02  0.00000000000E+00 0.  1.
</event>
<event>
12    1  0.8356052E-002  0.1816359E+03  0.7818608E-02  0.1166783E+00
         21   -1    0    0  501  502  0.00000000000E+00  0.00000000000E+00  0.58785536349E+03  0.58785536349E+03  0.00000000000E+00 0.  1.
         21   -1    0    0  502  503 -0.00000000000E+00 -0.00000000000E+00 -0.56487376942E+03  0.56487376942E+03  0.00000000000E+00 0.  1.
         -6    2    1    2    0  503 -0.57139149628E+02  0.14260573527E+02 -0.53588018173E+03  0.56509142759E+03  0.16938862413E+03 0.  0.
        -24    2    3    3    0    0 -0.10729324258E+02  0.52236946737E+02 -0.18174022011E+03  0.20587940213E+03  0.80703182182E+02 0.  0.
          6    2    1    2  501    0  0.57139149628E+02 -0.14260573527E+02  0.55886177580E+03  0.58763770532E+03  0.17182357780E+03 0.  0.
         24    2    5    5    0    0  0.88146755008E+02 -0.51573510203E+02  0.44796100291E+03  0.46649812359E+03  0.80757425732E+02 0.  0.
          5    1    5    5  501    0 -0.31007605380E+02  0.37312936676E+02  0.11090077289E+03  0.12113958174E+03  0.47000000000E+01 0. -1.
        -11    1    6    6    0    0  0.87171468075E+02 -0.93569082302E+01  0.28720945484E+03  0.30029266979E+03  0.00000000000E+00 0.  1.
         12    1    6    6    0    0  0.97528693209E+00 -0.42216601973E+02  0.16075154807E+03  0.16620545380E+03  0.00000000000E+00 0. -1.
         -5    1    3    3    0  503 -0.46409825369E+02 -0.37976373210E+02 -0.35413996162E+03  0.35921202546E+03  0.47000000000E+01 0.  1.
         11    1    4    4    0    0 -0.12037101618E+02 -0.12898190535E+02 -0.62999539831E+01  0.18733514209E+02  0.00000000000E+00 0. -1.
        -12    1    4    4    0    0  0.13077773592E+01  0.65135137272E+02 -0.17544026612E+03  0.18714588792E+03  0.00000000000E+00 0.  1.
</event>
<event>
12    1  0.8356052E-002  0.2059650E+03  0.7818608E-02  0.1145501E+00
         21   -1    0    0  503  502  0.00000000000E+00  0.00000000000E+00  0.91990914849E+02  0.91990914849E+02  0.00000000000E+00 0.  1.
         21   -1    0    0  501  503 -0.00000000000E+00 -0.00000000000E+00 -0.47058091745E+03  0.47058091745E+03  0.00000000000E+00 0.  1.
          6    2    1    2  501    0 -0.89068689754E+02  0.67331404811E+02 -0.13728996557E+03  0.24752800642E+03  0.17307463634E+03 0.  0.
         24    2    3    3    0    0 -0.52813921193E+02  0.86378152622E+02 -0.15450542371E+03  0.20285532075E+03  0.83832330758E+02 0.  0.
         -6    2    1    2    0  502  0.89068689754E+02 -0.67331404811E+02 -0.24130003704E+03  0.31504382589E+03  0.16899749936E+03 0.  0.
        -24    2    5    5    0    0  0.48460637095E+02  0.15496204892E+02 -0.62095470012E+02  0.11343580593E+03  0.80145299032E+02 0.  0.
          5    1    3    3  501    0 -0.36254768561E+02 -0.19046747811E+02  0.17215458137E+02  0.44672685664E+02  0.47000000000E+01 0. -1.
        -13    1    4    4    0    0 -0.22023135837E+02  0.11907809780E+02  0.37003349442E+01  0.25308238275E+02  0.00000000000E+00 0.  1.
         14    1    4    4    0    0 -0.30790785355E+02  0.74470342842E+02 -0.15820575865E+03  0.17754708248E+03  0.00000000000E+00 0. -1.
         -5    1    5    5    0  502  0.40608052659E+02 -0.82827609703E+02 -0.17920456702E+03  0.20160801996E+03  0.47000000000E+01 0.  1.
         11    1    6    6    0    0  0.12392158162E+02 -0.14407162389E+02  0.14323960083E+02  0.23797221361E+02  0.00000000000E+00 0. -1.
        -12    1    6    6    0    0  0.36068478932E+02  0.29903367281E+02 -0.76419430095E+02  0.89638584568E+02  0.00000000000E+00 0.  1.
</event>
<event>
12    1  0.8356052E-002  0.2736157E+03  0.7818608E-02  0.1099307E+00
         21   -1    0    0  501  502  0.00000000000E+00  0.00000000000E+00  0.14784269679E+04  0.14784269679E+04  0.00000000000E+00 0. -1.
         21   -1    0    0  502  503 -0.00000000000E+00 -0.00000000000E+00 -0.57068978537E+02  0.57068978537E+02  0.00000000000E+00 0.  1.
         -6    2    1    2    0  503 -0.16320756707E+03  0.13620966836E+03  0.45154050492E+03  0.52797193540E+03  0.17226651816E+03 0.  0.
        -24    2    3    3    0    0 -0.82382308734E+02  0.10266341424E+01  0.15680876008E+03  0.19376232072E+03  0.78529936475E+02 0.  0.
          6    2    1    2  501    0  0.16320756707E+03 -0.13620966836E+03  0.96981748440E+03  0.10075240110E+04  0.17137355686E+03 0.  0.
         24    2    5    5    0    0  0.13382105175E+03 -0.15489504009E+03  0.65760213731E+03  0.69333740505E+03  0.79847598036E+02 0.  0.
          5    1    5    5  501    0  0.29386515319E+02  0.18685371730E+02  0.31221534709E+03  0.31418660595E+03  0.47000000000E+01 0. -1.
        -11    1    6    6    0    0  0.13378427575E+03 -0.12451205736E+03  0.61064593893E+03  0.63740877591E+03  0.00000000000E+00 0.  1.
         12    1    6    6    0    0  0.36775996670E-01 -0.30382982728E+02  0.46956198377E+02  0.55928629144E+02  0.00000000000E+00 0. -1.
         -5    1    3    3    0  503 -0.80825258337E+02  0.13518303422E+03  0.29473174484E+03  0.33420961468E+03  0.47000000000E+01 0.  1.
         13    1    4    4    0    0 -0.39500717835E+02  0.24979594792E+02  0.12925204959E+03  0.13744227584E+03  0.00000000000E+00 0. -1.
        -14    1    4    4    0    0 -0.42881590898E+02 -0.23952960649E+02  0.27556710488E+02  0.56320044875E+02  0.00000000000E+00 0.  1.
</event>
<event>
12    1  0.8356052E-002  0.2166516E+03  0.7818608E-02  0.1136472E+00
         21   -1    0    0  503  502  0.00000000000E+00  0.00000000000E+00  0.70089232289E+03  0.70089232289E+03  0.00000000000E+00 0. -1.
         21   -1    0    0  501  503 -0.00000000000E+00 -0.00000000000E+00 -0.90886175466E+02  0.90886175466E+02  0.00000000000E+00 0. -1.
          6    2    1    2  501    0 -0.13216348233E+03 -0.12705420082E+01  0.10126736683E+03  0.23882908685E+03  0.17121755985E+03 0.  0.
         24    2    3    3    0    0 -0.54041076408E+02 -0.56425033421E+02  0.87164111253E+02  0.14205036993E+03  0.80476723161E+02 0.  0.
         -6    2    1    2    0  502  0.13216348233E+03  0.12705420082E+01  0.50873878059E+03  0.55294941151E+03  0.17166567645E+03 0.  0.
        -24    2    5    5    0    0  0.11325960546E+03  0.13397023153E+02  0.51131856707E+03  0.52985929665E+03  0.79353505010E+02 0.  0.
          5    1    3    3  501    0 -0.78122405923E+02  0.55154491413E+02  0.14103255578E+02  0.96778716917E+02  0.47000000000E+01 0. -1.
        -11    1    4    4    0    0  0.20010769224E+02 -0.23379257668E+02  0.28718540005E+02  0.42092459111E+02  0.00000000000E+00 0.  1.
         12    1    4    4    0    0 -0.74051845632E+02 -0.33045775753E+02  0.58445571249E+02  0.99957910818E+02  0.00000000000E+00 0. -1.
         -5    1    5    5    0  502  0.18903876871E+02 -0.12126481145E+02 -0.25797864820E+01  0.23090114855E+02  0.47000000000E+01 0.  1.
         11    1    6    6    0    0  0.56227270048E+02 -0.95952567171E+01  0.38681481708E+03  0.39099779739E+03  0.00000000000E+00 0. -1.
        -12    1    6    6    0    0  0.57032335411E+02  0.22992279870E+02  0.12450374999E+03  0.13886149927E+03  0.00000000000E+00 0.  1.
</event>
<event>
12    1  0.8356052E-002  0.2861241E+03  0.7818608E-02  0.1092514E+00
         21   -1    0    0  503  502  0.00000000000E+00  0.00000000000E+00  0.24129979444E+03  0.24129979444E+03  0.00000000000E+00 0.  1.
         21   -1    0    0  501  503 -0.00000000000E+00 -0.00000000000E+00 -0.33911553633E+03  0.33911553633E+03  0.00000000000E+00 0.  1.
          6    2    1    2  501    0  0.11879516870E+03 -0.19562260890E+03 -0.33656209742E+02  0.28809680093E+03  0.17171642038E+03 0.  0.
         24    2    3    3    0    0  0.39269793905E+02 -0.63658242419E+02 -0.66164294279E+02  0.13056031366E+03  0.84105844777E+02 0.  0.
         -6    2    1    2    0  502 -0.11879516870E+03  0.19562260890E+03 -0.64159532142E+02  0.29231852985E+03  0.17015634019E+03 0.  0.
        -24    2    5    5    0    0 -0.43540713267E+02  0.13090128612E+03 -0.97762660280E+02  0.18742170956E+03  0.80860491278E+02 0.  0.
          5    1    3    3  501    0  0.79525374796E+02 -0.13196436648E+03  0.32508084537E+02  0.15753648726E+03  0.47000000000E+01 0. -1.
        -13    1    4    4    0    0  0.52773049800E+02 -0.54346229854E+02 -0.79209707531E+02  0.10960239619E+03  0.00000000000E+00 0.  1.
         14    1    4    4    0    0 -0.13503255895E+02 -0.93120125650E+01  0.13045413252E+02  0.20957917470E+02  0.00000000000E+00 0. -1.
         -5    1    5    5    0  502 -0.75254455434E+02  0.64721322779E+02  0.33603128138E+02  0.10489682028E+03  0.47000000000E+01 0.  1.
         11    1    6    6    0    0 -0.90476695036E+00  0.10746751928E+03 -0.85275505476E+02  0.13719328751E+03  0.00000000000E+00 0. -1.
        -12    1    6    6    0    0 -0.42635946316E+02  0.23433766841E+02 -0.12487154804E+02  0.50228422051E+02  0.00000000000E+00 0.  1.
</event>
<event>
12    1  0.8356052E-002  0.3296145E+03  0.7818608E-02  0.1071903E+00
         21   -1    0    0  503  502  0.00000000000E+00  0.00000000000E+00  0.30736576829E+03  0.30736576829E+03  0.00000000000E+00 0. -1.
         21   -1    0    0  501  503 -0.00000000000E+00 -0.00000000000E+00 -0.46069894128E+03  0.46069894128E+03  0.00000000000E+00 0.  1.
          6    2    1    2  501    0 -0.10226967926E+03 -0.25797771684E+03 -0.26631240662E+03  0.41962533634E+03  0.16778419263E+03 0.  0.
         24    2    3    3    0    0 -0.59227418333E+02 -0.15554787286E+03 -0.24431605563E+03  0.30626556120E+03  0.80032687728E+02 0.  0.
         -6    2    1    2    0  502  0.10226967926E+03  0.25797771684E+03  0.11297923363E+03  0.34843937324E+03  0.17785977597E+03 0.  0.
        -24    2    5    5    0    0  0.10656649602E+03  0.91809307241E+02  0.46416732225E+02  0.16932192692E+03  0.82036790124E+02 0.  0.
          5    1    3    3  501    0 -0.43042260922E+02 -0.10242984398E+03 -0.21996350989E+02  0.11335977514E+03  0.47000000000E+01 0. -1.
        -13    1    4    4    0    0  0.42443892988E+01 -0.57937258926E+02 -0.13321667210E+03  0.14533211118E+03  0.00000000000E+00 0.  1.
         14    1    4    4    0    0 -0.63471807632E+02 -0.97610613939E+02 -0.11109938352E+03  0.16093345002E+03  0.00000000000E+00 0. -1.
         -5    1    5    5    0  502 -0.42968167647E+01  0.16616840960E+03  0.66562501405E+02  0.17911744632E+03  0.47000000000E+01 0.  1.
         11    1    6    6    0    0  0.42708288764E+02  0.69294724739E+02  0.58894962818E+02  0.10047075918E+03  0.00000000000E+00 0. -1.
        -12    1    6    6    0    0  0.63858207256E+02  0.22514582501E+02 -0.12478230593E+02  0.68851167731E+02  0.00000000000E+00 0.  1.
</event>
<event>
12    1  0.8356052E-002  0.1774086E+03  0.7818608E-02  0.1170416E+00
         21   -1    0    0  501  502  0.00000000000E+00  0.00000000000E+00  0.22311305061E+04  0.22311305061E+04  0.00000000000E+00 0. -1.
         21   -1    0    0  502  503 -0.00000000000E+00 -0.00000000000E+00 -0.15649503889E+02  0.15649503889E+02  0.00000000000E+00 0. -1.
         -6    2    1    2    0  503 -0.41429874129E+02  0.11682117667E+02  0.14643500313E+04  0.14750575703E+04  0.17210727835E+03 0.  0.
        -24    2    3    3    0    0 -0.18661288685E+02 -0.52199844232E+01  0.14189066706E+04  0.14212869596E+04  0.79906132142E+02 0.  0.
          6    2    1    2  501    0  0.41429874129E+02 -0.11682117667E+02  0.75113097086E+03  0.77172243961E+03  0.17176985205E+03 0.  0.
         24    2    5    5    0    0  0.79358986002E+02  0.31646184760E+02  0.56580188863E+03  0.57759640314E+03  0.78654294650E+02 0.  0.
          5    1    5    5  501    0 -0.37929111873E+02 -0.43328302426E+02  0.18532908223E+03  0.19412603648E+03  0.47000000000E+01 0. -1.
        -13    1    6    6    0    0  0.87569207434E+01 -0.10901680002E+02  0.14418826975E+02  0.20085638131E+02  0.00000000000E+00 0.  1.
         14    1    6    6    0    0  0.70602065259E+02  0.42547864762E+02  0.55138306166E+03  0.55751076501E+03  0.00000000000E+00 0. -1.
         -5    1    3    3    0  503 -0.22768585444E+02  0.16902102090E+02  0.45443360755E+02  0.53770610698E+02  0.47000000000E+01 0.  1.
         13    1    4    4    0    0  0.51510875571E+01 -0.44964160971E+01  0.96385634691E+01  0.11817502549E+02  0.00000000000E+00 0. -1.
        -14    1    4    4    0    0 -0.23812376242E+02 -0.72356832610E+00  0.14092681071E+04  0.14094694571E+04  0.00000000000E+00 0.  1.
</event>
<event>
12    1  0.8356052E-002  0.2225289E+03  0.7818608E-02  0.1132944E+00
         21   -1    0    0  503  502  0.00000000000E+00  0.00000000000E+00  0.32109726553E+04  0.32109726553E+04  0.00000000000E+00 0. -1.
         21   -1    0    0  501  503 -0.00000000000E+00 -0.00000000000E+00 -0.16843392578E+02  0.16843392578E+02  0.00000000000E+00 0. -1.
          6    2    1    2  501    0 -0.21174380846E+02 -0.13059894579E+03  0.10906068085E+04  0.11130778599E+04  0.17892644392E+03 0.  0.
         24    2    3    3    0    0 -0.58353139148E+02 -0.91002175864E+02  0.98781098449E+03  0.99671963845E+03  0.77414544749E+02 0.  0.
         -6    2    1    2    0  502  0.21174380846E+02  0.13059894579E+03  0.21035224542E+04  0.21147381880E+04  0.17264544410E+03 0.  0.
        -24    2    5    5    0    0 -0.37366871537E+02  0.72687041256E+02  0.16355699655E+04  0.16395724394E+04  0.80180939482E+02 0.  0.
          5    1    3    3  501    0  0.37178758302E+02 -0.39596769928E+02  0.10279582404E+03  0.11635822145E+03  0.47000000000E+01 0. -1.
        -13    1    4    4    0    0 -0.17476999457E+02  0.12123234668E+02  0.20213340292E+03  0.20324943027E+03  0.00000000000E+00 0.  1.
         14    1    4    4    0    0 -0.40876139691E+02 -0.10312541053E+03  0.78567758157E+03  0.79347020818E+03  0.00000000000E+00 0. -1.
         -5    1    5    5    0  502  0.58541252383E+02  0.57911904536E+02  0.46795248868E+03  0.47516574853E+03  0.47000000000E+01 0.  1.
         11    1    6    6    0    0  0.34453552928E+01  0.20008849996E+02  0.78693216039E+02  0.81270208575E+02  0.00000000000E+00 0. -1.
        -12    1    6    6    0    0 -0.40812226830E+02  0.52678191261E+02  0.15568767495E+04  0.15583022309E+04  0.00000000000E+00 0.  1.
</event>
<event>
12    1  0.8356052E-002  0.3096728E+03  0.7818608E-02  0.1080598E+00
         21   -1    0    0  503  502  0.00000000000E+00  0.00000000000E+00  0.27777390836E+04  0.27777390836E+04  0.00000000000E+00 0. -1.
         21   -1    0    0  501  503 -0.00000000000E+00 -0.00000000000E+00 -0.46017848457E+02  0.46017848457E+02  0.00000000000E+00 0. -1.
          6    2    1    2  501    0 -0.14952774704E+03  0.20907291213E+03  0.20754938498E+04  0.20984689498E+04  0.17270548013E+03 0.  0.
         24    2    3    3    0    0 -0.23194911103E+02  0.50348098530E+02  0.90405607431E+03  0.90958623742E+03  0.83407450945E+02 0.  0.
         -6    2    1    2    0  502  0.14952774704E+03 -0.20907291213E+03  0.65622738538E+03  0.72528798233E+03  0.17128410978E+03 0.  0.
        -24    2    5    5    0    0  0.75547274340E+01 -0.48045174121E+02  0.21759034137E+03  0.23691228977E+03  0.80102832176E+02 0.  0.
          5    1    3    3  501    0 -0.12633283593E+03  0.15872481360E+03  0.11714377755E+04  0.11888827123E+04  0.47000000000E+01 0. -1.
        -13    1    4    4    0    0 -0.46803611824E+02  0.26489481459E+01  0.40934747839E+03  0.41202300066E+03  0.00000000000E+00 0.  1.
         14    1    4    4    0    0  0.23608700721E+02  0.47699150384E+02  0.49470859591E+03  0.49756323675E+03  0.00000000000E+00 0. -1.
         -5    1    5    5    0  502  0.14197301960E+03 -0.16102773801E+03  0.43863704401E+03  0.48837569256E+03  0.47000000000E+01 0.  1.
         13    1    6    6    0    0  0.76979271600E+01 -0.13013159247E+02 -0.13567267158E+01  0.15180286675E+02  0.00000000000E+00 0. -1.
        -14    1    6    6    0    0 -0.14319972609E+00 -0.35032014874E+02  0.21894706809E+03  0.22173200309E+03  0.00000000000E+00 0.  1.
</event>
<event>
12    1  0.8356052E-002  0.1785533E+03  0.7818608E-02  0.1169274E+00
         21   -1    0    0  501  502  0.00000000000E+00  0.00000000000E+00  0.42897692106E+02  0.42897692106E+02  0.00000000000E+00 0. -1.
         21   -1    0    0  502  503 -0.00000000000E+00 -0.00000000000E+00 -0.16324225353E+04  0.16324225353E+04  0.00000000000E+00 0. -1.
         -6    2    1    2    0  503 -0.11558180086E+02  0.46988961853E+02 -0.14131163414E+04  0.14243197249E+04  0.17160224472E+03 0.  0.
        -24    2    3    3    0    0 -0.13024503304E+02 -0.19860657741E+02 -0.39206415850E+03  0.40106967144E+03  0.81107913018E+02 0.  0.
          6    2    1    2  501    0  0.11558180086E+02 -0.46988961853E+02 -0.17640850181E+03  0.25100050250E+03  0.17187128522E+03 0.  0.
         24    2    5    5    0    0  0.38334933256E+02 -0.30992611879E+01 -0.17862012408E+03  0.19932573489E+03  0.79664467193E+02 0.  0.
          5    1    5    5  501    0 -0.26776753170E+02 -0.43889700665E+02  0.22116222776E+01  0.51674767613E+02  0.47000000000E+01 0. -1.
        -11    1    6    6    0    0 -0.11630960740E+02  0.25982045565E+02 -0.81172227137E+02  0.86019046716E+02  0.00000000000E+00 0.  1.
         12    1    6    6    0    0  0.49965893995E+02 -0.29081306753E+02 -0.97447896945E+02  0.11330668817E+03  0.00000000000E+00 0. -1.
         -5    1    3    3    0  503  0.14663232178E+01  0.66849619593E+02 -0.10210521829E+04  0.10232500534E+04  0.47000000000E+01 0.  1.
         13    1    4    4    0    0  0.83373294254E+01 -0.27257664507E+02 -0.36362367541E+03  0.36473917894E+03  0.00000000000E+00 0. -1.
        -14    1    4    4    0    0 -0.21361832729E+02  0.73970067663E+01 -0.28440483096E+02  0.36330492502E+02  0.00000000000E+00 0.  1.
</event>
<event>
12    1  0.8356052E-002  0.2086571E+03  0.7818608E-02  0.1143166E+00
         21   -1    0    0  503  502  0.00000000000E+00  0.00000000000E+00  0.57872893621E+03  0.57872893621E+03  0.00000000000E+00 0. -1.
         21   -1    0    0  501  503 -0.00000000000E+00 -0.00000000000E+00 -0.10358576043E+03  0.10358576043E+03  0.00000000000E+00 0. -1.
          6    2    1    2  501    0 -0.51941218466E+02  0.10140817635E+03  0.55020687620E+02  0.21322975937E+03  0.17163375486E+03 0.  0.
         24    2    3    3    0    0 -0.70821225704E+02  0.87673394805E+02  0.94251101216E+02  0.16733624950E+03  0.80099189436E+02 0.  0.
         -6    2    1    2    0  502  0.51941218466E+02 -0.10140817635E+03  0.42012248816E+03  0.46908493727E+03  0.17480350371E+03 0.  0.
        -24    2    5    5    0    0  0.88258457309E+02 -0.70626600809E+02  0.19976406169E+03  0.24359353311E+03  0.81574855221E+02 0.  0.
          5    1    3    3  501    0  0.18880007238E+02  0.13734781545E+02 -0.39230413596E+02  0.45893509871E+02  0.47000000000E+01 0. -1.
        -13    1    4    4    0    0 -0.50525771055E+02  0.36126391141E+01  0.24672498868E+02  0.56343916286E+02  0.00000000000E+00 0.  1.
         14    1    4    4    0    0 -0.20295454649E+02  0.84060755691E+02  0.69578602348E+02  0.11099233321E+03  0.00000000000E+00 0. -1.
         -5    1    5    5    0  502 -0.36317238844E+02 -0.30781575541E+02  0.22035842648E+03  0.22549140416E+03  0.47000000000E+01 0.  1.
         11    1    6    6    0    0  0.13829301548E+01 -0.48579447250E+02  0.55676482597E+02  0.73903625792E+02  0.00000000000E+00 0. -1.
        -12    1    6    6    0    0  0.86875527154E+02 -0.22047153559E+02  0.14408757909E+03  0.16968990732E+03  0.00000000000E+00 0.  1.
</event>
<event>
12    1  0.8356052E-002  0.3187041E+03  0.7818608E-02  0.1076265E+00
         21   -1    0    0  503  502  0.00000000000E+00  0.00000000000E+00  0.75432550324E+03  0.75432550324E+03  0.00000000000E+00 0. -1.
         21   -1    0    0  501  503 -0.00000000000E+00 -0.00000000000E+00 -0.31212925216E+03  0.31212925216E+03  0.00000000000E+00 0.  1.
          6    2    1    2  501    0 -0.35036259821E+01 -0.26827424958E+03 -0.18103481928E+03  0.36653230656E+03  0.17201446910E+03 0.  0.
         24    2    3    3    0    0  0.47104127877E+02 -0.22761821991E+03 -0.18106617281E+03  0.30144660550E+03  0.63688649975E+02 0.  0.
         -6    2    1    2    0  502  0.35036259821E+01  0.26827424958E+03  0.62323107036E+03  0.69992244884E+03  0.17172978468E+03 0.  0.
        -24    2    5    5    0    0  0.17346191612E+02  0.24802177715E+03  0.41513201530E+03  0.49032978204E+03  0.79202352988E+02 0.  0.
          5    1    3    3  501    0 -0.50607753859E+02 -0.40656029675E+02  0.31353528588E-01  0.65085701061E+02  0.47000000000E+01 0. -1.
        -11    1    4    4    0    0  0.63450244406E+01 -0.17163100177E+03 -0.13014592094E+03  0.21548879517E+03  0.00000000000E+00 0.  1.
         12    1    4    4    0    0  0.40759103436E+02 -0.55987218141E+02 -0.50920251863E+02  0.85957810336E+02  0.00000000000E+00 0. -1.
         -5    1    5    5    0  502 -0.13842565630E+02  0.20252472435E+02  0.20809905506E+03  0.20959266681E+03  0.47000000000E+01 0.  1.
         11    1    6    6    0    0  0.86037676430E+01  0.57866379788E+02  0.17116099144E+03  0.18088291162E+03  0.00000000000E+00 0. -1.
        -12    1    6    6    0    0  0.87424239695E+01  0.19015539736E+03  0.24397102386E+03  0.30944687041E+03  0.00000000000E+00 0.  1.
</event>
<event>
12    1  0.8356052E-002  0.2128653E+03  0.7818608E-02  0.1139508E+00
         21   -1    0    0  503  502  0.00000000000E+00  0.00000000000E+00  0.21976052826E+03  0.21976052826E+03  0.00000000000E+00 0. -1.
         21   -1    0    0  501  503 -0.00000000000E+00 -0.00000000000E+00 -0.44775525434E+03  0.44775525434E+03  0.00000000000E+00 0.  1.
          6    2    1    2  501    0  0.75635359726E+02 -0.99152397625E+02 -0.35950789564E+03  0.41730118630E+03  0.17129637319E+03 0.  0.
         24    2    3    3    0    0  0.77468561317E+02 -0.13545119504E+03 -0.27582144432E+03  0.32594213937E+03  0.76239129325E+02 0.  0.
         -6    2    1    2    0  502 -0.75635359726E+02  0.99152397625E+02  0.13151316955E+03  0.25021459630E+03  0.17251007170E+03 0.  0.
        -24    2    5    5    0    0 -0.88425856423E+02  0.11291714662E+03  0.57095683970E+02  0.17331780000E+03  0.78801831090E+02 0.  0.
          5    1    3    3  501    0 -0.18332015911E+01  0.36298797419E+02 -0.83686451322E+02  0.91359046936E+02  0.47000000000E+01 0. -1.
        -11    1    4    4    0    0 -0.15369656298E+02 -0.16343080401E+02 -0.30441501776E+02  0.37815441847E+02  0.00000000000E+00 0.  1.
         12    1    4    4    0    0  0.92838217615E+02 -0.11910811464E+03 -0.24537994254E+03  0.28812669752E+03  0.00000000000E+00 0. -1.
         -5    1    5    5    0  502  0.12790496697E+02 -0.13764748994E+02  0.74417485583E+02  0.76896796299E+02  0.47000000000E+01 0.  1.
         11    1    6    6    0    0 -0.54537323513E+02  0.50260502317E+02  0.68759591917E+02  0.10113515328E+03  0.00000000000E+00 0. -1.
        -12    1    6    6    0    0 -0.33888532910E+02  0.62656644302E+02 -0.11663907947E+02  0.72182646714E+02  0.00000000000E+00 0.  1.
</event>
<event>
12    1  0.8356052E-002  0.1940267E+03  0.7818608E-02  0.1155100E+00
         21   -1    0    0  501  502  0.00000000000E+00  0.00000000000E+00  0.48990420297E+02  0.48990420297E+02  0.00000000000E+00 0. -1.
         21   -1    0    0  502  503 -0.00000000000E+00 -0.00000000000E+00 -0.86763810521E+03  0.86763810521E+03  0.00000000000E+00 0. -1.
         -6    2    1    2    0  503 -0.62435828455E+02  0.64993063189E+02 -0.56643076626E+03  0.59841519208E+03  0.17068860013E+03 0.  0.
        -24    2    3    3    0    0 -0.17397605868E+02  0.93086862758E+02 -0.48667584411E+03  0.50249522192E+03  0.81732674678E+02 0.  0.
          6    2    1    2  501    0  0.62435828455E+02 -0.64993063189E+02 -0.25221691866E+03  0.31821333343E+03  0.17182555275E+03 0.  0.
         24    2    5    5    0    0  0.10185343128E+03 -0.13582409202E+02 -0.14968401446E+03  0.19683833930E+03  0.76035678019E+02 0.  0.
          5    1    5    5  501    0 -0.39417602823E+02 -0.51410653988E+02 -0.10253290420E+03  0.12137499412E+03  0.47000000000E+01 0. -1.
        -11    1    6    6    0    0  0.39004440402E+02 -0.20919850913E+02 -0.11809289729E+03  0.12611470543E+03  0.00000000000E+00 0.  1.
         12    1    6    6    0    0  0.62848990876E+02  0.73374417113E+01 -0.31591117166E+02  0.70723633877E+02  0.00000000000E+00 0. -1.
         -5    1    3    3    0  503 -0.45038222586E+02 -0.28093799568E+02 -0.79754922150E+02  0.95919970158E+02  0.47000000000E+01 0.  1.
         13    1    4    4    0    0  0.14195315057E+02  0.92385370567E+02 -0.35957735218E+03  0.37152716706E+03  0.00000000000E+00 0. -1.
        -14    1    4    4    0    0 -0.31592920926E+02  0.70149219079E+00 -0.12709849193E+03  0.13096805486E+03  0.00000000000E+00 0.  1.
</event>
<event>
12    1  0.8356052E-002  0.1948271E+03  0.7818608E-02  0.1154252E+00
         21   -1    0    0  503  502  0.00000000000E+00  0.00000000000E+00  0.94110139615E+03  0.94110139615E+03  0.00000000000E+00 0.  1.
         21   -1    0    0  501  503 -0.00000000000E+00 -0.00000000000E+00 -0.58906601648E+02  0.58906601648E+02  0.00000000000E+00 0.  1.
          6    2    1    2  501    0 -0.60415179791E+02 -0.68540536164E+02  0.16007058508E+03  0.25215109327E+03  0.17207493305E+03 0.  0.
         24    2    3    3    0    0 -0.81556432841E+02 -0.93428530053E+02  0.16120391928E+03  0.21913989416E+03  0.81579701249E+02 0.  0.
         -6    2    1    2    0  502  0.60415179791E+02  0.68540536164E+02  0.72212420942E+03  0.74785690452E+03  0.17169384603E+03 0.  0.
        -24    2    5    5    0    0  0.21057730780E+02 -0.23879182781E+02  0.32530861679E+03  0.33849750522E+03  0.87984211578E+02 0.  0.
          5    1    3    3  501    0  0.21141253051E+02  0.24887993888E+02 -0.11333342002E+01  0.33011199111E+02  0.47000000000E+01 0. -1.
        -13    1    4    4    0    0 -0.91667300757E+01 -0.16456750470E+01 -0.88080598581E+01  0.12818701381E+02  0.00000000000E+00 0.  1.
         14    1    4    4    0    0 -0.72389702766E+02 -0.91782855006E+02  0.17001197913E+03  0.20632119278E+03  0.00000000000E+00 0. -1.
         -5    1    5    5    0  502  0.39357449011E+02  0.92419718945E+02  0.39681559264E+03  0.40935939931E+03  0.47000000000E+01 0.  1.
         11    1    6    6    0    0  0.45187946463E+02 -0.19830144745E+01  0.87817594207E+02  0.98781641534E+02  0.00000000000E+00 0. -1.
        -12    1    6    6    0    0 -0.24130215683E+02 -0.21896168306E+02  0.23749102258E+03  0.23971586368E+03  0.00000000000E+00 0.  1.
</event>
<event>
12    1  0.8356052E-002  0.1827856E+03  0.7818608E-02  0.1165319E+00
         21   -1    0    0  503  502  0.00000000000E+00  0.00000000000E+00  0.10676407402E+03  0.10676407402E+03  0.00000000000E+00 0. -1.
         21   -1    0    0  501  503 -0.00000000000E+00 -0.00000000000E+00 -0.50166725482E+03  0.50166725482E+03  0.00000000000E+00 0. -1.
          6    2    1    2  501    0  0.56086519181E+02  0.15648687837E+02 -0.38443843990E+03  0.42534639246E+03  0.17244146961E+03 0.  0.
         24    2    3    3    0    0  0.60345046450E+02  0.68477125037E+02 -0.20367994529E+03  0.23691947770E+03  0.79464945208E+02 0.  0.
         -6    2    1    2    0  502 -0.56086519181E+02 -0.15648687837E+02 -0.10464740901E+02  0.18308493638E+03  0.17326281788E+03 0.  0.
        -24    2    5    5    0    0  0.84687802303E+00 -0.41164062033E+02  0.43816741012E+02  0.10025369036E+03  0.80222804944E+02 0.  0.
          5    1    3    3  501    0 -0.42585272685E+01 -0.52828437200E+02 -0.18075849461E+03  0.18842691476E+03  0.47000000000E+01 0. -1.
        -13    1    4    4    0    0  0.36434304907E+01  0.84130782352E+01  0.64022395302E+01  0.11182269096E+02  0.00000000000E+00 0.  1.
         14    1    4    4    0    0  0.56701615959E+02  0.60064046802E+02 -0.21008218482E+03  0.22573720860E+03  0.00000000000E+00 0. -1.
         -5    1    5    5    0  502 -0.56933397204E+02  0.25515374195E+02 -0.54281481913E+02  0.82831246014E+02  0.47000000000E+01 0.  1.
         11    1    6    6    0    0 -0.13306430674E+02  0.19260372508E+02  0.27440639082E+02  0.36069540053E+02  0.00000000000E+00 0. -1.
        -12    1    6    6    0    0  0.14153308697E+02 -0.60424434541E+02  0.16376101931E+02  0.64184150310E+02  0.00000000000E+00 0.  1.
</event>
<event>
12    1  0.8356052E-002  0.1774308E+03  0.7818608E-02  0.1171067E+00
         21   -1    0    0  501  502  0.00000000000E+00  0.00000000000E+00  0.19387004342E+03  0.19387004342E+03  0.00000000000E+00 0. -1.
         21   -1    0    0  502  503 -0.00000000000E+00 -0.00000000000E+00 -0.23994786138E+03  0.23994786138E+03  0.00000000000E+00 0. -1.
         -6    2    1    2    0  503 -0.62043883324E+01  0.30190350766E+02 -0.14840257883E+03  0.22899588613E+03  0.17165616432E+03 0.  0.
        -24    2    3    3    0    0 -0.54150447447E+02  0.84019438819E+00 -0.35936208652E+02  0.10317446234E+03  0.80128532380E+02 0.  0.
          6    2    1    2  501    0  0.62043883324E+01 -0.30190350766E+02  0.10232476087E+03  0.20482201867E+03  0.17473337097E+03 0.  0.
         24    2    5    5    0    0 -0.53613404146E+02 -0.25509045174E+02  0.10400020916E+03  0.14461421148E+03  0.81068601615E+02 0.  0.
          5    1    5    5  501    0  0.59817792478E+02 -0.46813055912E+01 -0.16754482925E+01  0.60207807185E+02  0.47000000000E+01 0. -1.
        -13    1    6    6    0    0 -0.28117336943E+02  0.95850340873E+01 -0.23089067941E+01  0.29795781007E+02  0.00000000000E+00 0.  1.
         14    1    6    6    0    0 -0.25496067202E+02 -0.35094079262E+02  0.10630911595E+03  0.11481843048E+03  0.00000000000E+00 0. -1.
         -5    1    3    3    0  503  0.47946059115E+02  0.29350156377E+02 -0.11246637018E+03  0.12582142379E+03  0.47000000000E+01 0.  1.
         11    1    4    4    0    0  0.13998672587E+01  0.31746075604E+02 -0.20310407478E+02  0.37713201887E+02  0.00000000000E+00 0. -1.
        -12    1    4    4    0    0 -0.55550314706E+02 -0.30905881216E+02 -0.15625801174E+02  0.65461260452E+02  0.00000000000E+00 0.  1.
</event>
<event>
12    1  0.8356052E-002  0.1957725E+03  0.7818608E-02  0.1153364E+00
         21   -1    0    0  501  502  0.00000000000E+00  0.00000000000E+00  0.10324631156E+03  0.10324631156E+03  0.00000000000E+00 0.  1.
         21   -1    0    0  502  503 -0.00000000000E+00 -0.00000000000E+00 -0.12469003635E+04  0.12469003635E+04  0.00000000000E+00 0.  1.
         -6    2    1    2    0  503  0.20512878929E+01  0.94726937541E+02 -0.11375626006E+04  0.11542794087E+04  0.17127429096E+03 0.  0.
        -24    2    3    3    0    0 -0.33808870105E+02  0.21431582546E+02 -0.32173272195E+03  0.33436560788E+03  0.81768349184E+02 0.  0.
          6    2    1    2  501    0 -0.20512878929E+01 -0.94726937541E+02 -0.60914513985E+01  0.19586726635E+03  0.17131689867E+03 0.  0.
         24    2    5    5    0    0  0.52304597464E+02 -0.13954051632E+02  0.13376508544E+02  0.96469515696E+02  0.78720708870E+02 0.  0.
          5    1    5    5  501    0 -0.54355885357E+02 -0.80772885910E+02 -0.19467959943E+02  0.99397750656E+02  0.47000000000E+01 0. -1.
        -11    1    6    6    0    0  0.33392193564E+02 -0.46657508179E+02  0.12281844291E+02  0.58675423813E+02  0.00000000000E+00 0.  1.
         12    1    6    6    0    0  0.18912403900E+02  0.32703456547E+02  0.10946642529E+01  0.37794091883E+02  0.00000000000E+00 0. -1.
         -5    1    3    3    0  503  0.35860157998E+02  0.73295354996E+02 -0.81582987861E+03  0.81991380085E+03  0.47000000000E+01 0.  1.
         13    1    4    4    0    0  0.23227552353E+02 -0.19704816930E+01 -0.43164243306E+02  0.49056639577E+02  0.00000000000E+00 0. -1.
        -14    1    4    4    0    0 -0.57036422458E+02  0.23402064239E+02 -0.27856847864E+03  0.28530896830E+03  0.00000000000E+00 0.  1.
</event>
<event>
12    1  0.8356052E-002  0.2819178E+03  0.7818608E-02  0.1095169E+00
         21   -1    0    0  501  502  0.00000000000E+00  0.00000000000E+00  0.11587927001E+04  0.11587927001E+04  0.00000000000E+00 0.  1.
         21   -1    0    0  502  503 -0.00000000000E+00 -0.00000000000E+00 -0.82072065815E+02  0.82072065815E+02  0.00000000000E+00 0.  1.
         -6    2    1    2    0  503 -0.10298465103E+03  0.19197004904E+03  0.27529404713E+03  0.39129887709E+03  0.17282841419E+03 0.  0.
        -24    2    3    3    0    0 -0.13197384318E+03  0.15117540330E+03  0.17113623546E+03  0.27564631069E+03  0.80138503018E+02 0.  0.
          6    2    1    2  501    0  0.10298465103E+03 -0.19197004904E+03  0.80142658715E+03  0.84956588882E+03  0.17893933826E+03 0.  0.
         24    2    5    5    0    0  0.11411181684E+03 -0.20761240664E+03  0.64579781351E+03  0.69268726582E+03  0.81464189426E+02 0.  0.
          5    1    5    5  501    0 -0.11127165813E+02  0.15642357596E+02  0.15562877364E+03  0.15687862300E+03  0.47000000000E+01 0. -1.
        -11    1    6    6    0    0  0.47220867974E+02 -0.15880395985E+03  0.38721373808E+03  0.42116859688E+03  0.00000000000E+00 0.  1.
         12    1    6    6    0    0  0.66890948867E+02 -0.48808446789E+02  0.25858407542E+03  0.27151866894E+03  0.00000000000E+00 0. -1.
         -5    1    3    3    0  503  0.28989192148E+02  0.40794645748E+02  0.10415781166E+03  0.11565256640E+03  0.47000000000E+01 0.  1.
         13    1    4    4    0    0 -0.38592125906E+02  0.86049819032E+00  0.38287386044E+02  0.54369261253E+02  0.00000000000E+00 0. -1.
        -14    1    4    4    0    0 -0.93381717271E+02  0.15031490510E+03  0.13284884942E+03  0.22127704944E+03  0.00000000000E+00 0.  1.
</event>
<event>
12    1  0.8356052E-002  0.1884876E+03  0.7818608E-02  0.1159842E+00
         21   -1    0    0  501  502  0.00000000000E+00  0.00000000000E+00  0.55918513356E+02  0.55918513356E+02  0.00000000000E+00 0. -1.
         21   -1    0    0  502  503 -0.00000000000E+00 -0.00000000000E+00 -0.13550283737E+04  0.13550283737E+04  0.00000000000E+00 0. -1.
         -6    2    1    2    0  503 -0.75560069078E+02  0.36155317558E+01 -0.11637761190E+04  0.11789412258E+04  0.17264171747E+03 0.  0.
        -24    2    3    3    0    0 -0.35072396359E+02 -0.59852631818E+02 -0.51172415837E+03  0.52254096011E+03  0.79843786293E+02 0.  0.
          6    2    1    2  501    0  0.75560069078E+02 -0.36155317558E+01 -0.13533374127E+03  0.23200566119E+03  0.17259492805E+03 0.  0.
         24    2    5    5    0    0  0.30157096531E+02  0.26735128290E+02 -0.15083319857E+03  0.17504150002E+03  0.79149576016E+02 0.  0.
          5    1    5    5  501    0  0.45402972547E+02 -0.30350660046E+02  0.15499457296E+02  0.56964161170E+02  0.47000000000E+01 0. -1.
        -11    1    6    6    0    0  0.12882357877E+02 -0.20296667818E+02 -0.10300943197E+03  0.10577737444E+03  0.00000000000E+00 0.  1.
         12    1    6    6    0    0  0.17274738654E+02  0.47031796108E+02 -0.47823766599E+02  0.69264125581E+02  0.00000000000E+00 0. -1.
         -5    1    3    3    0  503 -0.40487672719E+02  0.63468163574E+02 -0.65205196066E+03  0.65640026571E+03  0.47000000000E+01 0.  1.
         13    1    4    4    0    0 -0.14298152711E+02  0.18872774030E+02 -0.14172480950E+03  0.14368904064E+03  0.00000000000E+00 0. -1.
        -14    1    4    4    0    0 -0.20774243649E+02 -0.78725405848E+02 -0.36999934887E+03  0.37885191947E+03  0.00000000000E+00 0.  1.
</event>
<event>
12    1  0.8356052E-002  0.1906053E+03  0.7818608E-02  0.1158046E+00
         21   -1    0    0  501  502  0.00000000000E+00  0.00000000000E+00  0.70551875607E+03  0.70551875607E+03  0.00000000000E+00 0. -1.
         21   -1    0    0  502  503 -0.00000000000E+00 -0.00000000000E+00 -0.11294481623E+03  0.11294481623E+03  0.00000000000E+00 0. -1.
         -6    2    1    2    0  503 -0.21738136989E+02 -0.77101714680E+02 -0.61516425292E+01  0.19013028999E+03  0.17232081551E+03 0.  0.
        -24    2    3    3    0    0 -0.20019612385E+02 -0.98344882560E+02 -0.53065630415E+02  0.13838825903E+03  0.79138159571E+02 0.  0.
          6    2    1    2  501    0  0.21738136989E+02  0.77101714680E+02  0.59872558237E+03  0.62833328231E+03  0.17295424155E+03 0.  0.
         24    2    5    5    0    0 -0.25204815883E+02  0.10035787153E+03  0.34267064298E+03  0.36693184459E+03  0.80677282385E+02 0.  0.
          5    1    5    5  501    0  0.46942952873E+02 -0.23256156850E+02  0.25605493939E+03  0.26140143772E+03  0.47000000000E+01 0. -1.
        -11    1    6    6    0    0 -0.47166241657E+02  0.41611677816E+02  0.22456043220E+03  0.23320285974E+03  0.00000000000E+00 0.  1.
         12    1    6    6    0    0  0.21961425774E+02  0.58746193713E+02  0.11811021078E+03  0.13372898485E+03  0.00000000000E+00 0. -1.
         -5    1    3    3    0  503 -0.17185246042E+01  0.21243167880E+02  0.46913987886E+02  0.51742030959E+02  0.47000000000E+01 0.  1.
         13    1    4    4    0    0 -0.69085235819E+01  0.73530141822E+01  0.10331007288E+02  0.14440367974E+02  0.00000000000E+00 0. -1.
        -14    1    4    4    0    0 -0.13111088803E+02 -0.10569789674E+03 -0.63396637702E+02  0.12394789106E+03  0.00000000000E+00 0.  1.
</event>
<event>
12    1  0.8356052E-002  0.2490816E+03  0.7818608E-02  0.1114312E+00
         21   -1    0    0  501  502  0.00000000000E+00  0.00000000000E+00  0.88129622851E+02  0.88129622851E+02  0.00000000000E+00 0.  1.
         21   -1    0    0  502  503 -0.00000000000E+00 -0.00000000000E+00 -0.16785972523E+04  0.16785972523E+04  0.00000000000E+00 0. -1.
         -6    2    1    2    0  503 -0.17802706939E+03 -0.36369598409E+01 -0.14691485566E+04  0.14896709727E+04  0.17033866385E+03 0.  0.
        -24    2    3    3    0    0 -0.19910210533E+03  0.15847561741E+02 -0.13491688246E+04  0.13662164069E+04  0.79987245824E+02 0.  0.
          6    2    1    2  501    0  0.17802706939E+03  0.36369598409E+01 -0.12131907284E+03  0.27705590252E+03  0.17416885708E+03 0.  0.
         24    2    5    5    0    0  0.51916180079E+02  0.57906253868E+02 -0.47325067110E+02  0.12102284333E+03  0.79739843490E+02 0.  0.
          5    1    5    5  501    0  0.12611088931E+03 -0.54269294027E+02 -0.73994005732E+02  0.15603305919E+03  0.47000000000E+01 0. -1.
        -11    1    6    6    0    0  0.42823378182E+02 -0.90817788633E+01 -0.17893539112E+02  0.47291639517E+02  0.00000000000E+00 0.  1.
         12    1    6    6    0    0  0.90928018970E+01  0.66988032731E+02 -0.29431527998E+02  0.73731203814E+02  0.00000000000E+00 0. -1.
         -5    1    3    3    0  503  0.21075035938E+02 -0.19484521582E+02 -0.11997973202E+03  0.12345456580E+03  0.47000000000E+01 0.  1.
         11    1    4    4    0    0 -0.12293076824E+03  0.45610755632E+02 -0.73167683787E+03  0.74333257017E+03  0.00000000000E+00 0. -1.
        -12    1    4    4    0    0 -0.76171337083E+02 -0.29763193890E+02 -0.61749198675E+03  0.62288383669E+03  0.00000000000E+00 0.  1.
</event>
<event>
12    1  0.8356052E-002  0.1773226E+03  0.7818608E-02  0.1170880E+00
         21   -1    0    0  501  502  0.00000000000E+00  0.00000000000E+00  0.25271838990E+03  0.25271838990E+03  0.00000000000E+00 0.  1.
         21   -1    0    0  502  503 -0.00000000000E+00 -0.00000000000E+00 -0.42737170407E+03  0.42737170407E+03  0.00000000000E+00 0.  1.
         -6    2    1    2    0  503 -0.34806917538E+02 -0.16905673695E+02 -0.37436941464E+03  0.41424117567E+03  0.17304903841E+03 0.  0.
        -24    2    3    3    0    0  0.24443125570E+02 -0.23180218611E+02 -0.97056148344E+02  0.13056058912E+03  0.80569116776E+02 0.  0.
          6    2    1    2  501    0  0.34806917538E+02  0.16905673695E+02  0.19971610047E+03  0.26584891829E+03  0.17114848307E+03 0.  0.
         24    2    5    5    0    0  0.64912700144E+02 -0.14221652695E+02  0.19706003760E+03  0.22220933460E+03  0.78284199683E+02 0.  0.
          5    1    5    5  501    0 -0.30105782605E+02  0.31127326391E+02  0.26560628694E+01  0.43639583688E+02  0.47000000000E+01 0. -1.
        -13    1    6    6    0    0  0.29365146323E+02  0.39656962009E+01  0.10520337680E+02  0.31443855836E+02  0.00000000000E+00 0.  1.
         14    1    6    6    0    0  0.35547553821E+02 -0.18187348896E+02  0.18653969992E+03  0.19076547877E+03  0.00000000000E+00 0. -1.
         -5    1    3    3    0  503 -0.59250043108E+02  0.62745449155E+01 -0.27731326629E+03  0.28368058655E+03  0.47000000000E+01 0.  1.
         11    1    4    4    0    0  0.52202861175E+02 -0.44883679726E+01 -0.70499529157E+02  0.87837735474E+02  0.00000000000E+00 0. -1.
        -12    1    4    4    0    0 -0.27759735605E+02 -0.18691850638E+02 -0.26556619187E+02  0.42722853648E+02  0.00000000000E+00 0.  1.
</event>
<event>
12    1  0.8356052E-002  0.1757244E+03  0.7818608E-02  0.1173134E+00
         21   -1    0    0  501  502  0.00000000000E+00  0.00000000000E+00  0.36875316055E+03  0.36875316055E+03  0.00000000000E+00 0.  1.
         21   -1    0    0  502  503 -0.00000000000E+00 -0.00000000000E+00 -0.85123179887E+02  0.85123179887E+02  0.00000000000E+00 0.  1.
         -6    2    1    2    0  503  0.34821494420E+02  0.12069817459E+02  0.94103976545E+02  0.19542096794E+03  0.16725901872E+03 0.  0.
        -24    2    3    3    0    0  0.34316508336E+02  0.49776238866E+02  0.11233648875E+03  0.15327190238E+03  0.84955827672E+02 0.  0.
          6    2    1    2  501    0 -0.34821494420E+02 -0.12069817459E+02  0.18952600412E+03  0.25845537249E+03  0.17181634488E+03 0.  0.
         24    2    5    5    0    0 -0.48566779194E+02  0.44563282666E+02  0.67414776318E+02  0.12306895206E+03  0.79098651642E+02 0.  0.
          5    1    5    5  501    0  0.13745284774E+02 -0.56633100125E+02  0.12211122780E+03  0.13538642044E+03  0.47000000000E+01 0. -1.
        -11    1    6    6    0    0  0.25257875481E+01  0.14688544924E+02  0.61852040288E+02  0.63622384760E+02  0.00000000000E+00 0.  1.
         12    1    6    6    0    0 -0.51092566742E+02  0.29874737743E+02  0.55627360294E+01  0.59446567299E+02  0.00000000000E+00 0. -1.
         -5    1    3    3    0  503  0.50498608431E+00 -0.37706421408E+02 -0.18232512205E+02  0.42149065561E+02  0.47000000000E+01 0.  1.
         13    1    4    4    0    0  0.41964606790E+02  0.15026484209E+02  0.10872551032E+03  0.11750770207E+03  0.00000000000E+00 0. -1.
        -14    1    4    4    0    0 -0.76480984549E+01  0.34749754658E+02  0.36109784256E+01  0.35764200312E+02  0.00000000000E+00 0.  1.
</event>
<event>
12    1  0.8356052E-002  0.2891467E+03  0.7818608E-02  0.1091541E+00
         21   -1    0    0  501  502  0.00000000000E+00  0.00000000000E+00  0.32494913221E+03  0.32494913221E+03  0.00000000000E+00 0. -1.
         21   -1    0    0  502  503 -0.00000000000E+00 -0.00000000000E+00 -0.27993593245E+03  0.27993593245E+03  0.00000000000E+00 0. -1.
         -6    2    1    2    0  503 -0.21772896710E+03 -0.78416909994E+02 -0.72705943353E+02  0.29269347908E+03  0.16379317328E+03 0.  0.
        -24    2    3    3    0    0 -0.15375159326E+03  0.10660659678E+02 -0.61358019061E+02  0.18233595479E+03  0.75686140156E+02 0.  0.
          6    2    1    2  501    0  0.21772896710E+03  0.78416909994E+02  0.11771914311E+03  0.31219158558E+03  0.17335130390E+03 0.  0.
         24    2    5    5    0    0  0.84134786303E+02  0.51967845443E+02 -0.73802590429E+01  0.12720804962E+03  0.79674967445E+02 0.  0.
          5    1    5    5  501    0  0.13359418079E+03  0.26449064551E+02  0.12509940215E+03  0.18498353596E+03  0.47000000000E+01 0. -1.
        -11    1    6    6    0    0  0.77382986983E+01 -0.97483924699E+01 -0.24534123026E+02  0.27510645487E+02  0.00000000000E+00 0.  1.
         12    1    6    6    0    0  0.76396487604E+02  0.61716237913E+02  0.17153863983E+02  0.99697404129E+02  0.00000000000E+00 0. -1.
         -5    1    3    3    0  503 -0.63977373838E+02 -0.89077569672E+02 -0.11347924292E+02  0.11035752429E+03  0.47000000000E+01 0.  1.
         13    1    4    4    0    0 -0.39555415729E+02  0.37346591635E+02 -0.21003814592E+02  0.58314312545E+02  0.00000000000E+00 0. -1.
        -14    1    4    4    0    0 -0.11419617753E+03 -0.26685931956E+02 -0.40354204469E+02  0.12402164225E+03  0.00000000000E+00 0.  1.
</event>
<event>
12    1  0.8356052E-002  0.2520175E+03  0.7818608E-02  0.1112332E+00
         21   -1    0    0  501  502  0.00000000000E+00  0.00000000000E+00  0.26055542163E+03  0.26055542163E+03  0.00000000000E+00 0. -1.
         21   -1    0    0  502  503 -0.00000000000E+00 -0.00000000000E+00 -0.36924319349E+03  0.36924319349E+03  0.00000000000E+00 0. -1.
         -6    2    1    2    0  503  0.13406660518E+03 -0.12568250710E+03 -0.23910661547E+03  0.34603480991E+03  0.16970023243E+03 0.  0.
        -24    2    3    3    0    0  0.15137062655E+03 -0.14060792616E+03 -0.19036582785E+03  0.29199823278E+03  0.79625147093E+02 0.  0.
          6    2    1    2  501    0 -0.13406660518E+03  0.12568250710E+03  0.13041884362E+03  0.28376380522E+03  0.17246122800E+03 0.  0.
         24    2    5    5    0    0 -0.96105778857E+02  0.49753734625E+02  0.14631241703E+03  0.19727161770E+03  0.76138117494E+02 0.  0.
          5    1    5    5  501    0 -0.37960826327E+02  0.75928772472E+02 -0.15893573412E+02  0.86492187510E+02  0.47000000000E+01 0. -1.
        -13    1    6    6    0    0 -0.39282480183E+02  0.48908211752E+02  0.11832292319E+03  0.13392326377E+03  0.00000000000E+00 0.  1.
         14    1    6    6    0    0 -0.56823298673E+02  0.84552287373E+00  0.27989493842E+02  0.63348353937E+02  0.00000000000E+00 0. -1.
         -5    1    3    3    0  503 -0.17304021371E+02  0.14925419059E+02 -0.48740787625E+02  0.54036577131E+02  0.47000000000E+01 0.  1.
         13    1    4    4    0    0  0.60256658104E+02 -0.10432276323E+03 -0.12798082569E+03  0.17576460257E+03  0.00000000000E+00 0. -1.
        -14    1    4    4    0    0  0.91113968450E+02 -0.36285162928E+02 -0.62385002159E+02  0.11623363020E+03  0.00000000000E+00 0.  1.
</event>
<event>
12    1  0.8356052E-002  0.2335554E+03  0.7818608E-02  0.1124209E+00
         21   -1    0    0  503  502  0.00000000000E+00  0.00000000000E+00  0.13005952025E+04  0.13005952025E+04  0.00000000000E+00 0.  1.
         21   -1    0    0  501  503 -0.00000000000E+00 -0.00000000000E+00 -0.55276978478E+02  0.55276978478E+02  0.00000000000E+00 0.  1.
          6    2    1    2  501    0 -0.10349259407E+03 -0.11935010223E+03  0.28878405341E+03  0.37123734403E+03  0.17165597038E+03 0.  0.
         24    2    3    3    0    0 -0.26544115892E+02 -0.59640554366E+02  0.53369984145E+02  0.11642727279E+03  0.80283054420E+02 0.  0.
         -6    2    1    2    0  502  0.10349259407E+03  0.11935010223E+03  0.95653417060E+03  0.98463483693E+03  0.17202609874E+03 0.  0.
        -24    2    5    5    0    0  0.11121538867E+03  0.44292254485E+02  0.76431485591E+03  0.77808296208E+03  0.83097716181E+02 0.  0.
          5    1    3    3  501    0 -0.76948478179E+02 -0.59709547866E+02  0.23541406926E+03  0.25481007124E+03  0.47000000000E+01 0. -1.
        -13    1    4    4    0    0 -0.35871343042E+02 -0.75827154093E+02  0.49330299067E+02  0.97313868259E+02  0.00000000000E+00 0.  1.
         14    1    4    4    0    0  0.93272271495E+01  0.16186599728E+02  0.40396850778E+01  0.19113404526E+02  0.00000000000E+00 0. -1.
         -5    1    5    5    0  502 -0.77227945951E+01  0.75057847747E+02  0.19221931469E+03  0.20655187485E+03  0.47000000000E+01 0.  1.
         11    1    6    6    0    0  0.52942486614E+02  0.21471507167E+02  0.59209506541E+03  0.59484493693E+03  0.00000000000E+00 0. -1.
        -12    1    6    6    0    0  0.58272902053E+02  0.22820747317E+02  0.17221979050E+03  0.18323802516E+03  0.00000000000E+00 0.  1.
</event>
<event>
12    1  0.8356052E-002  0.1867239E+03  0.7818608E-02  0.1163898E+00
         21   -1    0    0  503  502  0.00000000000E+00  0.00000000000E+00  0.24896853713E+03  0.24896853713E+03  0.00000000000E+00 0. -1.
         21   -1    0    0  501  503 -0.00000000000E+00 -0.00000000000E+00 -0.21031274991E+03  0.21031274991E+03  0.00000000000E+00 0. -1.
          6    2    1    2  501    0  0.36874900166E+02  0.94016549728E+01 -0.12004225426E+03  0.22198189928E+03  0.18280500929E+03 0.  0.
         24    2    3    3    0    0 -0.27502390259E+01 -0.64061874063E+02 -0.72533438942E+02  0.12582463597E+03  0.80369470125E+02 0.  0.
         -6    2    1    2    0  502 -0.36874900166E+02 -0.94016549728E+01  0.15869804149E+03  0.23729938776E+03  0.17227240545E+03 0.  0.
        -24    2    5    5    0    0  0.63491232079E+01 -0.40121813523E+02  0.25668279606E+02  0.94012780273E+02  0.80805142106E+02 0.  0.
          5    1    3    3  501    0  0.39625139191E+02  0.73463529036E+02 -0.47508815321E+02  0.96157263312E+02  0.47000000000E+01 0. -1.
        -13    1    4    4    0    0 -0.31020529503E+02 -0.21970333230E+02 -0.63956397075E+02  0.74400198385E+02  0.00000000000E+00 0.  1.
         14    1    4    4    0    0  0.28270290477E+02 -0.42091540834E+02 -0.85770418673E+01  0.51424437582E+02  0.00000000000E+00 0. -1.
         -5    1    5    5    0  502 -0.43224023373E+02  0.30720158550E+02  0.13302976188E+03  0.14328660749E+03  0.47000000000E+01 0.  1.
         13    1    6    6    0    0  0.14674620399E+00 -0.30278000355E+02  0.54819464553E+02  0.62625494280E+02  0.00000000000E+00 0. -1.
        -14    1    6    6    0    0  0.62023770039E+01 -0.98438131682E+01 -0.29151184947E+02  0.31387285993E+02  0.00000000000E+00 0.  1.
</event>
<event>
12    1  0.8356052E-002  0.2297954E+03  0.7818608E-02  0.1126947E+00
         21   -1    0    0  501  502  0.00000000000E+00  0.00000000000E+00  0.30603992360E+02  0.30603992360E+02  0.00000000000E+00 0. -1.
         21   -1    0    0  502  503 -0.00000000000E+00 -0.00000000000E+00 -0.19232041751E+04  0.19232041751E+04  0.00000000000E+00 0. -1.
         -6    2    1    2    0  503 -0.13518897817E+03 -0.68275546859E+02 -0.62591069520E+03  0.66644333909E+03  0.17159520897E+03 0.  0.
        -24    2    3    3    0    0 -0.87744199389E+02  0.26002435887E+02 -0.35647394212E+03  0.37703428779E+03  0.81890240962E+02 0.  0.
          6    2    1    2  501    0  0.13518897817E+03  0.68275546859E+02 -0.12666894875E+04  0.12873648284E+04  0.17282457390E+03 0.  0.
         24    2    5    5    0    0  0.13790038107E+03  0.36960350039E+02 -0.12198911427E+04  0.12307947980E+04  0.79616908420E+02 0.  0.
          5    1    5    5  501    0 -0.27114029012E+01  0.31315196820E+02 -0.46798344789E+02  0.56570030339E+02  0.47000000000E+01 0. -1.
        -11    1    6    6    0    0  0.23759052819E+02 -0.23373204437E+02 -0.19887275244E+03  0.20164615281E+03  0.00000000000E+00 0.  1.
         12    1    6    6    0    0  0.11414132825E+03  0.60333554475E+02 -0.10210183903E+04  0.10291486452E+04  0.00000000000E+00 0. -1.
         -5    1    3    3    0  503 -0.47444778782E+02 -0.94277982746E+02 -0.26943675308E+03  0.28940905130E+03  0.47000000000E+01 0.  1.
         13    1    4    4    0    0 -0.80965991092E+02  0.37530848250E+02 -0.18881077466E+03  0.20883860972E+03  0.00000000000E+00 0. -1.
        -14    1    4    4    0    0 -0.67782082969E+01 -0.11528412363E+02 -0.16766316746E+03  0.16819567807E+03  0.00000000000E+00 0.  1.
</event>
<event>
12    1  0.8356052E-002  0.1861270E+03  0.7818608E-02  0.1162208E+00
         21   -1    0    0  503  502  0.00000000000E+00  0.00000000000E+00  0.51088854034E+03  0.51088854034E+03  0.00000000000E+00 0.  1.
         21   -1    0    0  501  503 -0.00000000000E+00 -0.00000000000E+00 -0.33503193093E+03  0.33503193093E+03  0.00000000000E+00 0.  1.
          6    2    1    2  501    0  0.61809197319E+02  0.32873208187E+02 -0.29008247416E+03  0.34418100304E+03  0.17149838585E+03 0.  0.
         24    2    3    3    0    0 -0.53823855812E+01 -0.16983724055E+02 -0.22116393098E+03  0.23568087355E+03  0.79464286531E+02 0.  0.
         -6    2    1    2    0  502 -0.61809197319E+02 -0.32873208187E+02  0.46593908357E+03  0.50173946823E+03  0.17245938563E+03 0.  0.
        -24    2    5    5    0    0 -0.36061665201E+01 -0.74592566481E+02  0.32945326563E+03  0.34753646518E+03  0.81639971740E+02 0.  0.
          5    1    3    3  501    0  0.67191582900E+02  0.49856932242E+02 -0.68918543181E+02  0.10850012949E+03  0.47000000000E+01 0. -1.
        -13    1    4    4    0    0  0.24053279072E+02 -0.34058149745E+02 -0.77098395709E+02  0.87650900846E+02  0.00000000000E+00 0.  1.
         14    1    4    4    0    0 -0.29435664653E+02  0.17074425689E+02 -0.14406553527E+03  0.14802997270E+03  0.00000000000E+00 0. -1.
         -5    1    5    5    0  502 -0.58203030799E+02  0.41719358294E+02  0.13648581794E+03  0.15420300305E+03  0.47000000000E+01 0.  1.
         13    1    6    6    0    0 -0.35067566518E+02 -0.64953029694E+02  0.18085428597E+03  0.19533792013E+03  0.00000000000E+00 0. -1.
        -14    1    6    6    0    0  0.31461399997E+02 -0.96395367867E+01  0.14859897966E+03  0.15219854505E+03  0.00000000000E+00 0.  1.
</event>
<event>
12    1  0.8356052E-002  0.3407329E+03  0.7818608E-02  0.1066552E+00
         21   -1    0    0  503  502  0.00000000000E+00  0.00000000000E+00  0.72209286464E+02  0.72209286464E+02  0.00000000000E+00 0. -1.
         21   -1    0    0  501  503 -0.00000000000E+00 -0.00000000000E+00 -0.20122211516E+04  0.20122211516E+04  0.00000000000E+00 0.  1.
          6    2    1    2  501    0  0.25063307970E+03 -0.15348547121E+03 -0.14382401131E+04  0.14779044407E+04  0.17114959066E+03 0.  0.
         24    2    3    3    0    0  0.18227346047E+03 -0.44855526939E+02 -0.10319584265E+04  0.10518053898E+04  0.78235230117E+02 0.  0.
         -6    2    1    2    0  502 -0.25063307970E+03  0.15348547121E+03 -0.50177175210E+03  0.60652599744E+03  0.17240697156E+03 0.  0.
        -24    2    5    5    0    0 -0.23220482577E+03  0.74598870534E+02 -0.41379381649E+03  0.48683930868E+03  0.79392174169E+02 0.  0.
          5    1    3    3  501    0  0.68359619232E+02 -0.10862994427E+03 -0.40628168657E+03  0.42609905090E+03  0.47000000000E+01 0. -1.
        -11    1    4    4    0    0  0.27862766850E+02 -0.40069031840E+02 -0.26001983652E+03  0.26456034562E+03  0.00000000000E+00 0.  1.
         12    1    4    4    0    0  0.15441069362E+03 -0.47864950987E+01 -0.77193858997E+03  0.78724504414E+03  0.00000000000E+00 0. -1.
         -5    1    5    5    0  502 -0.18428253935E+02  0.78886600677E+02 -0.87977935613E+02  0.11968668875E+03  0.47000000000E+01 0.  1.
         13    1    6    6    0    0 -0.20092848828E+03  0.61761881196E+02 -0.28782601708E+03  0.35641352875E+03  0.00000000000E+00 0. -1.
        -14    1    6    6    0    0 -0.31276337491E+02  0.12836989338E+02 -0.12596779941E+03  0.13042577993E+03  0.00000000000E+00 0.  1.
</event>
<event>
12    1  0.8356052E-002  0.2452728E+03  0.7818608E-02  0.1116335E+00
         21   -1    0    0  501  502  0.00000000000E+00  0.00000000000E+00  0.44191510412E+03  0.44191510412E+03  0.00000000000E+00 0.  1.
         21   -1    0    0  502  503 -0.00000000000E+00 -0.00000000000E+00 -0.13620450546E+03  0.13620450546E+03  0.00000000000E+00 0. -1.
         -6    2    1    2    0  503 -0.46412257159E+02 -0.16795972420E+03  0.16037264543E+03  0.29304974196E+03  0.17260996291E+03 0.  0.
        -24    2    3    3    0    0 -0.65833387884E+02 -0.17089228835E+03  0.17657417091E+03  0.26715843688E+03  0.81590338770E+02 0.  0.
          6    2    1    2  501    0  0.46412257159E+02  0.16795972420E+03  0.14533795324E+03  0.28506986761E+03  0.17256054648E+03 0.  0.
         24    2    5    5    0    0  0.30590950840E+02  0.19275551147E+03  0.14423657064E+03  0.25526302539E+03  0.79148786118E+02 0.  0.
          5    1    5    5  501    0  0.15821306318E+02 -0.24795787269E+02  0.11013825953E+01  0.29806842226E+02  0.47000000000E+01 0. -1.
        -13    1    6    6    0    0  0.36885080785E+02  0.18896993096E+03  0.11315478600E+03  0.22332521037E+03  0.00000000000E+00 0.  1.
         14    1    6    6    0    0 -0.62941299448E+01  0.37855805105E+01  0.31081784645E+02  0.31937815020E+02  0.00000000000E+00 0. -1.
         -5    1    3    3    0  503  0.19421130725E+02  0.29325641528E+01 -0.16201525484E+02  0.25891305088E+02  0.47000000000E+01 0.  1.
         13    1    4    4    0    0 -0.37903429899E+02 -0.47500071217E+02  0.16203245508E+02  0.62892542712E+02  0.00000000000E+00 0. -1.
        -14    1    4    4    0    0 -0.27929957984E+02 -0.12339221714E+03  0.16037092541E+03  0.20426589416E+03  0.00000000000E+00 0.  1.
</event>
<event>
12    1  0.8356052E-002  0.2033948E+03  0.7818608E-02  0.1147280E+00
         21   -1    0    0  501  502  0.00000000000E+00  0.00000000000E+00  0.41503429304E+03  0.41503429304E+03  0.00000000000E+00 0. -1.
         21   -1    0    0  502  503 -0.00000000000E+00 -0.00000000000E+00 -0.13351497722E+03  0.13351497722E+03  0.00000000000E+00 0.  1.
         -6    2    1    2    0  503 -0.43472180209E+02  0.94219264158E+02  0.43309373243E+00  0.20159261491E+03  0.17283603394E+03 0.  0.
        -24    2    3    3    0    0 -0.52948390645E+02  0.12676505364E+03 -0.17441894589E+02  0.16298390884E+03  0.85945470825E+02 0.  0.
          6    2    1    2  501    0  0.43472180209E+02 -0.94219264158E+02  0.28108622209E+03  0.34695665535E+03  0.17493529162E+03 0.  0.
         24    2    5    5    0    0 -0.42515848978E+02 -0.68127651679E+02  0.15542576093E+03  0.19240130959E+03  0.80075729365E+02 0.  0.
          5    1    5    5  501    0  0.85988029187E+02 -0.26091612480E+02  0.12566046116E+03  0.15455534576E+03  0.47000000000E+01 0. -1.
        -13    1    6    6    0    0 -0.27710328624E+02 -0.12618406450E+02  0.43327167897E+01  0.30754819599E+02  0.00000000000E+00 0.  1.
         14    1    6    6    0    0 -0.14805520354E+02 -0.55509245229E+02  0.15109304414E+03  0.16164648999E+03  0.00000000000E+00 0. -1.
         -5    1    3    3    0  503  0.94762104359E+01 -0.32545789486E+02  0.17874988321E+02  0.38608706077E+02  0.47000000000E+01 0.  1.
         11    1    4    4    0    0 -0.44832528998E+02  0.44939255795E+02  0.27610803547E+02  0.69223181379E+02  0.00000000000E+00 0. -1.
        -12    1    4    4    0    0 -0.81158616467E+01  0.81825797849E+02 -0.45052698136E+02  0.93760727457E+02  0.00000000000E+00 0.  1.
</event>
<event>
12    1  0.8356052E-002  0.1938514E+03  0.7818608E-02  0.1159439E+00
         21   -1    0    0  503  502  0.00000000000E+00  0.00000000000E+00  0.16844279444E+03  0.16844279444E+03  0.00000000000E+00 0.  1.
         21   -1    0    0  501  503 -0.00000000000E+00 -0.00000000000E+00 -0.33629397215E+03  0.33629397215E+03  0.00000000000E+00 0.  1.
          6    2    1    2  501    0  0.84139232714E+01  0.20549122346E+02 -0.24081534361E+03  0.29760842008E+03  0.17345224544E+03 0.  0.
         24    2    3    3    0    0  0.67977625171E+02 -0.12014208294E+02 -0.13996422176E+03  0.17594805732E+03  0.81255380002E+02 0.  0.
         -6    2    1    2    0  502 -0.84139232714E+01 -0.20549122346E+02  0.72964165904E+02  0.20712834651E+03  0.19257549660E+03 0.  0.
        -24    2    5    5    0    0 -0.77996388805E+02  0.16297128559E+02  0.58859875456E+02  0.12700103079E+03  0.79471654181E+02 0.  0.
          5    1    3    3  501    0 -0.59563701900E+02  0.32563330639E+02 -0.10085112185E+03  0.12166036275E+03  0.47000000000E+01 0. -1.
        -11    1    4    4    0    0 -0.59857710016E+01 -0.28509577480E+02 -0.25750759802E+02  0.38880934826E+02  0.00000000000E+00 0.  1.
         12    1    4    4    0    0  0.73963396173E+02  0.16495369187E+02 -0.11421346196E+03  0.13706712250E+03  0.00000000000E+00 0. -1.
         -5    1    5    5    0  502  0.69582465533E+02 -0.36846250905E+02  0.14104290448E+02  0.80127315720E+02  0.47000000000E+01 0.  1.
         13    1    6    6    0    0 -0.14537019086E+02 -0.26281417640E+02  0.36720294742E+02  0.47438569572E+02  0.00000000000E+00 0. -1.
        -14    1    6    6    0    0 -0.63459369719E+02  0.42578546199E+02  0.22139580714E+02  0.79562461222E+02  0.00000000000E+00 0.  1.
</event>
<event>
12    1  0.8356052E-002  0.1916550E+03  0.7818608E-02  0.1157254E+00
         21   -1    0    0  501  502  0.00000000000E+00  0.00000000000E+00  0.70328409773E+02  0.70328409773E+02  0.00000000000E+00 0. -1.
         21   -1    0    0  502  503 -0.00000000000E+00 -0.00000000000E+00 -0.17311343935E+04  0.17311343935E+04  0.00000000000E+00 0.  1.
         -6    2    1    2    0  503  0.30579792720E+02 -0.76890478910E+02 -0.15833324461E+04  0.15947412761E+04  0.17149586972E+03 0.  0.
        -24    2    3    3    0    0  0.85457932896E+02 -0.64646895313E+02 -0.11358536879E+04  0.11437192759E+04  0.80298831890E+02 0.  0.
          6    2    1    2  501    0 -0.30579792720E+02  0.76890478910E+02 -0.77473537675E+02  0.20672152723E+03  0.17287096723E+03 0.  0.
         24    2    5    5    0    0 -0.85032546639E+02  0.35458270470E+02 -0.38458754962E+02  0.12781668849E+03  0.79813577114E+02 0.  0.
          5    1    5    5  501    0  0.54452753919E+02  0.41432208440E+02 -0.39014782713E+02  0.78904838734E+02  0.47000000000E+01 0. -1.
        -11    1    6    6    0    0 -0.44862205810E+02  0.55332260018E+02 -0.41141119397E+01  0.71352662360E+02  0.00000000000E+00 0.  1.
         12    1    6    6    0    0 -0.40170340829E+02 -0.19873989548E+02 -0.34344643022E+02  0.56464026133E+02  0.00000000000E+00 0. -1.
         -5    1    3    3    0  503 -0.54878140176E+02 -0.12243583596E+02 -0.44747875817E+03  0.45102200015E+03  0.47000000000E+01 0.  1.
         11    1    4    4    0    0  0.67812032011E+02 -0.12305969534E+01 -0.61164568040E+03  0.61539452744E+03  0.00000000000E+00 0. -1.
        -12    1    4    4    0    0  0.17645900885E+02 -0.63416298360E+02 -0.52420800752E+03  0.52832474849E+03  0.00000000000E+00 0.  1.
</event>
<event>
12    1  0.8356052E-002  0.2207532E+03  0.7818608E-02  0.1133462E+00
         21   -1    0    0  501  502  0.00000000000E+00  0.00000000000E+00  0.23610807473E+03  0.23610807473E+03  0.00000000000E+00 0.  1.
         21   -1    0    0  502  503 -0.00000000000E+00 -0.00000000000E+00 -0.23990099450E+03  0.23990099450E+03  0.00000000000E+00 0.  1.
         -6    2    1    2    0  503 -0.78206149376E+02  0.11351084016E+03 -0.91764952789E+02  0.23906643752E+03  0.17242691888E+03 0.  0.
        -24    2    3    3    0    0  0.15198838598E+02  0.72270247039E+02 -0.76475499905E+00  0.10221467722E+03  0.70663017815E+02 0.  0.
          6    2    1    2  501    0  0.78206149376E+02 -0.11351084016E+03  0.87972033018E+02  0.23694263171E+03  0.17146958767E+03 0.  0.
         24    2    5    5    0    0  0.93898945450E+02 -0.14129890533E+03  0.69202014514E+02  0.19962180631E+03  0.79231017516E+02 0.  0.
          5    1    5    5  501    0 -0.15692796074E+02  0.27788065169E+02  0.18770018504E+02  0.37320825408E+02  0.47000000000E+01 0. -1.
        -13    1    6    6    0    0  0.40029485530E+02 -0.24535886327E+02  0.51713716858E+02  0.69847533535E+02  0.00000000000E+00 0.  1.
         14    1    6    6    0    0  0.53869459920E+02 -0.11676301900E+03  0.17488297656E+02  0.12977427277E+03  0.00000000000E+00 0. -1.
         -5    1    3    3    0  503 -0.93404987973E+02  0.41240593120E+02 -0.91000197790E+02  0.13685176030E+03  0.47000000000E+01 0.  1.
         13    1    4    4    0    0  0.32828386630E+02  0.17543611697E+02 -0.19138526156E+02  0.41854085386E+02  0.00000000000E+00 0. -1.
        -14    1    4    4    0    0 -0.17629548032E+02  0.54726635342E+02  0.18373771157E+02  0.60360591831E+02  0.00000000000E+00 0.  1.
</event>
<event>
12    1  0.8356052E-002  0.1822712E+03  0.7818608E-02  0.1167270E+00
         21   -1    0    0  501  502  0.00000000000E+00  0.00000000000E+00  0.18806400742E+04  0.18806400742E+04  0.00000000000E+00 0. -1.
         21   -1    0    0  502  503 -0.00000000000E+00 -0.00000000000E+00 -0.91789318386E+02  0.91789318386E+02  0.00000000000E+00 0. -1.
         -6    2    1    2    0  503 -0.41314950396E+02  0.76566725904E+01  0.11841182331E+01  0.17549456263E+03  0.17038600181E+03 0.  0.
        -24    2    3    3    0    0 -0.51046093561E+02 -0.61745218506E+02 -0.68838961797E+01  0.10479448843E+03  0.67203579533E+02 0.  0.
          6    2    1    2  501    0  0.41314950396E+02 -0.76566725904E+01  0.17876666376E+04  0.17969348300E+04  0.17736185114E+03 0.  0.
         24    2    5    5    0    0 -0.42599250849E+02 -0.20311245385E+02  0.73205014876E+03  0.73790225593E+03  0.79844073955E+02 0.  0.
          5    1    5    5  501    0  0.83914201245E+02  0.12654572795E+02  0.10556164889E+04  0.10590325741E+04  0.47000000000E+01 0. -1.
        -11    1    6    6    0    0 -0.22278488340E+02  0.30555628909E+02  0.27804259273E+03  0.28060231801E+03  0.00000000000E+00 0.  1.
         12    1    6    6    0    0 -0.20320762508E+02 -0.50866874294E+02  0.45400755603E+03  0.45729993792E+03  0.00000000000E+00 0. -1.
         -5    1    3    3    0  503  0.97311431648E+01  0.69401891097E+02  0.80680144128E+01  0.70700074198E+02  0.47000000000E+01 0.  1.
         11    1    4    4    0    0  0.33026325753E+01 -0.42874862564E+02  0.11292620574E+02  0.44459920167E+02  0.00000000000E+00 0. -1.
        -12    1    4    4    0    0 -0.54348726136E+02 -0.18870355942E+02 -0.18176516753E+02  0.60334568261E+02  0.00000000000E+00 0.  1.
</event>
<event>
12    1  0.8356052E-002  0.3340329E+03  0.7818608E-02  0.1069468E+00
         21   -1    0    0  501  502  0.00000000000E+00  0.00000000000E+00  0.17741386723E+04  0.17741386723E+04  0.00000000000E+00 0. -1.
         21   -1    0    0  502  503 -0.00000000000E+00 -0.00000000000E+00 -0.48829039436E+03  0.48829039436E+03  0.00000000000E+00 0.  1.
         -6    2    1    2    0  503 -0.21142837446E+03  0.19263486168E+03 -0.41326390152E+03  0.53079394886E+03  0.17071911546E+03 0.  0.
        -24    2    3    3    0    0 -0.78770556783E+02  0.16025873739E+03 -0.27014654190E+03  0.33292788649E+03  0.77292690286E+02 0.  0.
          6    2    1    2  501    0  0.21142837446E+03 -0.19263486168E+03  0.16991121795E+04  0.17316351178E+04  0.17253357737E+03 0.  0.
         24    2    5    5    0    0  0.49143978425E+02 -0.10435028138E+03  0.94466661121E+03  0.95488509509E+03  0.78143628343E+02 0.  0.
          5    1    5    5  501    0  0.16228439604E+03 -0.88284580305E+02  0.75444556826E+03  0.77675002272E+03  0.47000000000E+01 0. -1.
        -11    1    6    6    0    0  0.64554812109E+02 -0.10091362467E+03  0.88856401091E+03  0.89660296949E+03  0.00000000000E+00 0.  1.
         12    1    6    6    0    0 -0.15410833684E+02 -0.34366567044E+01  0.56102600292E+02  0.58282125593E+02  0.00000000000E+00 0. -1.
         -5    1    3    3    0  503 -0.13265781768E+03  0.32376124288E+02 -0.14311735962E+03  0.19786606237E+03  0.47000000000E+01 0.  1.
         11    1    4    4    0    0 -0.12560951443E+02 -0.36784830101E+01 -0.43800693932E+02  0.45714434563E+02  0.00000000000E+00 0. -1.
        -12    1    4    4    0    0 -0.66209605339E+02  0.16393722040E+03 -0.22634584797E+03  0.28721345192E+03  0.00000000000E+00 0.  1.
</event>
<event>
12    1  0.8356052E-002  0.2035927E+03  0.7818608E-02  0.1147010E+00
         21   -1    0    0  501  502  0.00000000000E+00  0.00000000000E+00  0.41541079247E+03  0.41541079247E+03  0.00000000000E+00 0. -1.
         21   -1    0    0  502  503 -0.00000000000E+00 -0.00000000000E+00 -0.35476732721E+03  0.35476732721E+03  0.00000000000E+00 0. -1.
         -6    2    1    2    0  503 -0.10784707496E+03  0.16135470512E+02 -0.29658361189E+03  0.35900761744E+03  0.17039156536E+03 0.  0.
        -24    2    3    3    0    0 -0.56444592273E+01  0.40024458987E+02 -0.18416999473E+03  0.20514089018E+03  0.80810770490E+02 0.  0.
          6    2    1    2  501    0  0.10784707496E+03 -0.16135470512E+02  0.35722707715E+03  0.41117050224E+03  0.17192629897E+03 0.  0.
         24    2    5    5    0    0  0.81915149665E+02 -0.74569460321E+02  0.27366459608E+03  0.30585301007E+03  0.79894032721E+02 0.  0.
          5    1    5    5  501    0  0.25931925299E+02  0.58433989809E+02  0.83562481069E+02  0.10531749217E+03  0.47000000000E+01 0. -1.
        -13    1    6    6    0    0  0.28289109919E+01  0.13383767649E+02  0.60934242316E+02  0.62450859566E+02  0.00000000000E+00 0.  1.
         14    1    6    6    0    0  0.79086238674E+02 -0.87953227970E+02  0.21273035376E+03  0.24340215051E+03  0.00000000000E+00 0. -1.
         -5    1    3    3    0  503 -0.10220261574E+03 -0.23888988475E+02 -0.11241361717E+03  0.15386672726E+03  0.47000000000E+01 0.  1.
         11    1    4    4    0    0 -0.36780287546E+02  0.17797744658E+02 -0.44884157187E+02  0.60697090814E+02  0.00000000000E+00 0. -1.
        -12    1    4    4    0    0  0.31135828318E+02  0.22226714329E+02 -0.13928583754E+03  0.14444379936E+03  0.00000000000E+00 0.  1.
</event>
<event>
12    1  0.8356052E-002  0.1725173E+03  0.7818608E-02  0.1176096E+00
         21   -1    0    0  501  502  0.00000000000E+00  0.00000000000E+00  0.18789310547E+03  0.18789310547E+03  0.00000000000E+00 0.  1.
         21   -1    0    0  502  503 -0.00000000000E+00 -0.00000000000E+00 -0.46858428583E+03  0.46858428583E+03  0.00000000000E+00 0.  1.
         -6    2    1    2    0  503  0.13060333188E+02 -0.97576415555E+01 -0.40913527958E+03  0.44402013580E+03  0.17174521864E+03 0.  0.
        -24    2    3    3    0    0  0.65466821453E+02  0.77402968609E+01 -0.33867016238E+03  0.35435386230E+03  0.80767344485E+02 0.  0.
          6    2    1    2  501    0 -0.13060333188E+02  0.97576415555E+01  0.12844409922E+03  0.21245725551E+03  0.16844706861E+03 0.  0.
         24    2    5    5    0    0 -0.35511025467E+02 -0.49386168056E+02  0.10435335284E+03  0.14460095248E+03  0.79497086022E+02 0.  0.
          5    1    5    5  501    0  0.22450692279E+02  0.59143809612E+02  0.24090746381E+02  0.67856303026E+02  0.47000000000E+01 0. -1.
        -11    1    6    6    0    0  0.16436364511E+02 -0.14952733203E+02  0.69988650867E+02  0.73431257369E+02  0.00000000000E+00 0.  1.
         12    1    6    6    0    0 -0.51947389978E+02 -0.34433434854E+02  0.34364701968E+02  0.71169695114E+02  0.00000000000E+00 0. -1.
         -5    1    3    3    0  503 -0.52406488264E+02 -0.17497938416E+02 -0.70465117202E+02  0.89666273500E+02  0.47000000000E+01 0.  1.
         11    1    4    4    0    0 -0.49969496072E+01  0.17233140544E+02 -0.16317318104E+02  0.24252948450E+02  0.00000000000E+00 0. -1.
        -12    1    4    4    0    0  0.70463771060E+02 -0.94928436835E+01 -0.32235284427E+03  0.33010091385E+03  0.00000000000E+00 0.  1.
</event>
<event>
12    1  0.8356052E-002  0.1827528E+03  0.7818608E-02  0.1166341E+00
         21   -1    0    0  503  502  0.00000000000E+00  0.00000000000E+00  0.24942061904E+03  0.24942061904E+03  0.00000000000E+00 0.  1.
         21   -1    0    0  501  503 -0.00000000000E+00 -0.00000000000E+00 -0.19670420298E+03  0.19670420298E+03  0.00000000000E+00 0.  1.
          6    2    1    2  501    0  0.30811601943E+02 -0.30323447119E+02 -0.10342738084E+03  0.20575124562E+03  0.17253256419E+03 0.  0.
         24    2    3    3    0    0  0.62809188432E+02 -0.67265339816E+02 -0.54845755438E+02  0.13668017133E+03  0.84875156861E+02 0.  0.
         -6    2    1    2    0  502 -0.30811601943E+02  0.30323447119E+02  0.15614379690E+03  0.24037357641E+03  0.17756605719E+03 0.  0.
        -24    2    5    5    0    0 -0.33584374062E+02 -0.46471863866E+02  0.11930866467E+03  0.15502649081E+03  0.80691456014E+02 0.  0.
          5    1    3    3  501    0 -0.31997586489E+02  0.36941892697E+02 -0.48581625401E+02  0.69071074292E+02  0.47000000000E+01 0. -1.
        -11    1    4    4    0    0  0.41235935258E+02 -0.12751773755E+00 -0.51646120492E+02  0.66088882418E+02  0.00000000000E+00 0.  1.
         12    1    4    4    0    0  0.21573253174E+02 -0.67137822079E+02 -0.31996349460E+01  0.70591288909E+02  0.00000000000E+00 0. -1.
         -5    1    5    5    0  502  0.27727721191E+01  0.76795310985E+02  0.36835132224E+02  0.85347085600E+02  0.47000000000E+01 0.  1.
         11    1    6    6    0    0 -0.73207395837E+01 -0.26612621886E+02 -0.35532367944E+01  0.27828948299E+02  0.00000000000E+00 0. -1.
        -12    1    6    6    0    0 -0.26263634478E+02 -0.19859241980E+02  0.12286190147E+03  0.12719754251E+03  0.00000000000E+00 0.  1.
</event>
<event>
12    1  0.8356052E-002  0.2475287E+03  0.7818608E-02  0.1115704E+00
         21   -1    0    0  503  502  0.00000000000E+00  0.00000000000E+00  0.12746817299E+03  0.12746817299E+03  0.00000000000E+00 0. -1.
         21   -1    0    0  501  503 -0.00000000000E+00 -0.00000000000E+00 -0.10153088094E+04  0.10153088094E+04  0.00000000000E+00 0. -1.
          6    2    1    2  501    0  0.13675649346E+03  0.11098708731E+03 -0.86020427472E+03  0.89371024705E+03  0.16657172442E+03 0.  0.
         24    2    3    3    0    0  0.11251887887E+03  0.10215761999E+02 -0.46331521939E+03  0.48348429198E+03  0.79568889541E+02 0.  0.
         -6    2    1    2    0  502 -0.13675649346E+03 -0.11098708731E+03 -0.27636361715E+02  0.24906673537E+03  0.17392526592E+03 0.  0.
        -24    2    5    5    0    0 -0.14968885841E+03 -0.13585713601E+03 -0.14073501609E+02  0.21757377490E+03  0.79223533997E+02 0.  0.
          5    1    3    3  501    0  0.24237614598E+02  0.10077132531E+03 -0.39688905533E+03  0.41022595507E+03  0.47000000000E+01 0. -1.
        -11    1    4    4    0    0  0.12220395022E+03  0.20558432888E+02 -0.40998334099E+03  0.42830222333E+03  0.00000000000E+00 0.  1.
         12    1    4    4    0    0 -0.96850713556E+01 -0.10342670889E+02 -0.53331878393E+02  0.55182068657E+02  0.00000000000E+00 0. -1.
         -5    1    5    5    0  502  0.12932364948E+02  0.24870048696E+02 -0.13562860106E+02  0.31492960476E+02  0.47000000000E+01 0.  1.
         11    1    6    6    0    0 -0.29501278808E+02 -0.68791441140E+02  0.16356851289E+02  0.76616802397E+02  0.00000000000E+00 0. -1.
        -12    1    6    6    0    0 -0.12018757960E+03 -0.67065694868E+02 -0.30430352897E+02  0.14095697250E+03  0.00000000000E+00 0.  1.
</event>
<event>
12    1  0.8356052E-002  0.1850788E+03  0.7818608E-02  0.1163055E+00
         21   -1    0    0  501  502  0.00000000000E+00  0.00000000000E+00  0.12788641960E+03  0.12788641960E+03  0.00000000000E+00 0.  1.
         21   -1    0    0  502  503 -0.00000000000E+00 -0.00000000000E+00 -0.59424446390E+03  0.59424446390E+03  0.00000000000E+00 0.  1.
         -6    2    1    2    0  503  0.61556729615E+02 -0.27685549917E+02 -0.50087651116E+03  0.53386065121E+03  0.17197149428E+03 0.  0.
        -24    2    3    3    0    0 -0.22155680008E+02  0.74293810790E+01 -0.14111363901E+03  0.16279160092E+03  0.77730150886E+02 0.  0.
          6    2    1    2  501    0 -0.61556729615E+02  0.27685549917E+02  0.34518466860E+02  0.18827023228E+03  0.17233233932E+03 0.  0.
         24    2    5    5    0    0 -0.92034742103E+02  0.61473181576E+02  0.55631573504E+02  0.13788802739E+03  0.60571365500E+02 0.  0.
          5    1    5    5  501    0  0.30478012488E+02 -0.33787631659E+02 -0.21113106644E+02  0.50382204899E+02  0.47000000000E+01 0. -1.
        -11    1    6    6    0    0 -0.58849242364E+02  0.46224165404E+01  0.36225006057E+02  0.69259303529E+02  0.00000000000E+00 0.  1.
         12    1    6    6    0    0 -0.33185499739E+02  0.56850765035E+02  0.19406567447E+02  0.68628723856E+02  0.00000000000E+00 0. -1.
         -5    1    3    3    0  503  0.83712409623E+02 -0.35114930996E+02 -0.35976287215E+03  0.37106905028E+03  0.47000000000E+01 0.  1.
         11    1    4    4    0    0 -0.46794636937E+02 -0.87360862822E+00 -0.51992160988E+02  0.69954885764E+02  0.00000000000E+00 0. -1.
        -12    1    4    4    0    0  0.24638956929E+02  0.83029897072E+01 -0.89121478023E+02  0.92836715160E+02  0.00000000000E+00 0.  1.
</event>
<event>
12    1  0.8356052E-002  0.2013321E+03  0.7818608E-02  0.1148637E+00
         21   -1    0    0  503  502  0.00000000000E+00  0.00000000000E+00  0.34358383090E+03  0.34358383090E+03  0.00000000000E+00 0. -1.
         21   -1    0    0  501  503 -0.00000000000E+00 -0.00000000000E+00 -0.41059541981E+03  0.41059541981E+03  0.00000000000E+00 0. -1.
          6    2    1    2  501    0  0.57983426829E+02  0.86477994237E+02 -0.35187238420E+03  0.40539952342E+03  0.17231969577E+03 0.  0.
         24    2    3    3    0    0  0.69157936224E+02  0.59965926611E+02 -0.11470500198E+03  0.16644719223E+03  0.78541058215E+02 0.  0.
         -6    2    1    2    0  502 -0.57983426829E+02 -0.86477994237E+02  0.28486079529E+03  0.34877972729E+03  0.17222399427E+03 0.  0.
        -24    2    5    5    0    0 -0.61190765557E+02 -0.16464542388E+02  0.24200719252E+03  0.26649551415E+03  0.91853072276E+02 0.  0.
          5    1    3    3  501    0 -0.11174509396E+02  0.26512067626E+02 -0.23716738223E+03  0.23895233119E+03  0.47000000000E+01 0. -1.
        -13    1    4    4    0    0  0.11006532767E+01 -0.14867146267E+02 -0.20568133613E+01  0.15049051696E+02  0.00000000000E+00 0.  1.
         14    1    4    4    0    0  0.68057282948E+02  0.74833072878E+02 -0.11264818862E+03  0.15139814053E+03  0.00000000000E+00 0. -1.
         -5    1    5    5    0  502  0.32073387284E+01 -0.70013451849E+02  0.42853602766E+02  0.82284213137E+02  0.47000000000E+01 0.  1.
         13    1    6    6    0    0  0.89250858571E+01 -0.20218031222E+02  0.14538093449E+03  0.14705115456E+03  0.00000000000E+00 0. -1.
        -14    1    6    6    0    0 -0.70115851414E+02  0.37534888338E+01  0.96626258033E+02  0.11944435960E+03  0.00000000000E+00 0.  1.
</event>
<event>
12    1  0.8356052E-002  0.1928915E+03  0.7818608E-02  0.1156035E+00
         21   -1    0    0  503  502  0.00000000000E+00  0.00000000000E+00  0.36046761503E+03  0.36046761503E+03  0.00000000000E+00 0.  1.
         21   -1    0    0  501  503 -0.00000000000E+00 -0.00000000000E+00 -0.11260577043E+03  0.11260577043E+03  0.00000000000E+00 0.  1.
          6    2    1    2  501    0  0.11755257450E+02  0.87644297684E+02  0.54075300503E+02  0.19964998384E+03  0.17063489951E+03 0.  0.
         24    2    3    3    0    0  0.93335700068E+00 -0.45883190289E+01 -0.19020710984E+02  0.81374517199E+02  0.78981648351E+02 0.  0.
         -6    2    1    2    0  502 -0.11755257450E+02 -0.87644297684E+02  0.19378654409E+03  0.27342340162E+03  0.17142760246E+03 0.  0.
        -24    2    5    5    0    0  0.25484147330E+02 -0.45833845207E+02  0.28057802687E+02  0.98429136191E+02  0.78427491532E+02 0.  0.
          5    1    3    3  501    0  0.10821900449E+02  0.92232616713E+02  0.73096011487E+02  0.11827546665E+03  0.47000000000E+01 0. -1.
        -11    1    4    4    0    0 -0.37748366731E+02  0.69382058954E+01 -0.53070319537E+01  0.38745870490E+02  0.00000000000E+00 0.  1.
         12    1    4    4    0    0  0.38681723731E+02 -0.11526524924E+02 -0.13713679030E+02  0.42628646709E+02  0.00000000000E+00 0. -1.
         -5    1    5    5    0  502 -0.37239404780E+02 -0.41810452478E+02  0.16572874140E+03  0.17499426543E+03  0.47000000000E+01 0.  1.
         11    1    6    6    0    0 -0.19060599567E+02 -0.20218303844E+02 -0.14831708345E+02  0.31497076668E+02  0.00000000000E+00 0. -1.
        -12    1    6    6    0    0  0.44544746897E+02 -0.25615541362E+02  0.42889511032E+02  0.66932059523E+02  0.00000000000E+00 0.  1.
</event>
<event>
12    1  0.8356052E-002  0.2225665E+03  0.7818608E-02  0.1132210E+00
         21   -1    0    0  501  502  0.00000000000E+00  0.00000000000E+00  0.14334268904E+03  0.14334268904E+03  0.00000000000E+00 0.  1.
         21   -1    0    0  502  503 -0.00000000000E+00 -0.00000000000E+00 -0.35495249078E+03  0.35495249078E+03  0.00000000000E+00 0.  1.
         -6    2    1    2    0  503 -0.12076748204E+03  0.71594337189E+02 -0.15050071246E+03  0.26867506678E+03  0.17270000933E+03 0.  0.
        -24    2    3    3    0    0 -0.43233115109E+02  0.95774125875E+02 -0.54926024736E+02  0.14316470398E+03  0.80233900836E+02 0.  0.
          6    2    1    2  501    0  0.12076748204E+03 -0.71594337189E+02 -0.61109089278E+02  0.22962011305E+03  0.17111557991E+03 0.  0.
         24    2    5    5    0    0 -0.15692345665E+02 -0.26660673519E+02 -0.19240024202E+02  0.79902287396E+02  0.71113682051E+02 0.  0.
          5    1    5    5  501    0  0.13645982770E+03 -0.44933663671E+02 -0.41869065076E+02  0.14971782565E+03  0.47000000000E+01 0. -1.
        -13    1    6    6    0    0  0.21903414059E+02 -0.13287025953E+02  0.12883124826E+02  0.28675416499E+02  0.00000000000E+00 0.  1.
         14    1    6    6    0    0 -0.37595759724E+02 -0.13373647566E+02 -0.32123149028E+02  0.51226870897E+02  0.00000000000E+00 0. -1.
         -5    1    3    3    0  503 -0.77534366929E+02 -0.24179788685E+02 -0.95574687725E+02  0.12551036280E+03  0.47000000000E+01 0.  1.
         11    1    4    4    0    0 -0.37558644002E+01  0.32939705425E+02  0.19172006080E+02  0.38297474172E+02  0.00000000000E+00 0. -1.
        -12    1    4    4    0    0 -0.39477250708E+02  0.62834420450E+02 -0.74098030816E+02  0.10486722981E+03  0.00000000000E+00 0.  1.
</event>
<event>
12    1  0.8356052E-002  0.2333969E+03  0.7818608E-02  0.1124393E+00
         21   -1    0    0  503  502  0.00000000000E+00  0.00000000000E+00  0.78729263094E+02  0.78729263094E+02  0.00000000000E+00 0. -1.
         21   -1    0    0  501  503 -0.00000000000E+00 -0.00000000000E+00 -0.76999897795E+03  0.76999897795E+03  0.00000000000E+00 0.  1.
          6    2    1    2  501    0 -0.15722266577E+03  0.13746773771E+02 -0.48209246549E+03  0.53531283470E+03  0.17099340715E+03 0.  0.
         24    2    3    3    0    0 -0.14793645285E+03 -0.39273434679E+02 -0.32388644524E+03  0.36813445363E+03  0.84811259761E+02 0.  0.
         -6    2    1    2    0  502  0.15722266577E+03 -0.13746773771E+02 -0.20917724936E+03  0.31341540634E+03  0.17194811678E+03 0.  0.
        -24    2    5    5    0    0  0.73203531117E+02 -0.64332245987E+00 -0.27343349262E+02  0.11262553447E+03  0.81102906440E+02 0.  0.
          5    1    3    3  501    0 -0.92862129162E+01  0.53020208450E+02 -0.15820602025E+03  0.16717838107E+03  0.47000000000E+01 0. -1.
        -11    1    4    4    0    0  0.83570959631E+01 -0.40453982692E+01 -0.49788787515E+02  0.50647109121E+02  0.00000000000E+00 0.  1.
         12    1    4    4    0    0 -0.15629354881E+03 -0.35228036410E+02 -0.27409765773E+03  0.31748734451E+03  0.00000000000E+00 0. -1.
         -5    1    5    5    0  502  0.84019134649E+02 -0.13103451311E+02 -0.18183390010E+03  0.20078987188E+03  0.47000000000E+01 0.  1.
         13    1    6    6    0    0  0.75683581305E+02  0.16890601027E+02 -0.43276691986E+02  0.88804104362E+02  0.00000000000E+00 0. -1.
        -14    1    6    6    0    0 -0.24800501885E+01 -0.17533923487E+02  0.15933342725E+02  0.23821430103E+02  0.00000000000E+00 0.  1.
</event>
<event>
12    1  0.8356052E-002  0.2265559E+03  0.7818608E-02  0.1130362E+00
         21   -1    0    0  501  502  0.00000000000E+00  0.00000000000E+00  0.12331398396E+03  0.12331398396E+03  0.00000000000E+00 0.  1.
         21   -1    0    0  502  503 -0.00000000000E+00 -0.00000000000E+00 -0.45215519100E+03  0.45215519100E+03  0.00000000000E+00 0.  1.
         -6    2    1    2    0  503 -0.14549165196E+03 -0.24685976065E+02 -0.26108817812E+03  0.34567994515E+03  0.17190220917E+03 0.  0.
        -24    2    3    3    0    0 -0.89523512117E+02 -0.81710225783E+02 -0.18808001502E+03  0.23734491105E+03  0.79167509318E+02 0.  0.
          6    2    1    2  501    0  0.14549165196E+03  0.24685976065E+02 -0.67753028912E+02  0.22978922981E+03  0.16258966451E+03 0.  0.
         24    2    5    5    0    0  0.20832022329E+02  0.33473607270E+02 -0.50549611717E+02  0.10355415828E+03  0.81324934147E+02 0.  0.
          5    1    5    5  501    0  0.12465962963E+03 -0.87876312049E+01 -0.17203417195E+02  0.12623507153E+03  0.47000000000E+01 0. -1.
        -11    1    6    6    0    0  0.44627315410E+02  0.31556738976E+01 -0.46938968449E+02  0.64844601299E+02  0.00000000000E+00 0.  1.
         12    1    6    6    0    0 -0.23795293081E+02  0.30317933372E+02 -0.36106432676E+01  0.38709556980E+02  0.00000000000E+00 0. -1.
         -5    1    3    3    0  503 -0.55968139841E+02  0.57024249718E+02 -0.73008163099E+02  0.10833503409E+03  0.47000000000E+01 0.  1.
         11    1    4    4    0    0  0.95027833014E+01  0.63405292809E+01 -0.22817597750E+02  0.25517601163E+02  0.00000000000E+00 0. -1.
        -12    1    4    4    0    0 -0.99026295419E+02 -0.88050755064E+02 -0.16526241727E+03  0.21182730989E+03  0.00000000000E+00 0.  1.
</event>
<event>
12    1  0.8356052E-002  0.1821938E+03  0.7818608E-02  0.1166658E+00
         21   -1    0    0  501  502  0.00000000000E+00  0.00000000000E+00  0.40274238407E+03  0.40274238407E+03  0.00000000000E+00 0. -1.
         21   -1    0    0  502  503 -0.00000000000E+00 -0.00000000000E+00 -0.94393969439E+02  0.94393969439E+02  0.00000000000E+00 0.  1.
         -6    2    1    2    0  503 -0.28292271714E+02  0.56334795745E+02  0.57793365625E+02  0.18734219346E+03  0.16668222008E+03 0.  0.
        -24    2    3    3    0    0  0.45831718403E+02  0.43328994343E+02  0.45416367709E+02  0.11093017308E+03  0.79151176120E+02 0.  0.
          6    2    1    2  501    0  0.28292271714E+02 -0.56334795745E+02  0.25055504901E+03  0.30979416005E+03  0.17094012744E+03 0.  0.
         24    2    5    5    0    0 -0.48093615835E+02 -0.10589470711E+02  0.12922539379E+03  0.15922718554E+03  0.78923769803E+02 0.  0.
          5    1    5    5  501    0  0.76385887548E+02 -0.45745325034E+02  0.12132965521E+03  0.15056697451E+03  0.47000000000E+01 0. -1.
        -13    1    6    6    0    0 -0.24012406836E+02 -0.44909743883E+02  0.65991215555E+02  0.83356591270E+02  0.00000000000E+00 0.  1.
         14    1    6    6    0    0 -0.24081208999E+02  0.34320273172E+02  0.63234178239E+02  0.75870594271E+02  0.00000000000E+00 0. -1.
         -5    1    3    3    0  503 -0.74123990117E+02  0.13005801402E+02  0.12376997916E+02  0.76412020379E+02  0.47000000000E+01 0.  1.
         11    1    4    4    0    0  0.41834754175E+02 -0.13375678708E+02  0.14693279822E+02  0.46313582346E+02  0.00000000000E+00 0. -1.
        -12    1    4    4    0    0  0.39969642284E+01  0.56704673051E+02  0.30723087887E+02  0.64616590735E+02  0.00000000000E+00 0.  1.
</event>
<event>
12    1  0.8356052E-002  0.2048814E+03  0.7818608E-02  0.1146027E+00
         21   -1    0    0  503  502  0.00000000000E+00  0.00000000000E+00  0.86643963829E+02  0.86643963829E+02  0.00000000000E+00 0.  1.
         21   -1    0    0  501  503 -0.00000000000E+00 -0.00000000000E+00 -0.48133355358E+03  0.48133355358E+03  0.00000000000E+00 0. -1.
          6    2    1    2  501    0  0.26862344265E+00 -0.11413746792E+03 -0.20809562135E+03  0.29086078924E+03  0.16813321310E+03 0.  0.
         24    2    3    3    0    0 -0.12598123018E+02  0.46155003071E+01 -0.60779538916E+02  0.10114537402E+03  0.79725897848E+02 0.  0.
         -6    2    1    2    0  502 -0.26862344265E+00  0.11413746792E+03 -0.18659396840E+03  0.27711672817E+03  0.17014387514E+03 0.  0.
        -24    2    5    5    0    0  0.59237655364E+02  0.49323132857E+02 -0.13874065297E+03  0.17684746546E+03  0.78001192331E+02 0.  0.
          5    1    3    3  501    0  0.12866746461E+02 -0.11875296823E+03 -0.14731608244E+03  0.18971541522E+03  0.47000000000E+01 0. -1.
        -13    1    4    4    0    0  0.26892602765E+02 -0.20357064858E+02 -0.30451659812E+02  0.45441454184E+02  0.00000000000E+00 0.  1.
         14    1    4    4    0    0 -0.39490725783E+02  0.24972565165E+02 -0.30327879104E+02  0.55703919833E+02  0.00000000000E+00 0. -1.
         -5    1    5    5    0  502 -0.59506278807E+02  0.64814335063E+02 -0.47853315425E+02  0.10026926271E+03  0.47000000000E+01 0.  1.
         13    1    6    6    0    0 -0.17145137588E+02  0.14977341232E+02 -0.49383851090E+02  0.54378683708E+02  0.00000000000E+00 0. -1.
        -14    1    6    6    0    0  0.76382792952E+02  0.34345791626E+02 -0.89356801881E+02  0.12246878175E+03  0.00000000000E+00 0.  1.
</event>
<event>
12    1  0.8356052E-002  0.2046371E+03  0.7818608E-02  0.1147070E+00
         21   -1    0    0  503  502  0.00000000000E+00  0.00000000000E+00  0.64976146283E+03  0.64976146283E+03  0.00000000000E+00 0. -1.
         21   -1    0    0  501  503 -0.00000000000E+00 -0.00000000000E+00 -0.11118431356E+03  0.11118431356E+03  0.00000000000E+00 0. -1.
          6    2    1    2  501    0  0.43707253629E+01 -0.11189808272E+03  0.15822025279E+02  0.19956421204E+03  0.16442400702E+03 0.  0.
         24    2    3    3    0    0 -0.41445174176E+02 -0.11172082885E+03  0.38356710953E+02  0.14829014327E+03  0.79495177560E+02 0.  0.
         -6    2    1    2    0  502 -0.43707253629E+01  0.11189808272E+03  0.52275512398E+03  0.56138156435E+03  0.17127771889E+03 0.  0.
        -24    2    5    5    0    0  0.60625518535E+01  0.13275453963E+03  0.51244228411E+03  0.53545301378E+03  0.80326291427E+02 0.  0.
          5    1    3    3  501    0  0.45815899539E+02 -0.17725387188E+00 -0.22534685674E+02  0.51274068767E+02  0.47000000000E+01 0. -1.
        -13    1    4    4    0    0 -0.34887658222E+02 -0.58307652430E+02  0.59650366275E+02  0.90416244253E+02  0.00000000000E+00 0.  1.
         14    1    4    4    0    0 -0.65575159544E+01 -0.53413176418E+02 -0.21293655322E+02  0.57873899018E+02  0.00000000000E+00 0. -1.
         -5    1    5    5    0  502 -0.10433277216E+02 -0.20856456915E+02  0.10312839871E+02  0.25928550571E+02  0.47000000000E+01 0.  1.
         13    1    6    6    0    0 -0.27674395200E+02  0.95037829118E+02  0.40138502441E+03  0.41341020662E+03  0.00000000000E+00 0. -1.
        -14    1    6    6    0    0  0.33736947053E+02  0.37716710516E+02  0.11105725970E+03  0.12204280716E+03  0.00000000000E+00 0.  1.
</event>
<event>
12    1  0.8356052E-002  0.2813710E+03  0.7818608E-02  0.1095070E+00
         21   -1    0    0  501  502  0.00000000000E+00  0.00000000000E+00  0.10451866301E+04  0.10451866301E+04  0.00000000000E+00 0. -1.
         21   -1    0    0  502  503 -0.00000000000E+00 -0.00000000000E+00 -0.97326322279E+02  0.97326322279E+02  0.00000000000E+00 0. -1.
         -6    2    1    2    0  503 -0.21676265437E+03  0.45416029782E+02  0.20398742861E+03  0.34753491670E+03  0.17355397778E+03 0.  0.
        -24    2    3    3    0    0 -0.19267067638E+03 -0.12872202030E+02  0.11519855879E+03  0.23852347337E+03  0.79593066800E+02 0.  0.
          6    2    1    2  501    0  0.21676265437E+03 -0.45416029782E+02  0.74387287921E+03  0.79497803568E+03  0.17203067369E+03 0.  0.
         24    2    5    5    0    0  0.11919065117E+03 -0.83147850529E+02  0.55108889996E+03  0.57558856747E+03  0.80518612537E+02 0.  0.
          5    1    5    5  501    0  0.97572003202E+02  0.37731820747E+02  0.19278397925E+03  0.21938946821E+03  0.47000000000E+01 0. -1.
        -11    1    6    6    0    0  0.13899767545E+02 -0.42842867554E+02  0.86598079080E+02  0.97611178348E+02  0.00000000000E+00 0.  1.
         12    1    6    6    0    0  0.10529088363E+03 -0.40304982976E+02  0.46449082088E+03  0.47797738912E+03  0.00000000000E+00 0. -1.
         -5    1    3    3    0  503 -0.24091977995E+02  0.58288231812E+02  0.88788869821E+02  0.10901144332E+03  0.47000000000E+01 0.  1.
         11    1    4    4    0    0 -0.10284088083E+03 -0.80289413790E+01  0.10630201511E+03  0.14812437033E+03  0.00000000000E+00 0. -1.
        -12    1    4    4    0    0 -0.89829795546E+02 -0.48432606514E+01  0.88965436785E+01  0.90399103043E+02  0.00000000000E+00 0.  1.
</event>
<event>
12    1  0.8356052E-002  0.1748382E+03  0.7818608E-02  0.1173165E+00
         21   -1    0    0  503  502  0.00000000000E+00  0.00000000000E+00  0.20022516678E+03  0.20022516678E+03  0.00000000000E+00 0. -1.
         21   -1    0    0  501  503 -0.00000000000E+00 -0.00000000000E+00 -0.20527821648E+03  0.20527821648E+03  0.00000000000E+00 0. -1.
          6    2    1    2  501    0 -0.22072494775E+02  0.19501835723E+01 -0.10608129092E+03  0.20450337981E+03  0.17342835359E+03 0.  0.
         24    2    3    3    0    0 -0.19078290005E+01  0.51838351927E+02 -0.11332242764E+03  0.15000597484E+03  0.83480329048E+02 0.  0.
         -6    2    1    2    0  502  0.22072494775E+02 -0.19501835723E+01  0.10102824122E+03  0.20100000346E+03  0.17234644651E+03 0.  0.
        -24    2    5    5    0    0  0.80079170331E+02 -0.61861337442E+01  0.51984450869E+02  0.12477598457E+03  0.80098198623E+02 0.  0.
          5    1    3    3  501    0 -0.20164665774E+02 -0.49888168355E+02  0.72411367221E+01  0.54497404971E+02  0.47000000000E+01 0. -1.
        -13    1    4    4    0    0  0.12464302851E+02  0.45467070169E+01  0.10346752937E+02  0.16825180136E+02  0.00000000000E+00 0.  1.
         14    1    4    4    0    0 -0.14372131851E+02  0.47291644910E+02 -0.12366918058E+03  0.13318079470E+03  0.00000000000E+00 0. -1.
         -5    1    5    5    0  502 -0.58006675556E+02  0.42359501719E+01  0.49043790351E+02  0.76224018884E+02  0.47000000000E+01 0.  1.
         13    1    6    6    0    0  0.41638547070E+02  0.34570724645E+02  0.40476066789E+02  0.67581177759E+02  0.00000000000E+00 0. -1.
        -14    1    6    6    0    0  0.38440623260E+02 -0.40756858390E+02  0.11508384080E+02  0.57194806815E+02  0.00000000000E+00 0.  1.
</event>
<event>
12    1  0.8356052E-002  0.1860101E+03  0.7818608E-02  0.1164945E+00
         21   -1    0    0  501  502  0.00000000000E+00  0.00000000000E+00  0.65909834653E+02  0.65909834653E+02  0.00000000000E+00 0. -1.
         21   -1    0    0  502  503 -0.00000000000E+00 -0.00000000000E+00 -0.49703471804E+03  0.49703471804E+03  0.00000000000E+00 0. -1.
         -6    2    1    2    0  503  0.26496413871E+02  0.23584552002E+01 -0.18070646306E+03  0.25100041814E+03  0.17215911784E+03 0.  0.
        -24    2    3    3    0    0  0.49866709942E+01 -0.24531012197E+02 -0.20491942021E+02  0.87059894635E+02  0.80826159868E+02 0.  0.
          6    2    1    2  501    0 -0.26496413871E+02 -0.23584552002E+01 -0.25041842033E+03  0.31194413455E+03  0.18409816833E+03 0.  0.
         24    2    5    5    0    0  0.12505727823E+02 -0.30121686027E+02 -0.24931297794E+03  0.26382681911E+03  0.79899438759E+02 0.  0.
          5    1    5    5  501    0 -0.39002141694E+02  0.27763230827E+02 -0.11054423863E+01  0.48117315444E+02  0.47000000000E+01 0. -1.
        -11    1    6    6    0    0 -0.16513288177E+01 -0.51573727523E+02 -0.10222340064E+03  0.11450851452E+03  0.00000000000E+00 0.  1.
         12    1    6    6    0    0  0.14157056640E+02  0.21452041496E+02 -0.14708957730E+03  0.14931830460E+03  0.00000000000E+00 0. -1.
         -5    1    3    3    0  503  0.21509742877E+02  0.26889467397E+02 -0.16021452104E+03  0.16394052351E+03  0.47000000000E+01 0.  1.
         11    1    4    4    0    0 -0.16245596075E+01 -0.34255829520E+02 -0.46929715220E+02  0.58124858887E+02  0.00000000000E+00 0. -1.
        -12    1    4    4    0    0  0.66112306016E+01  0.97248173228E+01  0.26437773199E+02  0.28935035748E+02  0.00000000000E+00 0.  1.
</event>
<event>
12    1  0.8356052E-002  0.1823553E+03  0.7818608E-02  0.1165970E+00
         21   -1    0    0  503  502  0.00000000000E+00  0.00000000000E+00  0.27840122759E+03  0.27840122759E+03  0.00000000000E+00 0. -1.
         21   -1    0    0  501  503 -0.00000000000E+00 -0.00000000000E+00 -0.17441747393E+03  0.17441747393E+03  0.00000000000E+00 0. -1.
          6    2    1    2  501    0  0.51306443127E+02 -0.28927282019E+02 -0.76283348515E+02  0.19766789449E+03  0.17258130982E+03 0.  0.
         24    2    3    3    0    0  0.12651005682E+01  0.32809052113E+02 -0.80983341687E+02  0.11792022460E+03  0.79176027675E+02 0.  0.
         -6    2    1    2    0  502 -0.51306443127E+02  0.28927282019E+02  0.18026710217E+03  0.25515080703E+03  0.17069436855E+03 0.  0.
        -24    2    5    5    0    0 -0.64666622860E+02  0.77168960446E+02  0.11372320637E+03  0.17174856480E+03  0.80173444967E+02 0.  0.
          5    1    3    3  501    0  0.50041342558E+02 -0.61736334131E+02  0.46999931719E+01  0.79747669890E+02  0.47000000000E+01 0. -1.
        -13    1    4    4    0    0 -0.26245478296E+01  0.17692213224E+02  0.13340827133E+02  0.22313232143E+02  0.00000000000E+00 0.  1.
         14    1    4    4    0    0  0.38896483978E+01  0.15116838889E+02 -0.94324168820E+02  0.95606992455E+02  0.00000000000E+00 0. -1.
         -5    1    5    5    0  502  0.13360179733E+02 -0.48241678427E+02  0.66543895806E+02  0.83402242230E+02  0.47000000000E+01 0.  1.
         13    1    6    6    0    0 -0.26346545878E+02  0.54325525682E+02  0.11183980679E+03  0.12709659950E+03  0.00000000000E+00 0. -1.
        -14    1    6    6    0    0 -0.38320076982E+02  0.22843434764E+02  0.18833995706E+01  0.44651965306E+02  0.00000000000E+00 0.  1.
</event>
<event>
12    1  0.8356052E-002  0.1812389E+03  0.7818608E-02  0.1168179E+00
         21   -1    0    0  501  502  0.00000000000E+00  0.00000000000E+00  0.38076365168E+03  0.38076365168E+03  0.00000000000E+00 0. -1.
         21   -1    0    0  502  503 -0.00000000000E+00 -0.00000000000E+00 -0.85178111265E+02  0.85178111265E+02  0.00000000000E+00 0. -1.
         -6    2    1    2    0  503  0.73090643401E+01 -0.33079625489E+02  0.11524865071E+03  0.21477842866E+03  0.17804448288E+03 0.  0.
        -24    2    3    3    0    0  0.28920290221E+02 -0.65798206900E+02  0.18447440381E+02  0.11023123848E+03  0.81515830752E+02 0.  0.
          6    2    1    2  501    0 -0.73090643401E+01  0.33079625489E+02  0.18033688971E+03  0.25116333428E+03  0.17150493478E+03 0.  0.
         24    2    5    5    0    0  0.13098561240E+02  0.31344740597E+01  0.19529837391E+03  0.21167764972E+03  0.80526860753E+02 0.  0.
          5    1    5    5  501    0 -0.20407625580E+02  0.29945151429E+02 -0.14961484206E+02  0.39485684565E+02  0.47000000000E+01 0. -1.
        -11    1    6    6    0    0  0.12165222214E+02 -0.56169059200E+01 -0.25447709445E+01  0.13638846095E+02  0.00000000000E+00 0.  1.
         12    1    6    6    0    0  0.93333902575E+00  0.87513799797E+01  0.19784314486E+03  0.19803880362E+03  0.00000000000E+00 0. -1.
         -5    1    3    3    0  503 -0.21611225881E+02  0.32718581411E+02  0.96801210326E+02  0.10454719018E+03  0.47000000000E+01 0.  1.
         13    1    4    4    0    0  0.14211579473E+02 -0.73407870048E+02  0.38600488726E+02  0.84146789041E+02  0.00000000000E+00 0. -1.
        -14    1    4    4    0    0  0.14708710749E+02  0.76096631476E+01 -0.20153048345E+02  0.26084449442E+02  0.00000000000E+00 0.  1.
</event>
<event>
12    1  0.8356052E-002  0.1910346E+03  0.7818608E-02  0.1157889E+00
         21   -1    0    0  501  502  0.00000000000E+00  0.00000000000E+00  0.68958599920E+03  0.68958599920E+03  0.00000000000E+00 0. -1.
         21   -1    0    0  502  503 -0.00000000000E+00 -0.00000000000E+00 -0.80721345550E+02  0.80721345550E+02  0.00000000000E+00 0. -1.
         -6    2    1    2    0  503 -0.49416134152E+02 -0.61327495368E+02  0.75799096933E+02  0.20404494668E+03  0.17229573751E+03 0.  0.
        -24    2    3    3    0    0  0.20890438911E+01  0.45759471626E+01  0.87610156111E+02  0.11944212036E+03  0.81028249792E+02 0.  0.
          6    2    1    2  501    0  0.49416134152E+02  0.61327495368E+02  0.53306555672E+03  0.56626239808E+03  0.17404367185E+03 0.  0.
         24    2    5    5    0    0  0.91093161752E+02  0.76418284075E+01  0.31814189972E+03  0.34079977633E+03  0.81079328622E+02 0.  0.
          5    1    5    5  501    0 -0.41677027601E+02  0.53685666961E+02  0.21492365700E+03  0.22546262174E+03  0.47000000000E+01 0. -1.
        -11    1    6    6    0    0  0.10295562790E+03  0.15297395625E+02  0.24316751336E+03  0.26450767698E+03  0.00000000000E+00 0.  1.
         12    1    6    6    0    0 -0.11862466150E+02 -0.76555672173E+01  0.74974386361E+02  0.76292099347E+02  0.00000000000E+00 0. -1.
         -5    1    3    3    0  503 -0.51505178043E+02 -0.65903442531E+02 -0.11811059178E+02  0.84602826321E+02  0.47000000000E+01 0.  1.
         11    1    4    4    0    0  0.22924564693E+02 -0.11936595094E+02 -0.20464500495E+01  0.25926934385E+02  0.00000000000E+00 0. -1.
        -12    1    4    4    0    0 -0.20835520802E+02  0.16512542256E+02  0.89656606161E+02  0.93515185971E+02  0.00000000000E+00 0.  1.
</event>
<event>
12    1  0.8356052E-002  0.2468068E+03  0.7818608E-02  0.1115358E+00
         21   -1    0    0  503  502  0.00000000000E+00  0.00000000000E+00  0.88091609002E+03  0.88091609002E+03  0.00000000000E+00 0.  1.
         21   -1    0    0  501  503 -0.00000000000E+00 -0.00000000000E+00 -0.81751982008E+02  0.81751982008E+02  0.00000000000E+00 0. -1.
          6    2    1    2  501    0 -0.14550409328E+03  0.98966288988E+02  0.21026855045E+03  0.32414511605E+03  0.17289136888E+03 0.  0.
         24    2    3    3    0    0 -0.59105598193E+02 -0.18198186015E+02  0.77892196070E+02  0.12732590115E+03  0.79498711830E+02 0.  0.
         -6    2    1    2    0  502  0.14550409328E+03 -0.98966288988E+02  0.58889555757E+03  0.63852295598E+03  0.17305438474E+03 0.  0.
        -24    2    5    5    0    0  0.57020571931E+02 -0.11889745434E+03  0.40632051673E+03  0.43460552064E+03  0.79985286013E+02 0.  0.
          5    1    3    3  501    0 -0.86398495085E+02  0.11716447500E+03  0.13237635438E+03  0.19681921490E+03  0.47000000000E+01 0. -1.
        -11    1    4    4    0    0  0.41381214290E+01 -0.24392659861E+02  0.54068899072E+02  0.59460673987E+02  0.00000000000E+00 0.  1.
         12    1    4    4    0    0 -0.63243719622E+02  0.61944738465E+01  0.23823296998E+02  0.67865227161E+02  0.00000000000E+00 0. -1.
         -5    1    5    5    0  502  0.88483521347E+02  0.19931165348E+02  0.18257504083E+03  0.20391743535E+03  0.47000000000E+01 0.  1.
         13    1    6    6    0    0  0.57762664330E+01 -0.30566568710E+02  0.25179219552E+02  0.40020912956E+02  0.00000000000E+00 0. -1.
        -14    1    6    6    0    0  0.51244305498E+02 -0.88330885627E+02  0.38114129718E+03  0.39458460768E+03  0.00000000000E+00 0.  1.
</event>
<event>
12    1  0.8356052E-002  0.2505357E+03  0.7818608E-02  0.1113004E+00
         21   -1    0    0  501  502  0.00000000000E+00  0.00000000000E+00  0.31463867815E+03  0.31463867815E+03  0.00000000000E+00 0.  1.
         21   -1    0    0  502  503 -0.00000000000E+00 -0.00000000000E+00 -0.20069507363E+03  0.20069507363E+03  0.00000000000E+00 0. -1.
         -6    2    1    2    0  503  0.11492719299E+03  0.14116784160E+03  0.35501594597E+02  0.25280513571E+03  0.17179480269E+03 0.  0.
        -24    2    3    3    0    0  0.10760581689E+02  0.86093050290E+01  0.16921176229E+02  0.83129649928E+02  0.80214102505E+02 0.  0.
          6    2    1    2  501    0 -0.11492719299E+03 -0.14116784160E+03  0.78442009920E+02  0.26252861607E+03  0.17213804387E+03 0.  0.
         24    2    5    5    0    0 -0.42432952532E+02 -0.71582716357E+01  0.34714988088E+01  0.92656171934E+02  0.81983648249E+02 0.  0.
          5    1    5    5  501    0 -0.72494240457E+02 -0.13400956996E+03  0.74970511111E+02  0.16987244414E+03  0.47000000000E+01 0. -1.
        -13    1    6    6    0    0  0.21237710986E+01 -0.38180117482E+02  0.30725431004E+01  0.38362381257E+02  0.00000000000E+00 0.  1.
         14    1    6    6    0    0 -0.44556723630E+02  0.31021845847E+02  0.39895570837E+00  0.54293790677E+02  0.00000000000E+00 0. -1.
         -5    1    3    3    0  503  0.10416661130E+03  0.13255853657E+03  0.18580418367E+02  0.16967548578E+03  0.47000000000E+01 0.  1.
         13    1    4    4    0    0  0.32920531629E+02  0.21003265338E+02 -0.15444443536E+02  0.41993206519E+02  0.00000000000E+00 0. -1.
        -14    1    4    4    0    0 -0.22159949941E+02 -0.12393960309E+02  0.32365619765E+02  0.41136443409E+02  0.00000000000E+00 0.  1.
</event>
<event>
12    1  0.8356052E-002  0.1713450E+03  0.7818608E-02  0.1176914E+00
         21   -1    0    0  503  502  0.00000000000E+00  0.00000000000E+00  0.88006620624E+02  0.88006620624E+02  0.00000000000E+00 0. -1.
         21   -1    0    0  501  503 -0.00000000000E+00 -0.00000000000E+00 -0.33027813251E+03  0.33027813251E+03  0.00000000000E+00 0. -1.
          6    2    1    2  501    0 -0.14093041416E+02  0.60795415691E+01 -0.12596109108E+03  0.21266241586E+03  0.17065618069E+03 0.  0.
         24    2    3    3    0    0 -0.49065715113E+02  0.35821513632E+02 -0.27946204798E+02  0.10432645349E+03  0.80077420647E+02 0.  0.
         -6    2    1    2    0  502  0.14093041416E+02 -0.60795415691E+01 -0.11631042081E+03  0.20562233728E+03  0.16886934878E+03 0.  0.
        -24    2    5    5    0    0 -0.81179576235E+01 -0.52254284225E+02 -0.23324341763E+02  0.99349404539E+02  0.80807597462E+02 0.  0.
          5    1    3    3  501    0  0.34972673697E+02 -0.29741972063E+02 -0.98014886286E+02  0.10833596236E+03  0.47000000000E+01 0. -1.
        -13    1    4    4    0    0  0.12036919962E+02  0.37444949637E+02 -0.92230810574E+01  0.40398971765E+02  0.00000000000E+00 0.  1.
         14    1    4    4    0    0 -0.61102635074E+02 -0.16234360053E+01 -0.18723123741E+02  0.63927481728E+02  0.00000000000E+00 0. -1.
         -5    1    5    5    0  502  0.22210999039E+02  0.46174742656E+02 -0.92986079043E+02  0.10627293274E+03  0.47000000000E+01 0.  1.
         11    1    6    6    0    0  0.19421882271E+02 -0.96518389137E+01 -0.40375399990E+02  0.45831653141E+02  0.00000000000E+00 0. -1.
        -12    1    6    6    0    0 -0.27539839894E+02 -0.42602445312E+02  0.17051058227E+02  0.53517751397E+02  0.00000000000E+00 0.  1.
</event>
<event>
12    1  0.8356052E-002  0.1794269E+03  0.7818608E-02  0.1168766E+00
         21   -1    0    0  503  502  0.00000000000E+00  0.00000000000E+00  0.85337653150E+02  0.85337653150E+02  0.00000000000E+00 0. -1.
         21   -1    0    0  501  503 -0.00000000000E+00 -0.00000000000E+00 -0.47605674784E+03  0.47605674784E+03  0.00000000000E+00 0. -1.
          6    2    1    2  501    0  0.35017274087E+02  0.32226071231E+02 -0.32619545450E+03  0.37228682213E+03  0.17300079261E+03 0.  0.
         24    2    3    3    0    0  0.81437876019E+01  0.41034968751E+02 -0.67538922780E+02  0.11204640952E+03  0.79010770532E+02 0.  0.
         -6    2    1    2    0  502 -0.35017274087E+02 -0.32226071231E+02 -0.64523640184E+02  0.18910757886E+03  0.17127068368E+03 0.  0.
        -24    2    5    5    0    0 -0.20330284266E+02  0.12595030382E+02  0.50354488050E+01  0.10493397444E+03  0.10204816509E+03 0.  0.
          5    1    3    3  501    0  0.26873486485E+02 -0.88088975199E+01 -0.25865653172E+03  0.26024041261E+03  0.47000000000E+01 0. -1.
        -13    1    4    4    0    0  0.42438813637E+02  0.12671007755E+02 -0.40213092881E+02  0.59822238168E+02  0.00000000000E+00 0.  1.
         14    1    4    4    0    0 -0.34295026035E+02  0.28363960995E+02 -0.27325829899E+02  0.52224171356E+02  0.00000000000E+00 0. -1.
         -5    1    5    5    0  502 -0.14686989821E+02 -0.44821101613E+02 -0.69559088989E+02  0.84173604419E+02  0.47000000000E+01 0. -1.
         11    1    6    6    0    0 -0.51902713677E+02  0.29127284509E+02  0.24457515541E+02  0.64346409818E+02  0.00000000000E+00 0. -1.
        -12    1    6    6    0    0  0.31572429412E+02 -0.16532254127E+02 -0.19422066736E+02  0.40587564620E+02  0.00000000000E+00 0.  1.
</event>
<event>
12    1  0.8356052E-002  0.2254000E+03  0.7818608E-02  0.1131639E+00
         21   -1    0    0  503  502  0.00000000000E+00  0.00000000000E+00  0.91477474081E+02  0.91477474081E+02  0.00000000000E+00 0.  1.
         21   -1    0    0  501  503 -0.00000000000E+00 -0.00000000000E+00 -0.90814378442E+03  0.90814378442E+03  0.00000000000E+00 0.  1.
          6    2    1    2  501    0  0.85586268109E+02 -0.98700051504E+02 -0.72461246343E+03  0.75614834064E+03  0.17213477698E+03 0.  0.
         24    2    3    3    0    0  0.10546303756E+02 -0.97091330248E+02 -0.31895618076E+03  0.34357992946E+03  0.82317505756E+02 0.  0.
         -6    2    1    2    0  502 -0.85586268109E+02  0.98700051504E+02 -0.92053846906E+02  0.24347291785E+03  0.18368026988E+03 0.  0.
        -24    2    5    5    0    0  0.29105970815E+02  0.56468207965E+02 -0.28813565082E+02  0.10578028362E+03  0.79520002647E+02 0.  0.
          5    1    3    3  501    0  0.75039964353E+02 -0.16087212556E+01 -0.40565628267E+03  0.41256841118E+03  0.47000000000E+01 0. -1.
        -13    1    4    4    0    0  0.37039173794E+02 -0.80444423099E+02 -0.27966507056E+03  0.29335261597E+03  0.00000000000E+00 0.  1.
         14    1    4    4    0    0 -0.26492870038E+02 -0.16646907149E+02 -0.39291110198E+02  0.50227313496E+02  0.00000000000E+00 0. -1.
         -5    1    5    5    0  502 -0.11469223892E+03  0.42231843538E+02 -0.63240281824E+02  0.13769263424E+03  0.47000000000E+01 0.  1.
         11    1    6    6    0    0  0.29717726146E+02 -0.12415393232E+02 -0.14973192542E+02  0.35517344091E+02  0.00000000000E+00 0. -1.
        -12    1    6    6    0    0 -0.61175533118E+00  0.68883601197E+02 -0.13840372540E+02  0.70262939524E+02  0.00000000000E+00 0.  1.
</event>
<event>
12    1  0.8356052E-002  0.2901888E+03  0.7818608E-02  0.1090522E+00
         21   -1    0    0  501  502  0.00000000000E+00  0.00000000000E+00  0.12739548116E+03  0.12739548116E+03  0.00000000000E+00 0.  1.
         21   -1    0    0  502  503 -0.00000000000E+00 -0.00000000000E+00 -0.78479151324E+03  0.78479151324E+03  0.00000000000E+00 0.  1.
         -6    2    1    2    0  503 -0.19116500595E+03 -0.12959437305E+03 -0.51226324487E+03  0.58772885713E+03  0.17225799379E+03 0.  0.
        -24    2    3    3    0    0 -0.14025832901E+03 -0.86044628327E+02 -0.21155394746E+03  0.27961160417E+03  0.79696295877E+02 0.  0.
          6    2    1    2  501    0  0.19116500595E+03  0.12959437305E+03 -0.14513278721E+03  0.32445813727E+03  0.17570087049E+03 0.  0.
         24    2    5    5    0    0  0.16615949543E+03  0.15833980263E+03 -0.99004584361E+02  0.26444583540E+03  0.86308870423E+02 0.  0.
          5    1    5    5  501    0  0.25005510518E+02 -0.28745429583E+02 -0.46128202846E+02  0.60012301872E+02  0.47000000000E+01 0. -1.
        -13    1    6    6    0    0  0.91987759704E+02  0.50037801465E+02 -0.86179415177E+01  0.10507044507E+03  0.00000000000E+00 0.  1.
         14    1    6    6    0    0  0.74171735730E+02  0.10830200116E+03 -0.90386642844E+02  0.15937539033E+03  0.00000000000E+00 0. -1.
         -5    1    3    3    0  503 -0.50906676938E+02 -0.43549744720E+02 -0.30070929741E+03  0.30811725296E+03  0.47000000000E+01 0.  1.
         11    1    4    4    0    0  0.76945660129E+01 -0.20619915582E+01 -0.28998489134E+02  0.30072753904E+02  0.00000000000E+00 0. -1.
        -12    1    4    4    0    0 -0.14795289503E+03 -0.83982636769E+02 -0.18255545833E+03  0.24953885027E+03  0.00000000000E+00 0.  1.
</event>
<event>
12    1  0.8356052E-002  0.2069927E+03  0.7818608E-02  0.1144116E+00
         21   -1    0    0  503  502  0.00000000000E+00  0.00000000000E+00  0.34897087108E+03  0.34897087108E+03  0.00000000000E+00 0. -1.
         21   -1    0    0  501  503 -0.00000000000E+00 -0.00000000000E+00 -0.17829846229E+03  0.17829846229E+03  0.00000000000E+00 0. -1.
          6    2    1    2  501    0  0.64634472144E+02  0.95526639545E+02 -0.62243581685E+02  0.21614866687E+03  0.17188085664E+03 0.  0.
         24    2    3    3    0    0  0.10329478311E+03  0.39689752183E+02 -0.25856149931E+02  0.13895726305E+03  0.79971818914E+02 0.  0.
         -6    2    1    2    0  502 -0.64634472144E+02 -0.95526639545E+02  0.23291599047E+03  0.31112066650E+03  0.17100659828E+03 0.  0.
        -24    2    5    5    0    0 -0.12974159688E+02  0.13077524864E+02  0.12475055477E+03  0.14930131076E+03  0.79930157041E+02 0.  0.
          5    1    3    3  501    0 -0.38660310963E+02  0.55836887362E+02 -0.36387431754E+02  0.77191403820E+02  0.47000000000E+01 0. -1.
        -13    1    4    4    0    0  0.62875238592E+02 -0.18519328278E+02 -0.15314334592E+02  0.67311143148E+02  0.00000000000E+00 0.  1.
         14    1    4    4    0    0  0.40419544515E+02  0.58209080460E+02 -0.10541815339E+02  0.71646119905E+02  0.00000000000E+00 0. -1.
         -5    1    5    5    0  502 -0.51660312456E+02 -0.10860416441E+03  0.10816543570E+03  0.16181935573E+03  0.47000000000E+01 0.  1.
         13    1    6    6    0    0 -0.11736017288E+02 -0.26267844174E+02  0.96899068019E+02  0.10107998379E+03  0.00000000000E+00 0. -1.
        -14    1    6    6    0    0 -0.12381423998E+01  0.39345369038E+02  0.27851486751E+02  0.48221326979E+02  0.00000000000E+00 0.  1.
</event>
<event>
12    1  0.8356052E-002  0.1874099E+03  0.7818608E-02  0.1161154E+00
         21   -1    0    0  503  502  0.00000000000E+00  0.00000000000E+00  0.49528315250E+02  0.49528315250E+02  0.00000000000E+00 0.  1.
         21   -1    0    0  501  503 -0.00000000000E+00 -0.00000000000E+00 -0.70821033751E+03  0.70821033751E+03  0.00000000000E+00 0.  1.
          6    2    1    2  501    0  0.26721376915E+02  0.68174907866E+02 -0.36107571170E+03  0.40681463621E+03  0.17251269116E+03 0.  0.
         24    2    3    3    0    0  0.23506960215E+02  0.54998540768E+02 -0.37413638502E+03  0.38740792829E+03  0.80805022368E+02 0.  0.
         -6    2    1    2    0  502 -0.26721376915E+02 -0.68174907866E+02 -0.29760631056E+03  0.35092401655E+03  0.17092776035E+03 0.  0.
        -24    2    5    5    0    0 -0.25097953144E+02  0.22227799012E+02 -0.10067492350E+03  0.13417682251E+03  0.82121843471E+02 0.  0.
          5    1    3    3  501    0  0.32144166999E+01  0.13176367098E+02  0.13060673325E+02  0.19406707920E+02  0.47000000000E+01 0. -1.
        -11    1    4    4    0    0  0.35189583518E+02  0.10181997783E+02 -0.63266535983E+02  0.73107006793E+02  0.00000000000E+00 0.  1.
         12    1    4    4    0    0 -0.11682623303E+02  0.44816542985E+02 -0.31086984904E+03  0.31430092150E+03  0.00000000000E+00 0. -1.
         -5    1    5    5    0  502 -0.16234237703E+01 -0.90402706878E+02 -0.19693138706E+03  0.21674719404E+03  0.47000000000E+01 0.  1.
         13    1    6    6    0    0 -0.52704800550E+02 -0.63939709115E+00 -0.63660120334E+02  0.82648749238E+02  0.00000000000E+00 0. -1.
        -14    1    6    6    0    0  0.27606847406E+02  0.22867196103E+02 -0.37014803170E+02  0.51528073271E+02  0.00000000000E+00 0.  1.
</event>
<event>
12    1  0.8356052E-002  0.2006329E+03  0.7818608E-02  0.1149917E+00
         21   -1    0    0  503  502  0.00000000000E+00  0.00000000000E+00  0.14912431860E+03  0.14912431860E+03  0.00000000000E+00 0.  1.
         21   -1    0    0  501  503 -0.00000000000E+00 -0.00000000000E+00 -0.75846518452E+03  0.75846518452E+03  0.00000000000E+00 0.  1.
          6    2    1    2  501    0  0.67446513559E+02  0.71827775011E+02 -0.67143483035E+03  0.70076978186E+03  0.17477212108E+03 0.  0.
         24    2    3    3    0    0  0.24868643381E+02 -0.13500117450E+02 -0.47274379818E+03  0.48032944861E+03  0.80180907235E+02 0.  0.
         -6    2    1    2    0  502 -0.67446513559E+02 -0.71827775011E+02  0.62093964432E+02  0.20681972125E+03  0.17091072297E+03 0.  0.
        -24    2    5    5    0    0 -0.56818118352E+02  0.33815441710E+01  0.80677454262E+02  0.12848173193E+03  0.82212957620E+02 0.  0.
          5    1    3    3  501    0  0.42577870178E+02  0.85327892461E+02 -0.19869103217E+03  0.22044033326E+03  0.47000000000E+01 0. -1.
        -13    1    4    4    0    0  0.22363660652E+02  0.27730187838E+02 -0.32413603036E+03  0.32608781457E+03  0.00000000000E+00 0.  1.
         14    1    4    4    0    0  0.25049827288E+01 -0.41230305288E+02 -0.14860776783E+03  0.15424163404E+03  0.00000000000E+00 0. -1.
         -5    1    5    5    0  502 -0.10628395207E+02 -0.75209319182E+02 -0.18583489830E+02  0.78337989320E+02  0.47000000000E+01 0.  1.
         13    1    6    6    0    0  0.74139339116E+01  0.23950423450E+02  0.46600088197E+02  0.52916513674E+02  0.00000000000E+00 0. -1.
        -14    1    6    6    0    0 -0.64232052263E+02 -0.20568879279E+02  0.34077366065E+02  0.75565218260E+02  0.00000000000E+00 0.  1.
</event>
<event>
12    1  0.8356052E-002  0.1805925E+03  0.7818608E-02  0.1168427E+00
         21   -1    0    0  501  502  0.00000000000E+00  0.00000000000E+00  0.87391111305E+03  0.87391111305E+03  0.00000000000E+00 0.  1.
         21   -1    0    0  502  503 -0.00000000000E+00 -0.00000000000E+00 -0.36328041463E+02  0.36328041463E+02  0.00000000000E+00 0.  1.
         -6    2    1    2    0  503  0.46124316361E+02 -0.56011010762E+01  0.40443442127E+03  0.44095096518E+03  0.16944535311E+03 0.  0.
        -24    2    3    3    0    0  0.45207003085E+02 -0.64753118845E+02  0.29806383921E+03  0.31914540948E+03  0.82310999407E+02 0.  0.
          6    2    1    2  501    0 -0.46124316361E+02  0.56011010762E+01  0.43314865032E+03  0.46928818933E+03  0.17451311265E+03 0.  0.
         24    2    5    5    0    0  0.79987959605E+01  0.62871973410E+02  0.22411318197E+03  0.24584427885E+03  0.78713565123E+02 0.  0.
          5    1    5    5  501    0 -0.54123112322E+02 -0.57270872333E+02  0.20903546834E+03  0.22344391048E+03  0.47000000000E+01 0. -1.
        -11    1    6    6    0    0 -0.29719610787E+02  0.34283174760E+02  0.15900434511E+03  0.16535106017E+03  0.00000000000E+00 0.  1.
         12    1    6    6    0    0  0.37718406748E+02  0.28588798650E+02  0.65108836861E+02  0.80493218679E+02  0.00000000000E+00 0. -1.
         -5    1    3    3    0  503  0.91731327639E+00  0.59152017769E+02  0.10637058207E+03  0.12180555570E+03  0.47000000000E+01 0.  1.
         11    1    4    4    0    0 -0.16267562575E+02 -0.27833940087E+02  0.16369369615E+03  0.16683820897E+03  0.00000000000E+00 0. -1.
        -12    1    4    4    0    0  0.61474565660E+02 -0.36919178758E+02  0.13437014306E+03  0.15230720052E+03  0.00000000000E+00 0.  1.
</event>
<event>
12    1  0.8356052E-002  0.1992344E+03  0.7818608E-02  0.1150463E+00
         21   -1    0    0  501  502  0.00000000000E+00  0.00000000000E+00  0.69738293024E+02  0.69738293024E+02  0.00000000000E+00 0.  1.
         21   -1    0    0  502  503 -0.00000000000E+00 -0.00000000000E+00 -0.62159553814E+03  0.62159553814E+03  0.00000000000E+00 0.  1.
         -6    2    1    2    0  503  0.72172896424E+02 -0.70678729498E+02 -0.37750145883E+03  0.42685090154E+03  0.17172632571E+03 0.  0.
        -24    2    3    3    0    0  0.10454291340E+03 -0.64237056351E+02 -0.36161093871E+03  0.38991972525E+03  0.78862544918E+02 0.  0.
          6    2    1    2  501    0 -0.72172896424E+02  0.70678729498E+02 -0.17435578629E+03  0.26448292963E+03  0.17130928192E+03 0.  0.
         24    2    5    5    0    0 -0.25844453320E+01 -0.12780275501E+02 -0.24783636257E+02  0.79545437200E+02  0.74452892178E+02 0.  0.
          5    1    5    5  501    0 -0.69588451092E+02  0.83459004999E+02 -0.14957215003E+03  0.18493749243E+03  0.47000000000E+01 0. -1.
        -13    1    6    6    0    0 -0.38121353764E+02 -0.12262818749E+02 -0.13221813927E+02  0.42171444130E+02  0.00000000000E+00 0.  1.
         14    1    6    6    0    0  0.35536908432E+02 -0.51745675123E+00 -0.11561822330E+02  0.37373993070E+02  0.00000000000E+00 0. -1.
         -5    1    3    3    0  503 -0.32370016981E+02 -0.64416731469E+01 -0.15890520116E+02  0.36931176285E+02  0.47000000000E+01 0.  1.
         13    1    4    4    0    0  0.64959052501E+02  0.17043216448E+01 -0.21143435575E+03  0.22119464280E+03  0.00000000000E+00 0. -1.
        -14    1    4    4    0    0  0.39583860904E+02 -0.65941377996E+02 -0.15017658297E+03  0.16872508245E+03  0.00000000000E+00 0.  1.
</event>
<event>
12    1  0.8356052E-002  0.2163833E+03  0.7818608E-02  0.1137535E+00
         21   -1    0    0  503  502  0.00000000000E+00  0.00000000000E+00  0.12020559625E+04  0.12020559625E+04  0.00000000000E+00 0. -1.
         21   -1    0    0  501  503 -0.00000000000E+00 -0.00000000000E+00 -0.60274730358E+02  0.60274730358E+02  0.00000000000E+00 0. -1.
          6    2    1    2  501    0  0.68375445560E+02  0.11149364689E+03  0.19205061843E+03  0.28931844982E+03  0.17238239618E+03 0.  0.
         24    2    3    3    0    0 -0.29341734155E+02  0.35471245205E+02  0.91475544989E+02  0.12973935292E+03  0.79657879491E+02 0.  0.
         -6    2    1    2    0  502 -0.68375445560E+02 -0.11149364689E+03  0.94973061370E+03  0.97301224302E+03  0.16630860359E+03 0.  0.
        -24    2    5    5    0    0 -0.12593262341E+02 -0.12710022456E+03  0.60176450093E+03  0.62022658166E+03  0.79040753260E+02 0.  0.
          5    1    3    3  501    0  0.97717179715E+02  0.76022401687E+02  0.10057507344E+03  0.15957909690E+03  0.47000000000E+01 0. -1.
        -13    1    4    4    0    0 -0.77776410327E+01 -0.20650343314E+02  0.55379697765E+02  0.59614086452E+02  0.00000000000E+00 0.  1.
         14    1    4    4    0    0 -0.21564093123E+02  0.56121588519E+02  0.36095847224E+02  0.70125266466E+02  0.00000000000E+00 0. -1.
         -5    1    5    5    0  502 -0.55782183219E+02  0.15606577670E+02  0.34796611276E+03  0.35278566136E+03  0.47000000000E+01 0.  1.
         11    1    6    6    0    0 -0.37753389068E+02 -0.26323988016E+02  0.20354297901E+03  0.20868161164E+03  0.00000000000E+00 0. -1.
        -12    1    6    6    0    0  0.25160126728E+02 -0.10077623655E+03  0.39822152192E+03  0.41154497002E+03  0.00000000000E+00 0.  1.
</event>
<event>
12    1  0.8356052E-002  0.2049747E+03  0.7818608E-02  0.1145636E+00
         21   -1    0    0  501  502  0.00000000000E+00  0.00000000000E+00  0.73594256464E+03  0.73594256464E+03  0.00000000000E+00 0. -1.
         21   -1    0    0  502  503 -0.00000000000E+00 -0.00000000000E+00 -0.80334635542E+02  0.80334635542E+02  0.00000000000E+00 0. -1.
         -6    2    1    2    0  503  0.10937930274E+03  0.23216882188E+01  0.10800837253E+03  0.23157224228E+03  0.17317815322E+03 0.  0.
        -24    2    3    3    0    0  0.13914708013E+03  0.41201445343E+01  0.53379745440E+02  0.16915644369E+03  0.79910072684E+02 0.  0.
          6    2    1    2  501    0 -0.10937930274E+03 -0.23216882188E+01  0.54759955656E+03  0.58470495790E+03  0.17333606474E+03 0.  0.
         24    2    5    5    0    0 -0.11563912577E+03 -0.20740942162E+02  0.54675074325E+03  0.56467336324E+03  0.78211494148E+02 0.  0.
          5    1    5    5  501    0  0.62598230349E+01  0.18419253943E+02  0.84881330505E+00  0.20031594651E+02  0.47000000000E+01 0. -1.
        -11    1    6    6    0    0 -0.25435160933E+02 -0.36808569591E+02  0.11697813394E+03  0.12524257274E+03  0.00000000000E+00 0.  1.
         12    1    6    6    0    0 -0.90203964842E+02  0.16067627429E+02  0.42977260932E+03  0.43943079051E+03  0.00000000000E+00 0. -1.
         -5    1    3    3    0  503 -0.29767777395E+02 -0.17984563155E+01  0.54628627093E+02  0.62415798595E+02  0.47000000000E+01 0.  1.
         11    1    4    4    0    0  0.52001660303E+02 -0.53906819948E+01 -0.18844949515E+02  0.55573053262E+02  0.00000000000E+00 0. -1.
        -12    1    4    4    0    0  0.87145419832E+02  0.95108265291E+01  0.72224694955E+02  0.11358339042E+03  0.00000000000E+00 0.  1.
</event>
<event>
12    1  0.8356052E-002  0.2569952E+03  0.7818608E-02  0.1108997E+00
         21   -1    0    0  503  502  0.00000000000E+00  0.00000000000E+00  0.19017461144E+03  0.19017461144E+03  0.00000000000E+00 0.  1.
         21   -1    0    0  501  503 -0.00000000000E+00 -0.00000000000E+00 -0.39340880123E+03  0.39340880123E+03  0.00000000000E+00 0.  1.
          6    2    1    2  501    0 -0.90617685440E+02 -0.16828307458E+03 -0.20181554468E+03  0.32658427320E+03  0.17145557828E+03 0.  0.
         24    2    3    3    0    0  0.22554879261E+02 -0.63299192974E+02 -0.76760189854E+02  0.12786191269E+03  0.77078087416E+02 0.  0.
         -6    2    1    2    0  502  0.90617685440E+02  0.16828307458E+03 -0.14186451162E+01  0.25699913947E+03  0.17180159205E+03 0.  0.
        -24    2    5    5    0    0 -0.10025857603E+02  0.48941562191E+02 -0.27912607987E+02  0.98583422434E+02  0.80273178358E+02 0.  0.
          5    1    3    3  501    0 -0.11317256470E+03 -0.10498388161E+03 -0.12505535482E+03  0.19872236051E+03  0.47000000000E+01 0. -1.
        -11    1    4    4    0    0 -0.62805377665E+01 -0.39278661831E+02 -0.80854759505E+02  0.90109658553E+02  0.00000000000E+00 0.  1.
         12    1    4    4    0    0  0.28835417027E+02 -0.24020531143E+02  0.40945696505E+01  0.37752254133E+02  0.00000000000E+00 0. -1.
         -5    1    5    5    0  502  0.10064354304E+03  0.11934151239E+03  0.26493962871E+02  0.15841571704E+03  0.47000000000E+01 0.  1.
         13    1    6    6    0    0 -0.25376800885E+02 -0.12974160315E+02 -0.18805841902E+02  0.34146310909E+02  0.00000000000E+00 0. -1.
        -14    1    6    6    0    0  0.15350943282E+02  0.61915722506E+02 -0.91067660851E+01  0.64437111525E+02  0.00000000000E+00 0.  1.
</event>
<event>
12    1  0.8356052E-002  0.1961784E+03  0.7818608E-02  0.1153050E+00
         21   -1    0    0  503  502  0.00000000000E+00  0.00000000000E+00  0.15666086318E+04  0.15666086318E+04  0.00000000000E+00 0. -1.
         21   -1    0    0  501  503 -0.00000000000E+00 -0.00000000000E+00 -0.33060757623E+02  0.33060757623E+02  0.00000000000E+00 0. -1.
          6    2    1    2  501    0 -0.37302154600E+02 -0.89156400246E+02  0.36040846167E+03  0.41024010016E+03  0.17047687846E+03 0.  0.
         24    2    3    3    0    0 -0.68447382228E+02 -0.11172159292E+02  0.24869339323E+03  0.27040479146E+03  0.80377149310E+02 0.  0.
         -6    2    1    2    0  502  0.37302154600E+02  0.89156400246E+02  0.11731394125E+04  0.11894292893E+04  0.17072093765E+03 0.  0.
        -24    2    5    5    0    0  0.57664845088E+02  0.37168586329E+02  0.10184261351E+04  0.10248824565E+04  0.92116876176E+02 0.  0.
          5    1    3    3  501    0  0.31145227628E+02 -0.77984240954E+02  0.11171506845E+03  0.13983530870E+03  0.47000000000E+01 0. -1.
        -11    1    4    4    0    0 -0.34600342951E+02 -0.53148849417E+01  0.22489839012E+02  0.41607987130E+02  0.00000000000E+00 0.  1.
         12    1    4    4    0    0 -0.33847039277E+02 -0.58572743505E+01  0.22620355422E+03  0.22879680433E+03  0.00000000000E+00 0. -1.
         -5    1    5    5    0  502 -0.20362690488E+02  0.51987813917E+02  0.15471327744E+03  0.16454683277E+03  0.47000000000E+01 0.  1.
         13    1    6    6    0    0 -0.67744691558E+01  0.30727359697E+02  0.11776562834E+03  0.12189670744E+03  0.00000000000E+00 0. -1.
        -14    1    6    6    0    0  0.64439314244E+02  0.64412266324E+01  0.90066050675E+03  0.90298574908E+03  0.00000000000E+00 0.  1.
</event>
<event>
12    1  0.8356052E-002  0.1996940E+03  0.7818608E-02  0.1150633E+00
         21   -1    0    0  501  502  0.00000000000E+00  0.00000000000E+00  0.84922563730E+02  0.84922563730E+02  0.00000000000E+00 0. -1.
         21   -1    0    0  502  503 -0.00000000000E+00 -0.00000000000E+00 -0.46376039389E+03  0.46376039389E+03  0.00000000000E+00 0. -1.
         -6    2    1    2    0  503  0.31458007393E+02 -0.92021607707E+02 -0.20462142554E+03  0.28591543870E+03  0.17441366857E+03 0.  0.
        -24    2    3    3    0    0  0.20218707406E+02 -0.13131265996E+03 -0.13901932623E+03  0.20848266731E+03  0.80540913245E+02 0.  0.
          6    2    1    2  501    0 -0.31458007393E+02  0.92021607707E+02 -0.17421640463E+03  0.26276751892E+03  0.17099073322E+03 0.  0.
         24    2    5    5    0    0  0.10474274878E+02 -0.12808028641E+02 -0.51062211316E+02  0.95625021984E+02  0.79139366772E+02 0.  0.
          5    1    5    5  501    0 -0.41932282271E+02  0.10482963635E+03 -0.12315419331E+03  0.16714249694E+03  0.47000000000E+01 0. -1.
        -13    1    6    6    0    0  0.44812943785E+02 -0.50466449880E+01 -0.23110953514E+02  0.50673313772E+02  0.00000000000E+00 0.  1.
         14    1    6    6    0    0 -0.34338668907E+02 -0.77613836533E+01 -0.27951257802E+02  0.44951708212E+02  0.00000000000E+00 0. -1.
         -5    1    3    3    0  503  0.11239299987E+02  0.39291052257E+02 -0.65602099308E+02  0.77432771391E+02  0.47000000000E+01 0.  1.
         13    1    4    4    0    0 -0.12309787302E+02 -0.66698644944E+02 -0.11263837149E+03  0.13148248109E+03  0.00000000000E+00 0. -1.
        -14    1    4    4    0    0  0.32528494708E+02 -0.64614015020E+02 -0.26380954738E+02  0.77000186220E+02  0.00000000000E+00 0.  1.
</event>
<event>
12    1  0.8356052E-002  0.3042000E+03  0.7818608E-02  0.1083207E+00
         21   -1    0    0  503  502  0.00000000000E+00  0.00000000000E+00  0.89234743425E+03  0.89234743425E+03  0.00000000000E+00 0.  1.
         21   -1    0    0  501  503 -0.00000000000E+00 -0.00000000000E+00 -0.11506316373E+03  0.11506316373E+03  0.00000000000E+00 0. -1.
          6    2    1    2  501    0  0.20304621661E+03  0.14723631565E+03  0.22921567329E+03  0.38057980256E+03  0.17144930013E+03 0.  0.
         24    2    3    3    0    0  0.22575498045E+03  0.13047850379E+03  0.19051278459E+03  0.33244960615E+03  0.78978911051E+02 0.  0.
         -6    2    1    2    0  502 -0.20304621661E+03 -0.14723631565E+03  0.54806859723E+03  0.62683079542E+03  0.17213761962E+03 0.  0.
        -24    2    5    5    0    0 -0.63136097432E+02  0.96444816529E+01  0.13033658986E+03  0.15916794037E+03  0.65327052283E+02 0.  0.
          5    1    3    3  501    0 -0.22708763838E+02  0.16757811863E+02  0.38702888692E+02  0.48130196411E+02  0.47000000000E+01 0. -1.
        -13    1    4    4    0    0  0.10751564568E+03  0.75592137497E+02  0.14165927957E+03  0.19323854897E+03  0.00000000000E+00 0.  1.
         14    1    4    4    0    0  0.11823933476E+03  0.54886366290E+02  0.48853505020E+02  0.13921105718E+03  0.00000000000E+00 0. -1.
         -5    1    5    5    0  502 -0.13991011918E+03 -0.15688079730E+03  0.41773200737E+03  0.46766285504E+03  0.47000000000E+01 0.  1.
         11    1    6    6    0    0 -0.23585232577E+02  0.26038402895E+02  0.19126221046E+02  0.40000924395E+02  0.00000000000E+00 0. -1.
        -12    1    6    6    0    0 -0.39550864855E+02 -0.16393921242E+02  0.11121036882E+03  0.11916701598E+03  0.00000000000E+00 0.  1.
</event>
<event>
12    1  0.8356052E-002  0.1785365E+03  0.7818608E-02  0.1169572E+00
         21   -1    0    0  503  502  0.00000000000E+00  0.00000000000E+00  0.10094260567E+04  0.10094260567E+04  0.00000000000E+00 0. -1.
         21   -1    0    0  501  503 -0.00000000000E+00 -0.00000000000E+00 -0.90679473541E+02  0.90679473541E+02  0.00000000000E+00 0. -1.
          6    2    1    2  501    0 -0.15382053099E+02  0.42021397313E+02  0.15001627809E+02  0.17916567590E+03  0.17283774239E+03 0.  0.
         24    2    3    3    0    0  0.37114651346E+01  0.54537718203E+02  0.69685447173E+02  0.11972132522E+03  0.80554307672E+02 0.  0.
         -6    2    1    2    0  502  0.15382053099E+02 -0.42021397313E+02  0.90374495538E+03  0.92093985437E+03  0.17138513824E+03 0.  0.
        -24    2    5    5    0    0  0.63246298190E+02 -0.25197940717E+02  0.36560416320E+03  0.38039233856E+03  0.79980601594E+02 0.  0.
          5    1    3    3  501    0 -0.19093518234E+02 -0.12516320890E+02 -0.54683819364E+02  0.59444350677E+02  0.47000000000E+01 0. -1.
        -13    1    4    4    0    0 -0.38321168142E+02  0.27897832850E+02  0.37700392105E+02  0.60565011106E+02  0.00000000000E+00 0.  1.
         14    1    4    4    0    0  0.42032633276E+02  0.26639885353E+02  0.31985055068E+02  0.59156314113E+02  0.00000000000E+00 0. -1.
         -5    1    5    5    0  502 -0.47864245091E+02 -0.16823456596E+02  0.53814079217E+03  0.54054751581E+03  0.47000000000E+01 0.  1.
         11    1    6    6    0    0 -0.17919757448E+02  0.46956501921E+01  0.66730007944E+02  0.69253597725E+02  0.00000000000E+00 0. -1.
        -12    1    6    6    0    0  0.81166055638E+02 -0.29893590909E+02  0.29887415526E+03  0.31113874083E+03  0.00000000000E+00 0.  1.
</event>
<event>
12    1  0.8356052E-002  0.2758896E+03  0.7818608E-02  0.1098481E+00
         21   -1    0    0  501  502  0.00000000000E+00  0.00000000000E+00  0.57068203863E+03  0.57068203863E+03  0.00000000000E+00 0. -1.
         21   -1    0    0  502  503 -0.00000000000E+00 -0.00000000000E+00 -0.13874914258E+03  0.13874914258E+03  0.00000000000E+00 0.  1.
         -6    2    1    2    0  503 -0.13908935040E+02 -0.21513135377E+03  0.13387134913E+03  0.30328371546E+03  0.16608586965E+03 0.  0.
        -24    2    3    3    0    0  0.34456705995E+02 -0.78179943523E+02  0.20759479596E+02  0.11913348051E+03  0.80389439785E+02 0.  0.
          6    2    1    2  501    0  0.13908935040E+02  0.21513135377E+03  0.29806154693E+03  0.40614746575E+03  0.17216306318E+03 0.  0.
         24    2    5    5    0    0 -0.58905862257E+02  0.11316926446E+03  0.16620214278E+03  0.22419347479E+03  0.79764521229E+02 0.  0.
          5    1    5    5  501    0  0.72814797298E+02  0.10196208931E+03  0.13185940415E+03  0.18195399096E+03  0.47000000000E+01 0. -1.
        -11    1    6    6    0    0 -0.18257695255E+02  0.10234628055E+03  0.91646440247E+02  0.13858995126E+03  0.00000000000E+00 0.  1.
         12    1    6    6    0    0 -0.40648167002E+02  0.10822983910E+02  0.74555702536E+02  0.85603523537E+02  0.00000000000E+00 0. -1.
         -5    1    3    3    0  503 -0.48365641035E+02 -0.13695141025E+03  0.11311186953E+03  0.18415023495E+03  0.47000000000E+01 0.  1.
         11    1    4    4    0    0  0.18792438984E+02 -0.72700706044E+02  0.46635310879E+02  0.88393442307E+02  0.00000000000E+00 0. -1.
        -12    1    4    4    0    0  0.15664267011E+02 -0.54792374790E+01 -0.25875831282E+02  0.30740038206E+02  0.00000000000E+00 0.  1.
</event>
<event>
12    1  0.8356052E-002  0.2019700E+03  0.7818608E-02  0.1148689E+00
         21   -1    0    0  503  502  0.00000000000E+00  0.00000000000E+00  0.58968689617E+03  0.58968689617E+03  0.00000000000E+00 0. -1.
         21   -1    0    0  501  503 -0.00000000000E+00 -0.00000000000E+00 -0.12789613867E+03  0.12789613867E+03  0.00000000000E+00 0. -1.
          6    2    1    2  501    0  0.97642020630E+02 -0.41474763898E+02 -0.13350672955E+02  0.20241075878E+03  0.17186551303E+03 0.  0.
         24    2    3    3    0    0  0.18713191301E+02 -0.80420516314E+02 -0.47982425582E+01  0.11385701354E+03  0.78248025069E+02 0.  0.
         -6    2    1    2    0  502 -0.97642020630E+02  0.41474763898E+02  0.47514143045E+03  0.51517227606E+03  0.16849028119E+03 0.  0.
        -24    2    5    5    0    0 -0.71663509749E+02 -0.37723417022E+02  0.23465951717E+03  0.26061211518E+03  0.79340221592E+02 0.  0.
          5    1    3    3  501    0  0.78928829329E+02  0.38945752416E+02 -0.85524303967E+01  0.88553745241E+02  0.47000000000E+01 0. -1.
        -11    1    4    4    0    0 -0.66481675823E+01 -0.18790572040E+02 -0.35320094247E+02  0.40556045017E+02  0.00000000000E+00 0.  1.
         12    1    4    4    0    0  0.25361358883E+02 -0.61629944274E+02  0.30521851689E+02  0.73300968521E+02  0.00000000000E+00 0. -1.
         -5    1    5    5    0  502 -0.25978510880E+02  0.79198180919E+02  0.24048191329E+03  0.25456016088E+03  0.47000000000E+01 0.  1.
         11    1    6    6    0    0 -0.48943685811E+02  0.12824043947E+02  0.15880251537E+03  0.16666787145E+03  0.00000000000E+00 0. -1.
        -12    1    6    6    0    0 -0.22719823939E+02 -0.50547460968E+02  0.75857001794E+02  0.93944243737E+02  0.00000000000E+00 0.  1.
</event>
<event>
12    1  0.8356052E-002  0.2291588E+03  0.7818608E-02  0.1128050E+00
         21   -1    0    0  501  502  0.00000000000E+00  0.00000000000E+00  0.10416436136E+03  0.10416436136E+03  0.00000000000E+00 0.  1.
         21   -1    0    0  502  503 -0.00000000000E+00 -0.00000000000E+00 -0.62472623003E+03  0.62472623003E+03  0.00000000000E+00 0. -1.
         -6    2    1    2    0  503 -0.72731865650E+02 -0.13298396607E+03 -0.42482268359E+03  0.48053647045E+03  0.16572968179E+03 0.  0.
        -24    2    3    3    0    0 -0.52141630873E+02 -0.15848160808E+03 -0.39465715452E+03  0.43574655350E+03  0.79281898983E+02 0.  0.
          6    2    1    2  501    0  0.72731865650E+02  0.13298396607E+03 -0.95739185077E+02  0.24835412094E+03  0.17186948047E+03 0.  0.
         24    2    5    5    0    0  0.75798271655E+02  0.14338475948E+02 -0.49075800573E+02  0.12073861786E+03  0.78856894205E+02 0.  0.
          5    1    5    5  501    0 -0.30664060048E+01  0.11864549013E+03 -0.46663384504E+02  0.12761550308E+03  0.47000000000E+01 0. -1.
        -11    1    6    6    0    0  0.46526372131E+02 -0.42444923548E+01 -0.67020830524E+02  0.81697678934E+02  0.00000000000E+00 0.  1.
         12    1    6    6    0    0  0.29271899523E+02  0.18582968302E+02  0.17945029951E+02  0.39040938931E+02  0.00000000000E+00 0. -1.
         -5    1    3    3    0  503 -0.20590234777E+02  0.25497642006E+02 -0.30165529070E+02  0.44789916948E+02  0.47000000000E+01 0.  1.
         11    1    4    4    0    0  0.15676053076E+02 -0.34963342231E+02 -0.47144139619E+02  0.60751492495E+02  0.00000000000E+00 0. -1.
        -12    1    4    4    0    0 -0.67817683949E+02 -0.12351826585E+03 -0.34751301490E+03  0.37499506101E+03  0.00000000000E+00 0.  1.
</event>
<event>
12    1  0.8356052E-002  0.2181929E+03  0.7818608E-02  0.1135335E+00
         21   -1    0    0  503  502  0.00000000000E+00  0.00000000000E+00  0.15861964212E+04  0.15861964212E+04  0.00000000000E+00 0.  1.
         21   -1    0    0  501  503 -0.00000000000E+00 -0.00000000000E+00 -0.54936984085E+02  0.54936984085E+02  0.00000000000E+00 0.  1.
          6    2    1    2  501    0  0.12305950522E+03  0.50980196873E+02  0.21264871888E+03  0.30467622901E+03  0.17281638980E+03 0.  0.
         24    2    3    3    0    0  0.14290340756E+02  0.27112648321E+02  0.29070242352E+02  0.89912316638E+02  0.79371507198E+02 0.  0.
         -6    2    1    2    0  502 -0.12305950522E+03 -0.50980196873E+02  0.13186107182E+04  0.13364571763E+04  0.17216543056E+03 0.  0.
        -24    2    5    5    0    0 -0.13864057784E+03 -0.74997707267E+02  0.94217597274E+03  0.95890609597E+03  0.83423446047E+02 0.  0.
          5    1    3    3  501    0  0.10876916446E+03  0.23867548552E+02  0.18357847653E+03  0.21476391237E+03  0.47000000000E+01 0. -1.
        -11    1    4    4    0    0  0.20456481010E+02 -0.18190376796E+02 -0.10624948763E+02  0.29364041947E+02  0.00000000000E+00 0.  1.
         12    1    4    4    0    0 -0.61661402535E+01  0.45303025117E+02  0.39695191115E+02  0.60548274690E+02  0.00000000000E+00 0. -1.
         -5    1    5    5    0  502  0.15581072621E+02  0.24017510394E+02  0.37643474549E+03  0.37755108031E+03  0.47000000000E+01 0.  1.
         13    1    6    6    0    0 -0.98679692695E+02 -0.66008284961E+02  0.46286020106E+03  0.47784342745E+03  0.00000000000E+00 0. -1.
        -14    1    6    6    0    0 -0.39960885145E+02 -0.89894223056E+01  0.47931577169E+03  0.48106266852E+03  0.00000000000E+00 0.  1.
</event>
<event>
12    1  0.8356052E-002  0.1880271E+03  0.7818608E-02  0.1160822E+00
         21   -1    0    0  503  502  0.00000000000E+00  0.00000000000E+00  0.21726716890E+03  0.21726716890E+03  0.00000000000E+00 0. -1.
         21   -1    0    0  501  503 -0.00000000000E+00 -0.00000000000E+00 -0.21277432689E+03  0.21277432689E+03  0.00000000000E+00 0. -1.
          6    2    1    2  501    0  0.70933213848E+02  0.21799529481E+02 -0.10424844146E+03  0.21283458888E+03  0.17007082162E+03 0.  0.
         24    2    3    3    0    0  0.55714160457E+02 -0.12732819333E+02  0.41760591059E+01  0.97934349444E+02  0.79419802113E+02 0.  0.
         -6    2    1    2    0  502 -0.70933213848E+02 -0.21799529481E+02  0.10874128347E+03  0.21720690690E+03  0.17276409744E+03 0.  0.
        -24    2    5    5    0    0 -0.30215056137E+02  0.63434046495E+01  0.13581500235E+03  0.16059357488E+03  0.79946188337E+02 0.  0.
          5    1    3    3  501    0  0.15219053390E+02  0.34532348814E+02 -0.10842450056E+03  0.11490023944E+03  0.47000000000E+01 0. -1.
        -13    1    4    4    0    0  0.25907768686E+02 -0.32966008787E+01  0.41631479424E+02  0.49145296160E+02  0.00000000000E+00 0.  1.
         14    1    4    4    0    0  0.29806391771E+02 -0.94362184540E+01 -0.37455420318E+02  0.48789053284E+02  0.00000000000E+00 0. -1.
         -5    1    5    5    0  502 -0.40718157711E+02 -0.28142934131E+02 -0.27073718880E+02  0.56613332024E+02  0.47000000000E+01 0.  1.
         11    1    6    6    0    0 -0.14534612194E+02 -0.20817094119E+02  0.47513087408E+01  0.25829852767E+02  0.00000000000E+00 0. -1.
        -12    1    6    6    0    0 -0.15680443943E+02  0.27160498769E+02  0.13106369361E+03  0.13476372211E+03  0.00000000000E+00 0.  1.
</event>
<event>
12    1  0.8356052E-002  0.2107861E+03  0.7818608E-02  0.1141220E+00
         21   -1    0    0  501  502  0.00000000000E+00  0.00000000000E+00  0.19644780522E+03  0.19644780522E+03  0.00000000000E+00 0. -1.
         21   -1    0    0  502  503 -0.00000000000E+00 -0.00000000000E+00 -0.37268181662E+03  0.37268181662E+03  0.00000000000E+00 0. -1.
         -6    2    1    2    0  503 -0.11336661483E+03 -0.36558191998E+02 -0.26762039792E+03  0.34066328626E+03  0.17390315253E+03 0.  0.
        -24    2    3    3    0    0 -0.88208596657E+02 -0.60186405073E+02 -0.94826720110E+02  0.16439371026E+03  0.81424966966E+02 0.  0.
          6    2    1    2  501    0  0.11336661483E+03  0.36558191998E+02  0.91386386519E+02  0.22846633558E+03  0.17221180010E+03 0.  0.
         24    2    5    5    0    0  0.25937848713E+02  0.69060142166E+02  0.18985371100E+02  0.11029627616E+03  0.79766841406E+02 0.  0.
          5    1    5    5  501    0  0.87428766114E+02 -0.32501950168E+02  0.72401015419E+02  0.11817005942E+03  0.47000000000E+01 0. -1.
        -13    1    6    6    0    0  0.33645928172E+02  0.10437316905E+02 -0.18993967139E+02  0.40021954655E+02  0.00000000000E+00 0.  1.
         14    1    6    6    0    0 -0.77080794592E+01  0.58622825261E+02  0.37979338238E+02  0.70274321509E+02  0.00000000000E+00 0. -1.
         -5    1    3    3    0  503 -0.25158018170E+02  0.23628213075E+02 -0.17279367781E+03  0.17626957600E+03  0.47000000000E+01 0.  1.
         11    1    4    4    0    0 -0.30337563751E+02 -0.18592681875E+02  0.10610307809E+02  0.37129963984E+02  0.00000000000E+00 0. -1.
        -12    1    4    4    0    0 -0.57871032906E+02 -0.41593723198E+02 -0.10543702792E+03  0.12726374627E+03  0.00000000000E+00 0.  1.
</event>
<event>
12    1  0.8356052E-002  0.2024329E+03  0.7818608E-02  0.1147804E+00
         21   -1    0    0  503  502  0.00000000000E+00  0.00000000000E+00  0.25739613789E+02  0.25739613789E+02  0.00000000000E+00 0. -1.
         21   -1    0    0  501  503 -0.00000000000E+00 -0.00000000000E+00 -0.15934774775E+04  0.15934774775E+04  0.00000000000E+00 0. -1.
          6    2    1    2  501    0  0.10514491493E+03  0.14249267486E+02 -0.73644603163E+03  0.76363239006E+03  0.17182309186E+03 0.  0.
         24    2    3    3    0    0 -0.12672320605E+02 -0.30027565148E+01 -0.35283443707E+03  0.36193788076E+03  0.79607068126E+02 0.  0.
         -6    2    1    2    0  502 -0.10514491493E+03 -0.14249267486E+02 -0.83129183204E+03  0.85558470118E+03  0.17239656644E+03 0.  0.
        -24    2    5    5    0    0 -0.13923056549E+03  0.85927416244E+01 -0.65980155102E+03  0.67919140358E+03  0.80646701062E+02 0.  0.
          5    1    3    3  501    0  0.11781723553E+03  0.17252024001E+02 -0.38361159456E+03  0.40169450930E+03  0.47000000000E+01 0. -1.
        -11    1    4    4    0    0 -0.27054463731E+02 -0.34911738645E+02 -0.16161248017E+03  0.16753915139E+03  0.00000000000E+00 0.  1.
         12    1    4    4    0    0  0.14382143126E+02  0.31908982130E+02 -0.19122195690E+03  0.19439872937E+03  0.00000000000E+00 0. -1.
         -5    1    5    5    0  502  0.34085650562E+02 -0.22842009110E+02 -0.17149028102E+03  0.17639329760E+03  0.47000000000E+01 0.  1.
         13    1    6    6    0    0 -0.55868539315E+02  0.40913530262E+02 -0.23043988639E+03  0.24061951683E+03  0.00000000000E+00 0. -1.
        -14    1    6    6    0    0 -0.83362026174E+02 -0.32320788638E+02 -0.42936166463E+03  0.43857188675E+03  0.00000000000E+00 0.  1.
</event>
<event>
12    1  0.8356052E-002  0.2142742E+03  0.7818608E-02  0.1138362E+00
         21   -1    0    0  503  502  0.00000000000E+00  0.00000000000E+00  0.87888559130E+03  0.87888559130E+03  0.00000000000E+00 0. -1.
         21   -1    0    0  501  503 -0.00000000000E+00 -0.00000000000E+00 -0.10467779940E+03  0.10467779940E+03  0.00000000000E+00 0. -1.
          6    2    1    2  501    0  0.82738654339E+02 -0.98166823644E+02  0.73542551920E+03  0.76580777913E+03  0.17067058946E+03 0.  0.
         24    2    3    3    0    0 -0.79513425135E+01 -0.21877445948E+02  0.18955157391E+03  0.20719771941E+03  0.80369454821E+02 0.  0.
         -6    2    1    2    0  502 -0.82738654339E+02  0.98166823644E+02  0.38782272709E+02  0.21775561157E+03  0.17155474784E+03 0.  0.
        -24    2    5    5    0    0 -0.59723370715E+02 -0.98730241215E+01  0.36787443719E+01  0.10175276812E+03  0.81705171472E+02 0.  0.
          5    1    3    3  501    0  0.90689996852E+02 -0.76289377696E+02  0.54587394529E+03  0.55861005973E+03  0.47000000000E+01 0. -1.
        -13    1    4    4    0    0  0.33540858686E+02 -0.57643724658E+00  0.10978959740E+03  0.11480016192E+03  0.00000000000E+00 0.  1.
         14    1    4    4    0    0 -0.41492201200E+02 -0.21301008702E+02  0.79761976509E+02  0.92397557482E+02  0.00000000000E+00 0. -1.
         -5    1    5    5    0  502 -0.23015283623E+02  0.10803984777E+03  0.35103528337E+02  0.11600284344E+03  0.47000000000E+01 0.  1.
         11    1    6    6    0    0 -0.32553343384E+02  0.31720565855E+02  0.19720021827E+02  0.49545874949E+02  0.00000000000E+00 0. -1.
        -12    1    6    6    0    0 -0.27170027331E+02 -0.41593589976E+02 -0.16041277455E+02  0.52206893172E+02  0.00000000000E+00 0.  1.
</event>
<event>
12    1  0.8356052E-002  0.2178667E+03  0.7818608E-02  0.1138549E+00
         21   -1    0    0  503  502  0.00000000000E+00  0.00000000000E+00  0.14224488610E+03  0.14224488610E+03  0.00000000000E+00 0.  1.
         21   -1    0    0  501  503 -0.00000000000E+00 -0.00000000000E+00 -0.31499698171E+03  0.31499698171E+03  0.00000000000E+00 0. -1.
          6    2    1    2  501    0 -0.11290205503E+03  0.71221848055E+02 -0.55062812330E+02  0.20961983990E+03  0.15195110499E+03 0.  0.
         24    2    3    3    0    0 -0.79040101334E+02  0.93539208328E+01 -0.77140889122E+02  0.13556713028E+03  0.78057008550E+02 0.  0.
         -6    2    1    2    0  502  0.11290205503E+03 -0.71221848055E+02 -0.11768928328E+03  0.24762202791E+03  0.17218151944E+03 0.  0.
        -24    2    5    5    0    0 -0.55193456554E+01 -0.20786450767E+02 -0.70320726095E+02  0.11038782062E+03  0.82328164753E+02 0.  0.
          5    1    3    3  501    0 -0.33861953693E+02  0.61867927222E+02  0.22078076792E+02  0.74052709616E+02  0.47000000000E+01 0. -1.
        -13    1    4    4    0    0 -0.13581682444E+02  0.11792322806E+02  0.14374286279E+02  0.23024792751E+02  0.00000000000E+00 0.  1.
         14    1    4    4    0    0 -0.65458418890E+02 -0.24384019733E+01 -0.91515175401E+02  0.11254233753E+03  0.00000000000E+00 0. -1.
         -5    1    5    5    0  502  0.11842140068E+03 -0.50435397288E+02 -0.47368557188E+02  0.13723420729E+03  0.47000000000E+01 0.  1.
         11    1    6    6    0    0  0.32219250364E+02 -0.32075541878E+02 -0.33559923931E+02  0.56508308902E+02  0.00000000000E+00 0. -1.
        -12    1    6    6    0    0 -0.37738596019E+02  0.11289091111E+02 -0.36760802165E+02  0.53879511722E+02  0.00000000000E+00 0.  1.
</event>
<event>
12    1  0.8356052E-002  0.2640342E+03  0.7818608E-02  0.1104815E+00
         21   -1    0    0  503  502  0.00000000000E+00  0.00000000000E+00  0.11830447358E+04  0.11830447358E+04  0.00000000000E+00 0.  1.
         21   -1    0    0  501  503 -0.00000000000E+00 -0.00000000000E+00 -0.64501094671E+02  0.64501094671E+02  0.00000000000E+00 0. -1.
          6    2    1    2  501    0 -0.17172290133E+02 -0.19972270482E+03  0.74487769698E+03  0.79028907987E+03  0.17184295140E+03 0.  0.
         24    2    3    3    0    0  0.34908191310E+02 -0.12997696936E+03  0.31419232450E+03  0.35087034537E+03  0.79250161548E+02 0.  0.
         -6    2    1    2    0  502  0.17172290133E+02  0.19972270482E+03  0.37366594419E+03  0.45725675064E+03  0.17109486195E+03 0.  0.
        -24    2    5    5    0    0 -0.88723684070E+01  0.20788076743E+03  0.36514242502E+03  0.42828057761E+03  0.82475027868E+02 0.  0.
          5    1    3    3  501    0 -0.52080481443E+02 -0.69745735460E+02  0.43068537248E+03  0.43941873450E+03  0.47000000000E+01 0. -1.
        -13    1    4    4    0    0  0.33659118434E+02 -0.12938733583E+03  0.31899215799E+03  0.34587572304E+03  0.00000000000E+00 0.  1.
         14    1    4    4    0    0  0.12490728755E+01 -0.58963353087E+00 -0.47998334922E+01  0.49946223382E+01  0.00000000000E+00 0. -1.
         -5    1    5    5    0  502  0.26044658540E+02 -0.81580626163E+01  0.85235191756E+01  0.28976173027E+02  0.47000000000E+01 0.  1.
         11    1    6    6    0    0  0.28459099338E+02  0.10473307422E+03  0.13407106400E+03  0.17249344153E+03  0.00000000000E+00 0. -1.
        -12    1    6    6    0    0 -0.37331467745E+02  0.10314769321E+03  0.23107136102E+03  0.25578713608E+03  0.00000000000E+00 0.  1.
</event>
<event>
12    1  0.8356052E-002  0.3933909E+03  0.7818608E-02  0.1046781E+00
         21   -1    0    0  503  502  0.00000000000E+00  0.00000000000E+00  0.42897936333E+03  0.42897936333E+03  0.00000000000E+00 0. -1.
         21   -1    0    0  501  503 -0.00000000000E+00 -0.00000000000E+00 -0.35532042463E+03  0.35532042463E+03  0.00000000000E+00 0. -1.
          6    2    1    2  501    0 -0.35097208495E+03  0.49583116533E+02  0.10882062485E+02  0.39354136455E+03  0.17063556625E+03 0.  0.
         24    2    3    3    0    0 -0.68910536662E+02 -0.20433333223E+02  0.38791690474E+00  0.10269219857E+03  0.73344079502E+02 0.  0.
         -6    2    1    2    0  502  0.35097208495E+03 -0.49583116533E+02  0.62776876223E+02  0.39075842341E+03  0.15202407513E+03 0.  0.
        -24    2    5    5    0    0  0.32503911344E+03 -0.91343639923E+01  0.70692643279E+02  0.34183634290E+03  0.78235373350E+02 0.  0.
          5    1    3    3  501    0 -0.28206154829E+03  0.70016449756E+02  0.10494145580E+02  0.29084916598E+03  0.47000000000E+01 0. -1.
        -11    1    4    4    0    0 -0.32962739019E+02  0.15713296265E+02 -0.26441651143E+02  0.45084484674E+02  0.00000000000E+00 0.  1.
         12    1    4    4    0    0 -0.35947797643E+02 -0.36146629488E+02  0.26829568048E+02  0.57607713896E+02  0.00000000000E+00 0. -1.
         -5    1    5    5    0  502  0.25932971514E+02 -0.40448752541E+02 -0.79157670568E+01  0.48922080513E+02  0.47000000000E+01 0.  1.
         11    1    6    6    0    0  0.17626294180E+03  0.14409384417E+02  0.34589742493E+01  0.17688476338E+03  0.00000000000E+00 0. -1.
        -12    1    6    6    0    0  0.14877617163E+03 -0.23543748410E+02  0.67233669030E+02  0.16495157952E+03  0.00000000000E+00 0.  1.
</event>
<event>
12    1  0.8356052E-002  0.2147165E+03  0.7818608E-02  0.1137973E+00
         21   -1    0    0  503  502  0.00000000000E+00  0.00000000000E+00  0.81959428055E+02  0.81959428055E+02  0.00000000000E+00 0.  1.
         21   -1    0    0  501  503 -0.00000000000E+00 -0.00000000000E+00 -0.57523818637E+03  0.57523818637E+03  0.00000000000E+00 0. -1.
          6    2    1    2  501    0  0.42164187061E+01  0.12826846360E+03 -0.29802618141E+03  0.36731836585E+03  0.17214122150E+03 0.  0.
         24    2    3    3    0    0  0.46944122998E+02  0.83839196566E+02 -0.10003176684E+03  0.15989730933E+03  0.79548938334E+02 0.  0.
         -6    2    1    2    0  502 -0.42164187061E+01 -0.12826846360E+03 -0.19525257690E+03  0.28987924857E+03  0.17156874140E+03 0.  0.
        -24    2    5    5    0    0 -0.64266930928E+02 -0.87473606724E+02 -0.95429717813E+02  0.16636011013E+03  0.82383159182E+02 0.  0.
          5    1    3    3  501    0 -0.42727704292E+02  0.44429267034E+02 -0.19799441457E+03  0.20742105652E+03  0.47000000000E+01 0. -1.
        -11    1    4    4    0    0 -0.19389234293E+02  0.20073515868E+02 -0.64215153597E+01  0.28637812509E+02  0.00000000000E+00 0.  1.
         12    1    4    4    0    0  0.66333357292E+02  0.63765680698E+02 -0.93610251480E+02  0.13125949682E+03  0.00000000000E+00 0. -1.
         -5    1    5    5    0  502  0.60050512222E+02 -0.40794856876E+02 -0.99822859082E+02  0.12351913844E+03  0.47000000000E+01 0.  1.
         13    1    6    6    0    0  0.28773221507E+01  0.13093613952E+02 -0.19195248849E+02  0.23413228898E+02  0.00000000000E+00 0. -1.
        -14    1    6    6    0    0 -0.67144253079E+02 -0.10056722068E+03 -0.76234468965E+02  0.14294688123E+03  0.00000000000E+00 0.  1.
</event>
<event>
12    1  0.8356052E-002  0.1865932E+03  0.7818608E-02  0.1161736E+00
         21   -1    0    0  501  502  0.00000000000E+00  0.00000000000E+00  0.63059870140E+02  0.63059870140E+02  0.00000000000E+00 0.  1.
         21   -1    0    0  502  503 -0.00000000000E+00 -0.00000000000E+00 -0.73561465653E+03  0.73561465653E+03  0.00000000000E+00 0.  1.
         -6    2    1    2    0  503 -0.87009003062E+01 -0.71937982192E+02 -0.53638276825E+03  0.56767702967E+03  0.17117230206E+03 0.  0.
        -24    2    3    3    0    0 -0.17495438776E+02 -0.11684486863E+03 -0.39813939609E+03  0.42198113988E+03  0.74794986398E+02 0.  0.
          6    2    1    2  501    0  0.87009003062E+01  0.71937982192E+02 -0.13617201814E+03  0.23099749700E+03  0.17194838222E+03 0.  0.
         24    2    5    5    0    0  0.42171650198E+02 -0.15340636897E+02 -0.80370603921E+02  0.12203082192E+03  0.80114320217E+02 0.  0.
          5    1    5    5  501    0 -0.33470749892E+02  0.87278619090E+02 -0.55801414222E+02  0.10896667508E+03  0.47000000000E+01 0. -1.
        -13    1    6    6    0    0  0.31215628935E+02  0.31848619557E+01  0.69152018587E+01  0.32130652845E+02  0.00000000000E+00 0.  1.
         14    1    6    6    0    0  0.10956021263E+02 -0.18525498853E+02 -0.87285805780E+02  0.89900169078E+02  0.00000000000E+00 0. -1.
         -5    1    3    3    0  503  0.87945384701E+01  0.44906886438E+02 -0.13824337215E+03  0.14569588979E+03  0.47000000000E+01 0.  1.
         13    1    4    4    0    0  0.12804741678E+02 -0.41088265513E+02 -0.58181429576E+02  0.72369093678E+02  0.00000000000E+00 0. -1.
        -14    1    4    4    0    0 -0.30300180454E+02 -0.75756603118E+02 -0.33995796652E+03  0.34961204620E+03  0.00000000000E+00 0.  1.
</event>
<event>
12    1  0.8356052E-002  0.1932723E+03  0.7818608E-02  0.1155830E+00
         21   -1    0    0  503  502  0.00000000000E+00  0.00000000000E+00  0.99441531163E+03  0.99441531163E+03  0.00000000000E+00 0.  1.
         21   -1    0    0  501  503 -0.00000000000E+00 -0.00000000000E+00 -0.14050752260E+03  0.14050752260E+03  0.00000000000E+00 0.  1.
          6    2    1    2  501    0 -0.56088155904E+02 -0.65078085902E+02 -0.59741745699E+02  0.20105472461E+03  0.17167669501E+03 0.  0.
         24    2    3    3    0    0 -0.10417949185E+03 -0.38646090143E+02 -0.52131528670E+02  0.14545407356E+03  0.78053215367E+02 0.  0.
         -6    2    1    2    0  502  0.56088155904E+02  0.65078085902E+02  0.91364953473E+03  0.93386810962E+03  0.17312751187E+03 0.  0.
        -24    2    5    5    0    0  0.23001164816E+02  0.15884452609E+02  0.14827274244E+03  0.16618426408E+03  0.69649365103E+02 0.  0.
          5    1    3    3  501    0  0.48091335949E+02 -0.26431995759E+02 -0.76102170286E+01  0.55600651043E+02  0.47000000000E+01 0. -1.
        -11    1    4    4    0    0 -0.52136213311E+02 -0.31488093749E+02 -0.67305896166E+02  0.90773170293E+02  0.00000000000E+00 0.  1.
         12    1    4    4    0    0 -0.52043278542E+02 -0.71579963934E+01  0.15174367496E+02  0.54680903272E+02  0.00000000000E+00 0. -1.
         -5    1    5    5    0  502  0.33086991087E+02  0.49193633292E+02  0.76537679229E+03  0.76768384555E+03  0.47000000000E+01 0.  1.
         13    1    6    6    0    0  0.13824967377E+02  0.41642441175E+02  0.11519169256E+03  0.12326535874E+03  0.00000000000E+00 0. -1.
        -14    1    6    6    0    0  0.91761974394E+01 -0.25757988566E+02  0.33081049872E+02  0.42918905334E+02  0.00000000000E+00 0.  1.
</event>
<event>
12    1  0.8356052E-002  0.2127190E+03  0.7818608E-02  0.1139629E+00
         21   -1    0    0  501  502  0.00000000000E+00  0.00000000000E+00  0.94664233858E+03  0.94664233858E+03  0.00000000000E+00 0.  1.
         21   -1    0    0  502  503 -0.00000000000E+00 -0.00000000000E+00 -0.21561564187E+03  0.21561564187E+03  0.00000000000E+00 0.  1.
         -6    2    1    2    0  503 -0.10787528812E+03 -0.57508489717E+02 -0.14732408060E+03  0.25875425979E+03  0.17408353759E+03 0.  0.
        -24    2    3    3    0    0 -0.14117521035E+03 -0.32120534232E+02 -0.13608717269E+03  0.21514472868E+03  0.82494648134E+02 0.  0.
          6    2    1    2  501    0  0.10787528812E+03  0.57508489717E+02  0.87835077731E+03  0.90350372066E+03  0.17284264829E+03 0.  0.
         24    2    5    5    0    0  0.14130110255E+03  0.26603891688E+02  0.72951611602E+03  0.74779172481E+03  0.79529438137E+02 0.  0.
          5    1    5    5  501    0 -0.33425814428E+02  0.30904598029E+02  0.14883466129E+03  0.15571199585E+03  0.47000000000E+01 0. -1.
        -11    1    6    6    0    0  0.59073654312E+02  0.45631825295E+02  0.43753935151E+03  0.44386106411E+03  0.00000000000E+00 0.  1.
         12    1    6    6    0    0  0.82227448239E+02 -0.19027933607E+02  0.29197676451E+03  0.30393066071E+03  0.00000000000E+00 0. -1.
         -5    1    3    3    0  503  0.33299922232E+02 -0.25387955485E+02 -0.11236907910E+02  0.43609531112E+02  0.47000000000E+01 0.  1.
         13    1    4    4    0    0 -0.43283024454E+01  0.64232976090E+01  0.90934506494E+01  0.11945032396E+02  0.00000000000E+00 0. -1.
        -14    1    4    4    0    0 -0.13684690791E+03 -0.38543831841E+02 -0.14518062334E+03  0.20319969629E+03  0.00000000000E+00 0.  1.
</event>
<event>
12    1  0.8356052E-002  0.1773462E+03  0.7818608E-02  0.1170686E+00
         21   -1    0    0  503  502  0.00000000000E+00  0.00000000000E+00  0.59100217585E+02  0.59100217585E+02  0.00000000000E+00 0. -1.
         21   -1    0    0  501  503 -0.00000000000E+00 -0.00000000000E+00 -0.67244160086E+03  0.67244160086E+03  0.00000000000E+00 0. -1.
          6    2    1    2  501    0  0.28848444092E+02 -0.28104664576E+02 -0.47659782231E+03  0.50852449015E+03  0.17271238505E+03 0.  0.
         24    2    3    3    0    0 -0.15694970927E+02  0.42850214034E+02 -0.22777840538E+03  0.24593754671E+03  0.80745290700E+02 0.  0.
         -6    2    1    2    0  502 -0.28848444092E+02  0.28104664576E+02 -0.13674356097E+03  0.22301732830E+03  0.17151041473E+03 0.  0.
        -24    2    5    5    0    0 -0.24122662423E+02  0.69635683160E+02 -0.36705132539E+02  0.11449573746E+03  0.79567430081E+02 0.  0.
          5    1    3    3  501    0  0.44543415020E+02 -0.70954878610E+02 -0.24881941693E+03  0.26258694343E+03  0.47000000000E+01 0. -1.
        -11    1    4    4    0    0  0.99136784653E+01  0.23862004094E+01  0.26908816301E+01  0.10545891003E+02  0.00000000000E+00 0.  1.
         12    1    4    4    0    0 -0.25608649393E+02  0.40464013625E+02 -0.23046928701E+03  0.23539165571E+03  0.00000000000E+00 0. -1.
         -5    1    5    5    0  502 -0.47257816695E+01 -0.41531018584E+02 -0.10003842843E+03  0.10852159084E+03  0.47000000000E+01 0.  1.
         11    1    6    6    0    0  0.25170201558E+00  0.31941703408E+02  0.23315131458E+02  0.39546569073E+02  0.00000000000E+00 0. -1.
        -12    1    6    6    0    0 -0.24374364438E+02  0.37693979752E+02 -0.60020263997E+02  0.74949168385E+02  0.00000000000E+00 0.  1.
</event>
<event>
12    1  0.8356052E-002  0.1888058E+03  0.7818608E-02  0.1159589E+00
         21   -1    0    0  501  502  0.00000000000E+00  0.00000000000E+00  0.12006886042E+04  0.12006886042E+04  0.00000000000E+00 0.  1.
         21   -1    0    0  502  503 -0.00000000000E+00 -0.00000000000E+00 -0.29895644836E+02  0.29895644836E+02  0.00000000000E+00 0. -1.
         -6    2    1    2    0  503  0.43296977751E+02  0.65515374161E+02  0.64066492159E+03  0.66790657319E+03  0.17169961042E+03 0.  0.
        -24    2    3    3    0    0  0.92002633288E+02  0.47831249587E+02  0.51734499924E+03  0.53406015974E+03  0.82595962478E+02 0.  0.
          6    2    1    2  501    0 -0.43296977751E+02 -0.65515374161E+02  0.53012803773E+03  0.56267767580E+03  0.17147459849E+03 0.  0.
         24    2    5    5    0    0  0.27686410502E+02  0.16714860505E+01  0.17344774204E+03  0.19281873117E+03  0.79533720387E+02 0.  0.
          5    1    5    5  501    0 -0.70983388253E+02 -0.67186860212E+02  0.35668029569E+03  0.36985894464E+03  0.47000000000E+01 0. -1.
        -13    1    6    6    0    0 -0.22649718328E+02 -0.49486231275E+01  0.10539330729E+03  0.10791314949E+03  0.00000000000E+00 0.  1.
         14    1    6    6    0    0  0.50336128830E+02  0.66201091780E+01  0.68054434748E+02  0.84905581678E+02  0.00000000000E+00 0. -1.
         -5    1    3    3    0  503 -0.48705655537E+02  0.17684124574E+02  0.12331992235E+03  0.13384641344E+03  0.47000000000E+01 0.  1.
         11    1    4    4    0    0  0.26989602551E+02  0.60548067850E+02  0.25286532790E+03  0.26141036938E+03  0.00000000000E+00 0. -1.
        -12    1    4    4    0    0  0.65013030737E+02 -0.12716818263E+02  0.26447967134E+03  0.27264979036E+03  0.00000000000E+00 0.  1.
</event>
<event>
12    1  0.8356052E-002  0.1921809E+03  0.7818608E-02  0.1156658E+00
         21   -1    0    0  503  502  0.00000000000E+00  0.00000000000E+00  0.16553818453E+03  0.16553818453E+03  0.00000000000E+00 0. -1.
         21   -1    0    0  501  503 -0.00000000000E+00 -0.00000000000E+00 -0.23640579760E+03  0.23640579760E+03  0.00000000000E+00 0. -1.
          6    2    1    2  501    0  0.51879135502E+02 -0.66166948593E+02 -0.84527544828E+02  0.20994855187E+03  0.17281197531E+03 0.  0.
         24    2    3    3    0    0 -0.35829368367E+02 -0.17713611835E+02 -0.53416872543E+02  0.10492250070E+03  0.80980572976E+02 0.  0.
         -6    2    1    2    0  502 -0.51879135502E+02  0.66166948593E+02  0.13659931759E+02  0.19199543025E+03  0.17206435341E+03 0.  0.
        -24    2    5    5    0    0 -0.35367371736E+02  0.10171658961E+03 -0.27205196816E+02  0.13517585569E+03  0.77040727169E+02 0.  0.
          5    1    3    3  501    0  0.87708503868E+02 -0.48453336758E+02 -0.31110672285E+02  0.10502605117E+03  0.47000000000E+01 0. -1.
        -11    1    4    4    0    0 -0.14538920986E+02  0.32354721038E+02 -0.26127834436E+02  0.44055328046E+02  0.00000000000E+00 0.  1.
         12    1    4    4    0    0 -0.21290447380E+02 -0.50068332873E+02 -0.27289038106E+02  0.60867172656E+02  0.00000000000E+00 0. -1.
         -5    1    5    5    0  502 -0.16511763766E+02 -0.35549641021E+02  0.40865128576E+02  0.56819574557E+02  0.47000000000E+01 0.  1.
         13    1    6    6    0    0  0.28634464213E+01  0.43626105636E+02 -0.45670865411E+02  0.63223922417E+02  0.00000000000E+00 0. -1.
        -14    1    6    6    0    0 -0.38230818157E+02  0.58090483978E+02  0.18465668595E+02  0.71951933278E+02  0.00000000000E+00 0.  1.
</event>
<event>
12    1  0.8356052E-002  0.2056300E+03  0.7818608E-02  0.1145783E+00
         21   -1    0    0  501  502  0.00000000000E+00  0.00000000000E+00  0.28676314516E+03  0.28676314516E+03  0.00000000000E+00 0.  1.
         21   -1    0    0  502  503 -0.00000000000E+00 -0.00000000000E+00 -0.15161024961E+03  0.15161024961E+03  0.00000000000E+00 0. -1.
         -6    2    1    2    0  503 -0.99369650028E+02  0.36090189591E+02  0.22307284067E+02  0.20683640428E+03  0.17637135278E+03 0.  0.
        -24    2    3    3    0    0 -0.50949378603E+02 -0.42624306453E+02 -0.94191540305E+01  0.10901436460E+03  0.85922875566E+02 0.  0.
          6    2    1    2  501    0  0.99369650028E+02 -0.36090189591E+02  0.11284561147E+03  0.23153699049E+03  0.17233228603E+03 0.  0.
         24    2    5    5    0    0  0.38003108117E+02 -0.37553479683E+02  0.12918293945E+03  0.16784246978E+03  0.92888980803E+02 0.  0.
          5    1    5    5  501    0  0.61366541910E+02  0.14632900923E+01 -0.16337327972E+02  0.63694520716E+02  0.47000000000E+01 0. -1.
        -11    1    6    6    0    0  0.69036363298E+02 -0.29543767343E+02  0.89221928490E+02  0.11661649184E+03  0.00000000000E+00 0.  1.
         12    1    6    6    0    0 -0.31033255181E+02 -0.80097123405E+01  0.39961010955E+02  0.51225977935E+02  0.00000000000E+00 0. -1.
         -5    1    3    3    0  503 -0.48420271424E+02  0.78714496044E+02  0.31726438098E+02  0.97822039677E+02  0.47000000000E+01 0.  1.
         13    1    4    4    0    0 -0.62769582132E+02 -0.35252070665E+02  0.21473897722E+02  0.75125609552E+02  0.00000000000E+00 0. -1.
        -14    1    4    4    0    0  0.11820203529E+02 -0.73722357876E+01 -0.30893051753E+02  0.33888755046E+02  0.00000000000E+00 0.  1.
</event>
<event>
12    1  0.8356052E-002  0.1795583E+03  0.7818608E-02  0.1168630E+00
         21   -1    0    0  503  502  0.00000000000E+00  0.00000000000E+00  0.11543230219E+04  0.11543230219E+04  0.00000000000E+00 0.  1.
         21   -1    0    0  501  503 -0.00000000000E+00 -0.00000000000E+00 -0.28945869149E+02  0.28945869149E+02  0.00000000000E+00 0.  1.
          6    2    1    2  501    0 -0.47078168072E+02  0.18103620964E+01  0.68900783993E+03  0.71202036189E+03  0.17326731065E+03 0.  0.
         24    2    3    3    0    0 -0.58740110831E+02 -0.54565074604E+02  0.35743560252E+03  0.37545472284E+03  0.82330376911E+02 0.  0.
         -6    2    1    2    0  502  0.47078168072E+02 -0.18103620964E+01  0.43636931277E+03  0.47124852911E+03  0.17157321393E+03 0.  0.
        -24    2    5    5    0    0  0.58324537594E+02  0.54719027756E+02  0.34857060351E+03  0.36611644032E+03  0.78382769537E+02 0.  0.
          5    1    3    3  501    0  0.11661942759E+02  0.56375436701E+02  0.33157223741E+03  0.33656563906E+03  0.47000000000E+01 0. -1.
        -13    1    4    4    0    0 -0.67693734337E+02 -0.37185300056E+02  0.16673505546E+03  0.18375463784E+03  0.00000000000E+00 0.  1.
         14    1    4    4    0    0  0.89536235060E+01 -0.17379774549E+02  0.19070054706E+03  0.19170008500E+03  0.00000000000E+00 0. -1.
         -5    1    5    5    0  502 -0.11246369522E+02 -0.56529389853E+02  0.87798709262E+02  0.10513208879E+03  0.47000000000E+01 0.  1.
         13    1    6    6    0    0  0.34494794206E+02  0.24393079118E+02  0.51772753182E+02  0.66823133032E+02  0.00000000000E+00 0. -1.
        -14    1    6    6    0    0  0.23829743388E+02  0.30325948638E+02  0.29679785032E+03  0.29929330729E+03  0.00000000000E+00 0.  1.
</event>
<event>
12    1  0.8356052E-002  0.2800644E+03  0.7818608E-02  0.1095721E+00
         21   -1    0    0  503  502  0.00000000000E+00  0.00000000000E+00  0.22787482268E+03  0.22787482268E+03  0.00000000000E+00 0. -1.
         21   -1    0    0  501  503 -0.00000000000E+00 -0.00000000000E+00 -0.42132096947E+03  0.42132096947E+03  0.00000000000E+00 0.  1.
          6    2    1    2  501    0 -0.19668309475E+02 -0.22010761238E+03 -0.23620113496E+03  0.36637008671E+03  0.17205191326E+03 0.  0.
         24    2    3    3    0    0 -0.46430885843E+02 -0.21060034306E+03 -0.24482656190E+03  0.33631827057E+03  0.81618637896E+02 0.  0.
         -6    2    1    2    0  502  0.19668309475E+02  0.22010761238E+03  0.42754988175E+02  0.28282570544E+03  0.17125474364E+03 0.  0.
        -24    2    5    5    0    0 -0.20117991406E+02  0.38201210723E+02  0.30804155214E+02  0.96176834269E+02  0.80231050053E+02 0.  0.
          5    1    3    3  501    0  0.26762576367E+02 -0.95072693131E+01  0.86254269337E+01  0.30051816141E+02  0.47000000000E+01 0. -1.
        -13    1    4    4    0    0 -0.58839230800E+02 -0.16140771607E+03 -0.22193533968E+03  0.28065958186E+03  0.00000000000E+00 0.  1.
         14    1    4    4    0    0  0.12408344958E+02 -0.49192626992E+02 -0.22891222214E+02  0.55658688714E+02  0.00000000000E+00 0. -1.
         -5    1    5    5    0  502  0.39786300881E+02  0.18190640165E+03  0.11950832961E+02  0.18664887117E+03  0.47000000000E+01 0.  1.
         13    1    6    6    0    0 -0.62169029711E+00  0.25182792292E+02  0.56216675413E+02  0.61602549630E+02  0.00000000000E+00 0. -1.
        -14    1    6    6    0    0 -0.19496301108E+02  0.13018418432E+02 -0.25412520199E+02  0.34574284638E+02  0.00000000000E+00 0.  1.
</event>
<event>
12    1  0.8356052E-002  0.1964660E+03  0.7818608E-02  0.1154492E+00
         21   -1    0    0  503  502  0.00000000000E+00  0.00000000000E+00  0.42255114543E+03  0.42255114543E+03  0.00000000000E+00 0.  1.
         21   -1    0    0  501  503 -0.00000000000E+00 -0.00000000000E+00 -0.99313947674E+02  0.99313947674E+02  0.00000000000E+00 0.  1.
          6    2    1    2  501    0 -0.22848630726E+02  0.89571806417E+02  0.24782258134E+03  0.31142207057E+03  0.16438523591E+03 0.  0.
         24    2    3    3    0    0 -0.68268521584E+02  0.67666082167E+02  0.22514359954E+03  0.25593104917E+03  0.74644301879E+02 0.  0.
         -6    2    1    2    0  502  0.22848630726E+02 -0.89571806417E+02  0.75414616418E+02  0.21044302254E+03  0.17336012498E+03 0.  0.
        -24    2    5    5    0    0  0.16955014509E+01 -0.12870486270E+02 -0.24011397950E+02  0.83013945306E+02  0.78397983021E+02 0.  0.
          5    1    3    3  501    0  0.45419890857E+02  0.21905724250E+02  0.22678981805E+02  0.55491021401E+02  0.47000000000E+01 0. -1.
        -13    1    4    4    0    0 -0.68760044365E+02  0.27078322143E+02  0.99822282941E+02  0.12420011032E+03  0.00000000000E+00 0.  1.
         14    1    4    4    0    0  0.49152278153E+00  0.40587760024E+02  0.12532131660E+03  0.13173093885E+03  0.00000000000E+00 0. -1.
         -5    1    5    5    0  502  0.21153129276E+02 -0.76701320146E+02  0.99426014368E+02  0.12742907723E+03  0.47000000000E+01 0.  1.
         13    1    6    6    0    0 -0.33420284400E+02  0.97279783608E+01  0.73100575706E-01  0.34807388814E+02  0.00000000000E+00 0. -1.
        -14    1    6    6    0    0  0.35115785851E+02 -0.22598464631E+02 -0.24084498526E+02  0.48206556492E+02  0.00000000000E+00 0.  1.
</event>
<event>
12    1  0.8356052E-002  0.3488216E+03  0.7818608E-02  0.1063110E+00
         21   -1    0    0  501  502  0.00000000000E+00  0.00000000000E+00  0.81345867294E+03  0.81345867294E+03  0.00000000000E+00 0.  1.
         21   -1    0    0  502  503 -0.00000000000E+00 -0.00000000000E+00 -0.19906771879E+03  0.19906771879E+03  0.00000000000E+00 0.  1.
         -6    2    1    2    0  503 -0.18765547598E+03  0.23850645620E+03  0.54625491287E+02  0.35297059200E+03  0.17176841155E+03 0.  0.
        -24    2    3    3    0    0 -0.14293841420E+03  0.23260736291E+03  0.86920446139E+02  0.29729771687E+03  0.79329647467E+02 0.  0.
          6    2    1    2  501    0  0.18765547598E+03 -0.23850645620E+03  0.55976546286E+03  0.65955579972E+03  0.17197840627E+03 0.  0.
         24    2    5    5    0    0  0.18067506953E+03 -0.13241035853E+03  0.33060036530E+03  0.40688241380E+03  0.77978928736E+02 0.  0.
          5    1    5    5  501    0  0.69804064521E+01 -0.10609609767E+03  0.22916509756E+03  0.25267338593E+03  0.47000000000E+01 0. -1.
        -11    1    6    6    0    0  0.10929335645E+03 -0.10371106819E+03  0.26901414564E+03  0.30833364069E+03  0.00000000000E+00 0.  1.
         12    1    6    6    0    0  0.71381713083E+02 -0.28699290333E+02  0.61586219659E+02  0.98548773103E+02  0.00000000000E+00 0. -1.
         -5    1    3    3    0  503 -0.44717061784E+02  0.58990932839E+01 -0.32294954851E+02  0.55672875128E+02  0.47000000000E+01 0.  1.
         11    1    4    4    0    0 -0.51204966380E+02  0.13235459144E+03  0.12751813998E+02  0.14248612290E+03  0.00000000000E+00 0. -1.
        -12    1    4    4    0    0 -0.91733447820E+02  0.10025277147E+03  0.74168632141E+02  0.15481159398E+03  0.00000000000E+00 0.  1.
</event>
<event>
12    1  0.8356052E-002  0.2761836E+03  0.7818608E-02  0.1098021E+00
         21   -1    0    0  503  502  0.00000000000E+00  0.00000000000E+00  0.60547178403E+03  0.60547178403E+03  0.00000000000E+00 0. -1.
         21   -1    0    0  501  503 -0.00000000000E+00 -0.00000000000E+00 -0.21534675264E+03  0.21534675264E+03  0.00000000000E+00 0.  1.
          6    2    1    2  501    0  0.13250292926E+03  0.16984241578E+03 -0.70087695305E+02  0.28493799673E+03  0.17284069106E+03 0.  0.
         24    2    3    3    0    0  0.11957541925E+03  0.63770311776E+02 -0.80672216763E+02  0.17745528251E+03  0.81347631673E+02 0.  0.
         -6    2    1    2    0  502 -0.13250292926E+03 -0.16984241578E+03  0.46021272669E+03  0.53588053994E+03  0.17020201765E+03 0.  0.
        -24    2    5    5    0    0 -0.11812602063E+03 -0.47961281248E+02  0.27741697482E+03  0.31565773603E+03  0.80159760170E+02 0.  0.
          5    1    3    3  501    0  0.12927510012E+02  0.10607210400E+03  0.10584521458E+02  0.10748271423E+03  0.47000000000E+01 0. -1.
        -11    1    4    4    0    0  0.33721717504E+02  0.18773838761E+02 -0.70005085249E+02  0.79939497209E+02  0.00000000000E+00 0.  1.
         12    1    4    4    0    0  0.85853701746E+02  0.44996473015E+02 -0.10667131514E+02  0.97515785297E+02  0.00000000000E+00 0. -1.
         -5    1    5    5    0  502 -0.14376908630E+02 -0.12188113453E+03  0.18279575188E+03  0.22022280391E+03  0.47000000000E+01 0.  1.
         13    1    6    6    0    0 -0.98771207415E+02 -0.55699887738E+02  0.15825635347E+03  0.19468770460E+03  0.00000000000E+00 0. -1.
        -14    1    6    6    0    0 -0.19354813218E+02  0.77386064895E+01  0.11916062135E+03  0.12097003143E+03  0.00000000000E+00 0.  1.
</event>
<event>
12    1  0.8356052E-002  0.2018268E+03  0.7818608E-02  0.1148944E+00
         21   -1    0    0  501  502  0.00000000000E+00  0.00000000000E+00  0.15272558393E+03  0.15272558393E+03  0.00000000000E+00 0. -1.
         21   -1    0    0  502  503 -0.00000000000E+00 -0.00000000000E+00 -0.42029498440E+03  0.42029498440E+03  0.00000000000E+00 0. -1.
         -6    2    1    2    0  503 -0.10409836303E+03 -0.14252588690E+01 -0.31028256349E+03  0.37014771811E+03  0.17290333562E+03 0.  0.
        -24    2    3    3    0    0 -0.10436407273E+03 -0.58001764766E+02 -0.24379718773E+03  0.28272136732E+03  0.78982519612E+02 0.  0.
          6    2    1    2  501    0  0.10409836303E+03  0.14252588690E+01  0.42713163014E+02  0.20287285022E+03  0.16880307614E+03 0.  0.
         24    2    5    5    0    0  0.87401023103E+02 -0.54064304285E+02  0.57938391473E+02  0.14277467753E+03  0.80410593205E+02 0.  0.
          5    1    5    5  501    0  0.16697339924E+02  0.55489563154E+02 -0.15225228458E+02  0.60098172694E+02  0.47000000000E+01 0. -1.
        -13    1    6    6    0    0  0.90648915460E+00  0.59911622527E+01 -0.13995148491E+02  0.15250571432E+02  0.00000000000E+00 0.  1.
         14    1    6    6    0    0  0.86494533948E+02 -0.60055466537E+02  0.71933539963E+02  0.12752410610E+03  0.00000000000E+00 0. -1.
         -5    1    3    3    0  503  0.26570970586E+00  0.56576505897E+02 -0.66485375759E+02  0.87426350782E+02  0.47000000000E+01 0.  1.
         11    1    4    4    0    0 -0.50323463052E+02 -0.44187563427E+02 -0.57548286183E+02  0.88299473033E+02  0.00000000000E+00 0. -1.
        -12    1    4    4    0    0 -0.54040609680E+02 -0.13814201339E+02 -0.18624890155E+03  0.19442189429E+03  0.00000000000E+00 0.  1.
</event>
<event>
12    1  0.8356052E-002  0.2138533E+03  0.7818608E-02  0.1140542E+00
         21   -1    0    0  503  502  0.00000000000E+00  0.00000000000E+00  0.19327257851E+04  0.19327257851E+04  0.00000000000E+00 0.  1.
         21   -1    0    0  501  503 -0.00000000000E+00 -0.00000000000E+00 -0.32914489140E+02  0.32914489140E+02  0.00000000000E+00 0.  1.
          6    2    1    2  501    0  0.95663081999E+01  0.12444387128E+03  0.38323988052E+03  0.43406524286E+03  0.16112739583E+03 0.  0.
         24    2    3    3    0    0 -0.34029665177E+02  0.48978438742E+02  0.11746687709E+03  0.15432783072E+03  0.80384740754E+02 0.  0.
         -6    2    1    2    0  502 -0.95663081999E+01 -0.12444387128E+03  0.15165714154E+04  0.15315750313E+04  0.17365318096E+03 0.  0.
        -24    2    5    5    0    0  0.28383091687E+02 -0.44556345451E+01  0.74587203515E+03  0.75065444727E+03  0.79571061393E+02 0.  0.
          5    1    3    3  501    0  0.43595973377E+02  0.75465432541E+02  0.26577300342E+03  0.27973741214E+03  0.47000000000E+01 0. -1.
        -13    1    4    4    0    0 -0.35044462818E+02  0.70401099715E+02  0.92937756029E+02  0.12174504389E+03  0.00000000000E+00 0.  1.
         14    1    4    4    0    0  0.10147976409E+01 -0.21422660973E+02  0.24529121063E+02  0.32582786829E+02  0.00000000000E+00 0. -1.
         -5    1    5    5    0  502 -0.37949399887E+02 -0.11998823674E+03  0.77069938025E+03  0.78092058407E+03  0.47000000000E+01 0.  1.
         11    1    6    6    0    0  0.11432502381E+02  0.20749488307E+02  0.66327341844E+02  0.70431240596E+02  0.00000000000E+00 0. -1.
        -12    1    6    6    0    0  0.16950589306E+02 -0.25205122852E+02  0.67954469331E+03  0.68022320667E+03  0.00000000000E+00 0.  1.
</event>
<event>
12    1  0.8356052E-002  0.1989413E+03  0.7818608E-02  0.1150732E+00
         21   -1    0    0  501  502  0.00000000000E+00  0.00000000000E+00  0.72101843645E+03  0.72101843645E+03  0.00000000000E+00 0.  1.
         21   -1    0    0  502  503 -0.00000000000E+00 -0.00000000000E+00 -0.55559237316E+02  0.55559237316E+02  0.00000000000E+00 0. -1.
         -6    2    1    2    0  503  0.93030807005E+02  0.28477983477E+02  0.28670625190E+03  0.34896723901E+03  0.17352790101E+03 0.  0.
        -24    2    3    3    0    0  0.78754599715E+02  0.86807148359E+02  0.16517999453E+03  0.21333235116E+03  0.66996219880E+02 0.  0.
          6    2    1    2  501    0 -0.93030807005E+02 -0.28477983477E+02  0.37875294723E+03  0.42761043476E+03  0.17300624925E+03 0.  0.
         24    2    5    5    0    0 -0.63704622526E+02  0.24864852679E+02  0.34494727731E+03  0.35782220807E+03  0.66117838982E+02 0.  0.
          5    1    5    5  501    0 -0.29326184480E+02 -0.53342836155E+02  0.33805669921E+02  0.69788226686E+02  0.47000000000E+01 0. -1.
        -11    1    6    6    0    0 -0.59505953928E+02 -0.69972899217E+01  0.26432423411E+03  0.27102992705E+03  0.00000000000E+00 0.  1.
         12    1    6    6    0    0 -0.41986685977E+01  0.31862142601E+02  0.80623043207E+02  0.86792281023E+02  0.00000000000E+00 0. -1.
         -5    1    3    3    0  503  0.14276207291E+02 -0.58329164882E+02  0.12152625737E+03  0.13563488784E+03  0.47000000000E+01 0.  1.
         11    1    4    4    0    0 -0.70987521573E+00  0.39568505317E+02  0.71484981275E+02  0.81708463967E+02  0.00000000000E+00 0. -1.
        -12    1    4    4    0    0  0.79464474930E+02  0.47238643042E+02  0.93695013252E+02  0.13162388720E+03  0.00000000000E+00 0.  1.
</event>
<event>
12    1  0.8356052E-002  0.1877070E+03  0.7818608E-02  0.1161666E+00
         21   -1    0    0  501  502  0.00000000000E+00  0.00000000000E+00  0.61920334890E+03  0.61920334890E+03  0.00000000000E+00 0. -1.
         21   -1    0    0  502  503 -0.00000000000E+00 -0.00000000000E+00 -0.19167124471E+03  0.19167124471E+03  0.00000000000E+00 0. -1.
         -6    2    1    2    0  503  0.73568664966E+02 -0.80201254314E+01 -0.12882745888E+03  0.22370351917E+03  0.16724257666E+03 0.  0.
        -24    2    3    3    0    0  0.47147086103E+02 -0.77816634526E+01 -0.15882347127E+03  0.18345420299E+03  0.78403747069E+02 0.  0.
          6    2    1    2  501    0 -0.73568664966E+02  0.80201254314E+01  0.55635956307E+03  0.58717107444E+03  0.17250285901E+03 0.  0.
         24    2    5    5    0    0 -0.95969455122E+02 -0.37721864054E+02  0.45707437210E+03  0.47548506750E+03  0.80845484959E+02 0.  0.
          5    1    5    5  501    0  0.22400790157E+02  0.45741989485E+02  0.99285190964E+02  0.11168600694E+03  0.47000000000E+01 0. -1.
        -11    1    6    6    0    0 -0.88875328337E+01  0.22185889705E+02  0.60041200035E+02  0.64623120039E+02  0.00000000000E+00 0.  1.
         12    1    6    6    0    0 -0.87081922289E+02 -0.59907753758E+02  0.39703317207E+03  0.41086194746E+03  0.00000000000E+00 0. -1.
         -5    1    3    3    0  503  0.26421578863E+02 -0.23846197874E+00  0.29996012386E+02  0.40249316178E+02  0.47000000000E+01 0.  1.
         13    1    4    4    0    0  0.31389887491E+02  0.30199371278E+02 -0.11680752170E+03  0.12466484744E+03  0.00000000000E+00 0. -1.
        -14    1    4    4    0    0  0.15757198612E+02 -0.37981034731E+02 -0.42015949566E+02  0.58789355544E+02  0.00000000000E+00 0.  1.
</event>
<event>
12    1  0.8356052E-002  0.2138652E+03  0.7818608E-02  0.1138909E+00
         21   -1    0    0  501  502  0.00000000000E+00  0.00000000000E+00  0.20965136787E+03  0.20965136787E+03  0.00000000000E+00 0.  1.
         21   -1    0    0  502  503 -0.00000000000E+00 -0.00000000000E+00 -0.27730341421E+03  0.27730341421E+03  0.00000000000E+00 0.  1.
         -6    2    1    2    0  503  0.50186685174E+02  0.11646965893E+03 -0.14796372225E+03  0.25850723250E+03  0.16984946668E+03 0.  0.
        -24    2    3    3    0    0  0.92468107444E+02  0.11008113592E+03 -0.13633479774E+03  0.21394431315E+03  0.80726604508E+02 0.  0.
          6    2    1    2  501    0 -0.50186685174E+02 -0.11646965893E+03  0.80311675907E+02  0.22844754958E+03  0.17220462480E+03 0.  0.
         24    2    5    5    0    0 -0.14853708108E+02 -0.59512989030E+02 -0.24607926422E+02  0.10385744376E+03  0.80114855514E+02 0.  0.
          5    1    5    5  501    0 -0.35332977065E+02 -0.56956669902E+02  0.10491960233E+03  0.12459010582E+03  0.47000000000E+01 0. -1.
        -11    1    6    6    0    0 -0.23788238151E+01 -0.45869559301E+02  0.24020865530E+02  0.51833167509E+02  0.00000000000E+00 0.  1.
         12    1    6    6    0    0 -0.12474884293E+02 -0.13643429729E+02 -0.48628791952E+02  0.52024276253E+02  0.00000000000E+00 0. -1.
         -5    1    3    3    0  503 -0.42281422270E+02  0.63885230101E+01 -0.11628924506E+02  0.44562919346E+02  0.47000000000E+01 0.  1.
         11    1    4    4    0    0  0.59212240544E+02  0.84103657894E+02 -0.42943342623E+02  0.11146140757E+03  0.00000000000E+00 0. -1.
        -12    1    4    4    0    0  0.33255866900E+02  0.25977478028E+02 -0.93391455120E+02  0.10248290559E+03  0.00000000000E+00 0.  1.
</event>
<event>
12    1  0.8356052E-002  0.1868211E+03  0.7818608E-02  0.1162810E+00
         21   -1    0    0  503  502  0.00000000000E+00  0.00000000000E+00  0.27483783029E+03  0.27483783029E+03  0.00000000000E+00 0. -1.
         21   -1    0    0  501  503 -0.00000000000E+00 -0.00000000000E+00 -0.14924257689E+03  0.14924257689E+03  0.00000000000E+00 0. -1.
          6    2    1    2  501    0 -0.51669216555E+02 -0.13219517840E+02 -0.25529330563E+02  0.18855729938E+03  0.17904648793E+03 0.  0.
         24    2    3    3    0    0 -0.84092672827E+02 -0.36984397478E+02  0.25239419611E+02  0.12362960102E+03  0.78789762438E+02 0.  0.
         -6    2    1    2    0  502  0.51669216555E+02  0.13219517840E+02  0.15112458396E+03  0.23552310780E+03  0.17259209380E+03 0.  0.
        -24    2    5    5    0    0  0.15020619192E+02  0.45235369981E+02  0.16022453769E+03  0.18579350259E+03  0.81089243610E+02 0.  0.
          5    1    3    3  501    0  0.32423456272E+02  0.23764879638E+02 -0.50768750174E+02  0.64927698365E+02  0.47000000000E+01 0. -1.
        -13    1    4    4    0    0 -0.69491433311E+02  0.51161918507E+01  0.35055127330E+02  0.78000619708E+02  0.00000000000E+00 0.  1.
         14    1    4    4    0    0 -0.14601239516E+02 -0.42100589329E+02 -0.98157077185E+01  0.45628981309E+02  0.00000000000E+00 0. -1.
         -5    1    5    5    0  502  0.36648597363E+02 -0.32015852141E+02 -0.90999537274E+01  0.49729605215E+02  0.47000000000E+01 0.  1.
         13    1    6    6    0    0 -0.16909708829E+02 -0.23126898676E+01  0.15956787253E+01  0.17141557038E+02  0.00000000000E+00 0. -1.
        -14    1    6    6    0    0  0.31930328021E+02  0.47548059849E+02  0.15862885896E+03  0.16865194555E+03  0.00000000000E+00 0.  1.
</event>
<event>
12    1  0.8356052E-002  0.2535413E+03  0.7818608E-02  0.1111137E+00
         21   -1    0    0  501  502  0.00000000000E+00  0.00000000000E+00  0.48464046513E+03  0.48464046513E+03  0.00000000000E+00 0.  1.
         21   -1    0    0  502  503 -0.00000000000E+00 -0.00000000000E+00 -0.58636728523E+03  0.58636728523E+03  0.00000000000E+00 0. -1.
         -6    2    1    2    0  503  0.15035912794E+03  0.10994364272E+03 -0.52200217427E+03  0.58017725510E+03  0.17153397759E+03 0.  0.
        -24    2    3    3    0    0  0.30833842739E+02  0.16640803895E+02 -0.29426928033E+03  0.30654232583E+03  0.78397359444E+02 0.  0.
          6    2    1    2  501    0 -0.15035912794E+03 -0.10994364272E+03  0.42027535417E+03  0.49083049526E+03  0.17201084217E+03 0.  0.
         24    2    5    5    0    0 -0.18057439168E+03 -0.92123044279E+02  0.35323033530E+03  0.41501716895E+03  0.79836173033E+02 0.  0.
          5    1    5    5  501    0  0.30215263741E+02 -0.17820598440E+02  0.67045018868E+02  0.75813326313E+02  0.47000000000E+01 0. -1.
        -11    1    6    6    0    0 -0.27652330066E+02 -0.29736888356E+02  0.13722059222E+03  0.14310284699E+03  0.00000000000E+00 0.  1.
         12    1    6    6    0    0 -0.15292206161E+03 -0.62386155923E+02  0.21600974309E+03  0.27191432196E+03  0.00000000000E+00 0. -1.
         -5    1    3    3    0  503  0.11952528520E+03  0.93302838824E+02 -0.22773289394E+03  0.27363492927E+03  0.47000000000E+01 0.  1.
         13    1    4    4    0    0  0.45285310750E+02 -0.12451567178E+02 -0.11277301934E+03  0.12216200222E+03  0.00000000000E+00 0. -1.
        -14    1    4    4    0    0 -0.14451468011E+02  0.29092371073E+02 -0.18149626099E+03  0.18438032361E+03  0.00000000000E+00 0.  1.
</event>
<event>
12    1  0.8356052E-002  0.1994614E+03  0.7818608E-02  0.1150323E+00
         21   -1    0    0  501  502  0.00000000000E+00  0.00000000000E+00  0.66462767818E+02  0.66462767818E+02  0.00000000000E+00 0. -1.
         21   -1    0    0  502  503 -0.00000000000E+00 -0.00000000000E+00 -0.81512864110E+03  0.81512864110E+03  0.00000000000E+00 0. -1.
         -6    2    1    2    0  503 -0.87277264768E+02 -0.53031333293E+02 -0.60205361802E+03  0.63404346147E+03  0.17062505330E+03 0.  0.
        -24    2    3    3    0    0 -0.46622913224E+02 -0.88511913356E+02 -0.32131991657E+03  0.34813237566E+03  0.89115696468E+02 0.  0.
          6    2    1    2  501    0  0.87277264768E+02  0.53031333293E+02 -0.14661225527E+03  0.24754794745E+03  0.17133356249E+03 0.  0.
         24    2    5    5    0    0  0.76838538886E+02 -0.23871640590E+02 -0.64845663238E+02  0.13471665763E+03  0.86426856467E+02 0.  0.
          5    1    5    5  501    0  0.10438725882E+02  0.76902973883E+02 -0.81766592028E+02  0.11283128982E+03  0.47000000000E+01 0. -1.
        -11    1    6    6    0    0  0.25740377690E+02 -0.24456754125E+02 -0.74667591444E+02  0.82679798488E+02  0.00000000000E+00 0.  1.
         12    1    6    6    0    0  0.51098161195E+02  0.58511353503E+00  0.98219282053E+01  0.52036859139E+02  0.00000000000E+00 0. -1.
         -5    1    3    3    0  503 -0.40654351544E+02  0.35480580063E+02 -0.28073370145E+03  0.28591108581E+03  0.47000000000E+01 0.  1.
         11    1    4    4    0    0 -0.15993980270E+02 -0.98890774166E+02 -0.21901344350E+03  0.24083621209E+03  0.00000000000E+00 0. -1.
        -12    1    4    4    0    0 -0.30628932954E+02  0.10378860810E+02 -0.10230647307E+03  0.10729616357E+03  0.00000000000E+00 0.  1.
</event>
<event>
12    1  0.8356052E-002  0.2014971E+03  0.7818608E-02  0.1148744E+00
         21   -1    0    0  503  502  0.00000000000E+00  0.00000000000E+00  0.96138563677E+02  0.96138563677E+02  0.00000000000E+00 0.  1.
         21   -1    0    0  501  503 -0.00000000000E+00 -0.00000000000E+00 -0.46573177550E+03  0.46573177550E+03  0.00000000000E+00 0.  1.
          6    2    1    2  501    0 -0.13572146352E+02  0.10320010879E+03 -0.27363816591E+03  0.33982193179E+03  0.17253009555E+03 0.  0.
         24    2    3    3    0    0  0.18285816039E+02  0.73697512312E+02 -0.27502241226E+03  0.29612594679E+03  0.79294102740E+02 0.  0.
         -6    2    1    2    0  502  0.13572146352E+02 -0.10320010879E+03 -0.95955045920E+02  0.22204840740E+03  0.17106624091E+03 0.  0.
        -24    2    5    5    0    0  0.37227597112E+02  0.53549903167E-01 -0.15052195515E+02  0.88675773066E+02  0.79062805950E+02 0.  0.
          5    1    3    3  501    0 -0.31857962391E+02  0.29502596478E+02  0.13842463521E+01  0.43695984994E+02  0.47000000000E+01 0. -1.
        -13    1    4    4    0    0  0.87766632603E+00  0.10108162044E+02 -0.18104296978E+03  0.18132705850E+03  0.00000000000E+00 0.  1.
         14    1    4    4    0    0  0.17408149713E+02  0.63589350269E+02 -0.93979442479E+02  0.11479888829E+03  0.00000000000E+00 0. -1.
         -5    1    5    5    0  502 -0.23655450760E+02 -0.10325365869E+03 -0.80902850405E+02  0.13337263433E+03  0.47000000000E+01 0.  1.
         11    1    6    6    0    0 -0.51539093254E+01  0.18799498635E+02 -0.33530792743E+02  0.38785280613E+02  0.00000000000E+00 0. -1.
        -12    1    6    6    0    0  0.42381506437E+02 -0.18745948732E+02  0.18478597227E+02  0.49890492453E+02  0.00000000000E+00 0.  1.
</event>
<event>
12    1  0.8356052E-002  0.2432023E+03  0.7818608E-02  0.1118172E+00
         21   -1    0    0  501  502  0.00000000000E+00  0.00000000000E+00  0.45055654504E+02  0.45055654504E+02  0.00000000000E+00 0. -1.
         21   -1    0    0  502  503 -0.00000000000E+00 -0.00000000000E+00 -0.13334025991E+04  0.13334025991E+04  0.00000000000E+00 0.  1.
         -6    2    1    2    0  503  0.12996242071E+03 -0.10518597190E+03 -0.75475799487E+03  0.79205862977E+03  0.17246136577E+03 0.  0.
        -24    2    3    3    0    0  0.12082150260E+03 -0.56727515823E+02 -0.33374088578E+03  0.36813732281E+03  0.79537808973E+02 0.  0.
          6    2    1    2  501    0 -0.12996242071E+03  0.10518597190E+03 -0.53358894976E+03  0.58639962387E+03  0.17661549223E+03 0.  0.
         24    2    5    5    0    0 -0.10462079780E+03  0.12195347744E+03 -0.52782757038E+03  0.55511655199E+03  0.61108757541E+02 0.  0.
          5    1    5    5  501    0 -0.25341622911E+02 -0.16767505549E+02 -0.57613793800E+01  0.31283071884E+02  0.47000000000E+01 0. -1.
        -13    1    6    6    0    0 -0.63583604706E+02  0.29933190065E+02 -0.18983389866E+03  0.20242475080E+03  0.00000000000E+00 0.  1.
         14    1    6    6    0    0 -0.41037193090E+02  0.92020287380E+02 -0.33799367172E+03  0.35269180119E+03  0.00000000000E+00 0. -1.
         -5    1    3    3    0  503  0.91409181032E+01 -0.48458456073E+02 -0.42101710909E+03  0.42392130696E+03  0.47000000000E+01 0.  1.
         13    1    4    4    0    0  0.36337531379E+02 -0.60422488448E+02 -0.14031925645E+03  0.15703753382E+03  0.00000000000E+00 0. -1.
        -14    1    4    4    0    0  0.84483971225E+02  0.36949726254E+01 -0.19342162933E+03  0.21109978899E+03  0.00000000000E+00 0.  1.
</event>
<event>
12    1  0.8356052E-002  0.4027951E+03  0.7818608E-02  0.1042833E+00
         21   -1    0    0  501  502  0.00000000000E+00  0.00000000000E+00  0.26189213032E+03  0.26189213032E+03  0.00000000000E+00 0. -1.
         21   -1    0    0  502  503 -0.00000000000E+00 -0.00000000000E+00 -0.74889744968E+03  0.74889744968E+03  0.00000000000E+00 0.  1.
         -6    2    1    2    0  503  0.30806096807E+02 -0.36233097991E+03 -0.45377150398E+03  0.60662573583E+03  0.17278151215E+03 0.  0.
        -24    2    3    3    0    0  0.95269334981E+01 -0.23454410043E+03 -0.18851780139E+03  0.31139039564E+03  0.79519302992E+02 0.  0.
          6    2    1    2  501    0 -0.30806096807E+02  0.36233097991E+03 -0.33233815385E+02  0.40416384417E+03  0.17323732808E+03 0.  0.
         24    2    5    5    0    0 -0.42540934815E+02  0.14791427088E+03 -0.69706504158E+02  0.18630017450E+03  0.78488187841E+02 0.  0.
          5    1    5    5  501    0  0.11734838008E+02  0.21441670903E+03  0.36472688773E+02  0.21786366967E+03  0.47000000000E+01 0. -1.
        -13    1    6    6    0    0 -0.36254777543E+02  0.71415692473E+02  0.35857187308E+01  0.80171487481E+02  0.00000000000E+00 0.  1.
         14    1    6    6    0    0 -0.62861572714E+01  0.76498578406E+02 -0.73292222889E+02  0.10612868701E+03  0.00000000000E+00 0. -1.
         -5    1    3    3    0  503  0.21279163309E+02 -0.12778687949E+03 -0.26525370259E+03  0.29523534019E+03  0.47000000000E+01 0.  1.
         13    1    4    4    0    0  0.13021688881E+02 -0.14855832599E+03 -0.16452163807E+03  0.22205069240E+03  0.00000000000E+00 0. -1.
        -14    1    4    4    0    0 -0.34947553830E+01 -0.85985774437E+02 -0.23996163321E+02  0.89339703239E+02  0.00000000000E+00 0.  1.
</event>
<event>
12    1  0.8356052E-002  0.2125492E+03  0.7818608E-02  0.1139780E+00
         21   -1    0    0  501  502  0.00000000000E+00  0.00000000000E+00  0.89351525569E+03  0.89351525569E+03  0.00000000000E+00 0. -1.
         21   -1    0    0  502  503 -0.00000000000E+00 -0.00000000000E+00 -0.11031196752E+03  0.11031196752E+03  0.00000000000E+00 0. -1.
         -6    2    1    2    0  503 -0.63640192128E+02  0.10843804877E+03  0.20925083028E+02  0.21247063955E+03  0.16999126182E+03 0.  0.
        -24    2    3    3    0    0 -0.14865460424E+02  0.19316439617E+02 -0.41449469499E+02  0.93163009977E+02  0.79794618572E+02 0.  0.
          6    2    1    2  501    0  0.63640192128E+02 -0.10843804877E+03  0.76227820514E+03  0.79135658367E+03  0.17137180634E+03 0.  0.
         24    2    5    5    0    0 -0.83269465450E+01 -0.32764151228E+01  0.21838093115E+03  0.23271128216E+03  0.79901419394E+02 0.  0.
          5    1    5    5  501    0  0.71967138673E+02 -0.10516163365E+03  0.54389727399E+03  0.55864530151E+03  0.47000000000E+01 0. -1.
        -13    1    6    6    0    0 -0.20958737958E+02 -0.14525305472E+01  0.21893092931E+03  0.21993665077E+03  0.00000000000E+00 0.  1.
         14    1    6    6    0    0  0.12631791413E+02 -0.18238845755E+01 -0.54999816366E+00  0.12774631393E+02  0.00000000000E+00 0. -1.
         -5    1    3    3    0  503 -0.48774731704E+02  0.89121609155E+02  0.62374552526E+02  0.11930762957E+03  0.47000000000E+01 0.  1.
         13    1    4    4    0    0 -0.58481306654E+01  0.39521695246E+02  0.63850735035E+01  0.40459043378E+02  0.00000000000E+00 0. -1.
        -14    1    4    4    0    0 -0.90173297587E+01 -0.20205255629E+02 -0.47834543002E+02  0.52703966599E+02  0.00000000000E+00 0.  1.
</event>
<event>
12    1  0.8356052E-002  0.2419422E+03  0.7818608E-02  0.1119127E+00
         21   -1    0    0  501  502  0.00000000000E+00  0.00000000000E+00  0.16897479082E+03  0.16897479082E+03  0.00000000000E+00 0.  1.
         21   -1    0    0  502  503 -0.00000000000E+00 -0.00000000000E+00 -0.34108933643E+03  0.34108933643E+03  0.00000000000E+00 0.  1.
         -6    2    1    2    0  503  0.26280821580E+02 -0.16879843341E+03 -0.84958078301E+02  0.25290215992E+03  0.16600612856E+03 0.  0.
        -24    2    3    3    0    0  0.52914242468E+02 -0.18019182332E+03 -0.89729146767E+02  0.22316999659E+03  0.80526500922E+02 0.  0.
          6    2    1    2  501    0 -0.26280821580E+02  0.16879843341E+03 -0.87156467309E+02  0.25716196732E+03  0.17132552332E+03 0.  0.
         24    2    5    5    0    0 -0.31759456579E+01  0.37882829248E+02 -0.76962073097E+02  0.12375002492E+03  0.89138726651E+02 0.  0.
          5    1    5    5  501    0 -0.23104875922E+02  0.13091560416E+03 -0.10194394212E+02  0.13341194241E+03  0.47000000000E+01 0. -1.
        -13    1    6    6    0    0 -0.22716003593E+02  0.61724140035E+02 -0.47704264866E+02  0.81250127192E+02  0.00000000000E+00 0.  1.
         14    1    6    6    0    0  0.19540057935E+02 -0.23841310787E+02 -0.29257808231E+02  0.42499897725E+02  0.00000000000E+00 0. -1.
         -5    1    3    3    0  503 -0.26633420888E+02  0.11393389916E+02  0.47710684654E+01  0.29732163330E+02  0.47000000000E+01 0.  1.
         11    1    4    4    0    0  0.69408333479E+02 -0.15309051767E+03 -0.91526619746E+02  0.19139316989E+03  0.00000000000E+00 0. -1.
        -12    1    4    4    0    0 -0.16494091011E+02 -0.27101305652E+02  0.17974729790E+01  0.31776826705E+02  0.00000000000E+00 0.  1.
</event>
<event>
12    1  0.8356052E-002  0.1952127E+03  0.7818608E-02  0.1153875E+00
         21   -1    0    0  503  502  0.00000000000E+00  0.00000000000E+00  0.36611129813E+03  0.36611129813E+03  0.00000000000E+00 0.  1.
         21   -1    0    0  501  503 -0.00000000000E+00 -0.00000000000E+00 -0.14338136683E+03  0.14338136683E+03  0.00000000000E+00 0.  1.
          6    2    1    2  501    0  0.50462342921E+02  0.77078087780E+02 -0.22160699448E+02  0.19631633311E+03  0.17193465729E+03 0.  0.
         24    2    3    3    0    0  0.33418826844E+02  0.24080033537E+02 -0.75017148816E+02  0.11940619442E+03  0.83268245127E+02 0.  0.
         -6    2    1    2    0  502 -0.50462342921E+02 -0.77078087780E+02  0.24489063075E+03  0.31317633185E+03  0.17210611299E+03 0.  0.
        -24    2    5    5    0    0 -0.29537826517E+02 -0.63516092913E+02  0.49366597186E+02  0.11601269221E+03  0.78199146937E+02 0.  0.
          5    1    3    3  501    0  0.17043516077E+02  0.52998054243E+02  0.52856449369E+02  0.76910138693E+02  0.47000000000E+01 0. -1.
        -11    1    4    4    0    0  0.76129855833E+01  0.46053537526E+02 -0.12549739833E+02  0.48336133875E+02  0.00000000000E+00 0.  1.
         12    1    4    4    0    0  0.25805841260E+02 -0.21973503989E+02 -0.62467408983E+02  0.71070060544E+02  0.00000000000E+00 0. -1.
         -5    1    5    5    0  502 -0.20924516404E+02 -0.13561994867E+02  0.19552403357E+03  0.19716363964E+03  0.47000000000E+01 0.  1.
         13    1    6    6    0    0 -0.49850374409E+01  0.17826076148E+01 -0.18163647304E+02  0.18919470701E+02  0.00000000000E+00 0. -1.
        -14    1    6    6    0    0 -0.24552789076E+02 -0.65298700528E+02  0.67530244490E+02  0.97093221509E+02  0.00000000000E+00 0.  1.
</event>
<event>
12    1  0.8356052E-002  0.1891339E+03  0.7818608E-02  0.1160460E+00
         21   -1    0    0  501  502  0.00000000000E+00  0.00000000000E+00  0.12174787654E+04  0.12174787654E+04  0.00000000000E+00 0. -1.
         21   -1    0    0  502  503 -0.00000000000E+00 -0.00000000000E+00 -0.29355288958E+02  0.29355288958E+02  0.00000000000E+00 0. -1.
         -6    2    1    2    0  503 -0.70970979380E+02  0.32464250255E+02  0.50013142910E+03  0.53469904259E+03  0.17228120127E+03 0.  0.
        -24    2    3    3    0    0 -0.55164140826E+02  0.53965503424E+02  0.49514209955E+03  0.50714648477E+03  0.77951910007E+02 0.  0.
          6    2    1    2  501    0  0.70970979380E+02 -0.32464250255E+02  0.68799204738E+03  0.71213501180E+03  0.16647044881E+03 0.  0.
         24    2    5    5    0    0  0.87002862864E+02 -0.43769941756E+02  0.32530692172E+03  0.34888932316E+03  0.80086581564E+02 0.  0.
          5    1    5    5  501    0 -0.16031883484E+02  0.11305691502E+02  0.36268512565E+03  0.36324568864E+03  0.47000000000E+01 0. -1.
        -11    1    6    6    0    0  0.36934629663E+02 -0.24189464271E+02  0.26262620040E+03  0.26631150592E+03  0.00000000000E+00 0.  1.
         12    1    6    6    0    0  0.50068233201E+02 -0.19580477486E+02  0.62680721329E+02  0.82577817243E+02  0.00000000000E+00 0. -1.
         -5    1    3    3    0  503 -0.15806838554E+02 -0.21501253169E+02  0.49893295486E+01  0.27552557817E+02  0.47000000000E+01 0.  1.
         13    1    4    4    0    0 -0.12365362315E+00  0.50575536588E+02  0.30517052228E+03  0.30933306946E+03  0.00000000000E+00 0. -1.
        -14    1    4    4    0    0 -0.55040487203E+02  0.33899668361E+01  0.18997157727E+03  0.19781341531E+03  0.00000000000E+00 0.  1.
</event>
<event>
12    1  0.8356052E-002  0.2732325E+03  0.7818608E-02  0.1099760E+00
         21   -1    0    0  501  502  0.00000000000E+00  0.00000000000E+00  0.19652848405E+03  0.19652848405E+03  0.00000000000E+00 0. -1.
         21   -1    0    0  502  503 -0.00000000000E+00 -0.00000000000E+00 -0.65874306249E+03  0.65874306249E+03  0.00000000000E+00 0. -1.
         -6    2    1    2    0  503  0.69491788471E+02 -0.19784164042E+03 -0.51034242762E+03  0.57783277948E+03  0.17167091850E+03 0.  0.
        -24    2    3    3    0    0  0.10364538626E+03 -0.19687487375E+03 -0.44064022037E+03  0.50006459462E+03  0.79991955742E+02 0.  0.
          6    2    1    2  501    0 -0.69491788471E+02  0.19784164042E+03  0.48127849186E+02  0.27743876705E+03  0.17517293240E+03 0.  0.
         24    2    5    5    0    0  0.28260601909E+02  0.56758843007E+02  0.10987973765E+02  0.10176479090E+03  0.78835963996E+02 0.  0.
          5    1    5    5  501    0 -0.97752390380E+02  0.14108279742E+03  0.37139875421E+02  0.17567397616E+03  0.47000000000E+01 0. -1.
        -11    1    6    6    0    0  0.13263352908E+02  0.75407117203E+02  0.13342697694E+02  0.77718578455E+02  0.00000000000E+00 0.  1.
         12    1    6    6    0    0  0.14997249001E+02 -0.18648274196E+02 -0.23547239293E+01  0.24046212443E+02  0.00000000000E+00 0. -1.
         -5    1    3    3    0  503 -0.34153597787E+02 -0.96676667493E+00 -0.69702207257E+02  0.77768184858E+02  0.47000000000E+01 0.  1.
         13    1    4    4    0    0  0.15568158452E+02 -0.11411257104E+03 -0.22962551742E+03  0.25688893452E+03  0.00000000000E+00 0. -1.
        -14    1    4    4    0    0  0.88077227805E+02 -0.82762302705E+02 -0.21101470295E+03  0.24317566010E+03  0.00000000000E+00 0.  1.
</event>
<event>
12    1  0.8356052E-002  0.3497131E+03  0.7818608E-02  0.1062815E+00
         21   -1    0    0  503  502  0.00000000000E+00  0.00000000000E+00  0.13600424944E+03  0.13600424944E+03  0.00000000000E+00 0.  1.
         21   -1    0    0  501  503 -0.00000000000E+00 -0.00000000000E+00 -0.10288109758E+04  0.10288109758E+04  0.00000000000E+00 0. -1.
          6    2    1    2  501    0  0.25630136216E+03  0.16361135958E+03 -0.65518360873E+03  0.74267409524E+03  0.17274311960E+03 0.  0.
         24    2    3    3    0    0  0.13975753147E+03  0.15962530242E+02 -0.24665060030E+03  0.29289198104E+03  0.71848618348E+02 0.  0.
         -6    2    1    2    0  502 -0.25630136216E+03 -0.16361135958E+03 -0.23762311766E+03  0.42214113002E+03  0.17111201706E+03 0.  0.
        -24    2    5    5    0    0 -0.24906546825E+03 -0.15218641770E+03 -0.25775730012E+03  0.39743560917E+03  0.79510530515E+02 0.  0.
          5    1    3    3  501    0  0.11654383069E+03  0.14764882933E+03 -0.40853300843E+03  0.44978211420E+03  0.47000000000E+01 0. -1.
        -11    1    4    4    0    0  0.57377768086E+02  0.42007992390E+02 -0.10052164819E+03  0.12313196762E+03  0.00000000000E+00 0.  1.
         12    1    4    4    0    0  0.82379763380E+02 -0.26045462148E+02 -0.14612895210E+03  0.16976001342E+03  0.00000000000E+00 0. -1.
         -5    1    5    5    0  502 -0.72358939092E+01 -0.11424941878E+02  0.20134182456E+02  0.24705520855E+02  0.47000000000E+01 0.  1.
         11    1    6    6    0    0 -0.70060865070E+02 -0.70974792291E+02 -0.12645786415E+03  0.16105135008E+03  0.00000000000E+00 0. -1.
        -12    1    6    6    0    0 -0.17900460318E+03 -0.81211625408E+02 -0.13129943597E+03  0.23638425909E+03  0.00000000000E+00 0.  1.
</event>
<event>
12    1  0.8356052E-002  0.1858231E+03  0.7818608E-02  0.1163148E+00
         21   -1    0    0  503  502  0.00000000000E+00  0.00000000000E+00  0.53366640442E+03  0.53366640442E+03  0.00000000000E+00 0. -1.
         21   -1    0    0  501  503 -0.00000000000E+00 -0.00000000000E+00 -0.63635036260E+02  0.63635036260E+02  0.00000000000E+00 0. -1.
          6    2    1    2  501    0  0.51359438273E+02  0.44657640895E+02  0.25445244638E+03  0.31508138056E+03  0.17291076345E+03 0.  0.
         24    2    3    3    0    0  0.68971437693E+02 -0.26568698406E+02  0.12001695135E+03  0.16185486113E+03  0.79561124343E+02 0.  0.
         -6    2    1    2    0  502 -0.51359438273E+02 -0.44657640895E+02  0.21557892178E+03  0.28222006012E+03  0.16894316804E+03 0.  0.
        -24    2    5    5    0    0 -0.15454391020E+02 -0.87725722330E+02  0.11230010490E+03  0.16460783255E+03  0.80930738397E+02 0.  0.
          5    1    3    3  501    0 -0.17611999419E+02  0.71226339301E+02  0.13443549503E+03  0.15322651943E+03  0.47000000000E+01 0. -1.
        -13    1    4    4    0    0 -0.11522907714E+02 -0.23212834708E+02  0.44134890574E+02  0.51181067431E+02  0.00000000000E+00 0.  1.
         14    1    4    4    0    0  0.80494345406E+02 -0.33558636983E+01  0.75882060778E+02  0.11067379370E+03  0.00000000000E+00 0. -1.
         -5    1    5    5    0  502 -0.35905047253E+02  0.43068081435E+02  0.10327881688E+03  0.11761222757E+03  0.47000000000E+01 0.  1.
         11    1    6    6    0    0 -0.31600001777E+02 -0.23634178484E+02  0.83809864515E+02  0.92634917255E+02  0.00000000000E+00 0. -1.
        -12    1    6    6    0    0  0.16145610757E+02 -0.64091543846E+02  0.28490240382E+02  0.71972915296E+02  0.00000000000E+00 0.  1.
</event>
<event>
12    1  0.8356052E-002  0.1769209E+03  0.7818608E-02  0.1171173E+00
         21   -1    0    0  503  502  0.00000000000E+00  0.00000000000E+00  0.23083228446E+03  0.23083228446E+03  0.00000000000E+00 0.  1.
         21   -1    0    0  501  503 -0.00000000000E+00 -0.00000000000E+00 -0.39293095617E+03  0.39293095617E+03  0.00000000000E+00 0.  1.
          6    2    1    2  501    0 -0.32863213549E+02 -0.86180490488E+01 -0.33409199713E+03  0.37804558272E+03  0.17362816157E+03 0.  0.
         24    2    3    3    0    0 -0.18698565811E+01 -0.70632044625E+02 -0.19299364532E+03  0.22076507310E+03  0.80611961100E+02 0.  0.
         -6    2    1    2    0  502  0.32863213549E+02  0.86180490488E+01  0.17199332542E+03  0.24571765792E+03  0.17216620414E+03 0.  0.
        -24    2    5    5    0    0  0.50154407372E+02  0.11631664851E+02  0.18890326974E+02  0.91540210157E+02  0.73293965757E+02 0.  0.
          5    1    3    3  501    0 -0.30993356967E+02  0.62013995576E+02 -0.14109835181E+03  0.15728050962E+03  0.47000000000E+01 0. -1.
        -13    1    4    4    0    0 -0.32887160255E+02 -0.34678320524E+01 -0.65016386670E+02  0.72943277307E+02  0.00000000000E+00 0.  1.
         14    1    4    4    0    0  0.31017303674E+02 -0.67164212573E+02 -0.12797725865E+03  0.14782179579E+03  0.00000000000E+00 0. -1.
         -5    1    5    5    0  502 -0.17291193824E+02 -0.30136158021E+01  0.15310299845E+03  0.15417744776E+03  0.47000000000E+01 0.  1.
         13    1    6    6    0    0  0.13950416139E+02 -0.30728944827E+02  0.50479581215E+01  0.34122778928E+02  0.00000000000E+00 0. -1.
        -14    1    6    6    0    0  0.36203991234E+02  0.42360609677E+02  0.13842368853E+02  0.57417431229E+02  0.00000000000E+00 0.  1.
</event>
<event>
12    1  0.8356052E-002  0.2345041E+03  0.7818608E-02  0.1123561E+00
         21   -1    0    0  503  502  0.00000000000E+00  0.00000000000E+00  0.97080773015E+03  0.97080773015E+03  0.00000000000E+00 0. -1.
         21   -1    0    0  501  503 -0.00000000000E+00 -0.00000000000E+00 -0.60650950443E+02  0.60650950443E+02  0.00000000000E+00 0. -1.
          6    2    1    2  501    0 -0.14803525032E+03  0.58569381760E+02  0.58853703528E+03  0.63342420497E+03  0.17177186535E+03 0.  0.
         24    2    3    3    0    0 -0.13070289533E+03  0.10401053169E+03  0.48450860707E+03  0.51849243168E+03  0.78640789876E+02 0.  0.
         -6    2    1    2    0  502  0.14803525032E+03 -0.58569381760E+02  0.32161974443E+03  0.39803447563E+03  0.17218413389E+03 0.  0.
        -24    2    5    5    0    0  0.95385261162E+02 -0.88758677113E+02  0.29473533721E+03  0.33148918079E+03  0.77715552981E+02 0.  0.
          5    1    3    3  501    0 -0.17332354998E+02 -0.45441149926E+02  0.10402842821E+03  0.11493177329E+03  0.47000000000E+01 0. -1.
        -13    1    4    4    0    0 -0.29289703866E+02 -0.43742893150E+01  0.14439449237E+03  0.14740010375E+03  0.00000000000E+00 0.  1.
         14    1    4    4    0    0 -0.10141319146E+03  0.10838482100E+03  0.34011411471E+03  0.37109232793E+03  0.00000000000E+00 0. -1.
         -5    1    5    5    0  502  0.52649989162E+02  0.30189295353E+02  0.26884407223E+02  0.66545294833E+02  0.47000000000E+01 0.  1.
         11    1    6    6    0    0  0.19601130873E+02 -0.54008104392E+02  0.63258568448E+02  0.85455989572E+02  0.00000000000E+00 0. -1.
        -12    1    6    6    0    0  0.75784130290E+02 -0.34750572720E+02  0.23147676876E+03  0.24603319122E+03  0.00000000000E+00 0.  1.
</event>
<event>
12    1  0.8356052E-002  0.2765362E+03  0.7818608E-02  0.1097965E+00
         21   -1    0    0  501  502  0.00000000000E+00  0.00000000000E+00  0.15151250773E+03  0.15151250773E+03  0.00000000000E+00 0. -1.
         21   -1    0    0  502  503 -0.00000000000E+00 -0.00000000000E+00 -0.60414324408E+03  0.60414324408E+03  0.00000000000E+00 0.  1.
         -6    2    1    2    0  503 -0.16613281456E+03 -0.13350858313E+03 -0.38235383841E+03  0.47032940758E+03  0.17201930139E+03 0.  0.
        -24    2    3    3    0    0 -0.17265628919E+02 -0.24611577670E+02 -0.15777627068E+03  0.17967984078E+03  0.80546023461E+02 0.  0.
          6    2    1    2  501    0  0.16613281456E+03  0.13350858313E+03 -0.70276897939E+02  0.28532634423E+03  0.17620336684E+03 0.  0.
         24    2    5    5    0    0  0.15032697652E+03  0.32335450054E+02 -0.34212149795E+02  0.17665903806E+03  0.79963512530E+02 0.  0.
          5    1    5    5  501    0  0.15805838040E+02  0.10117313307E+03 -0.36064748144E+02  0.10866730617E+03  0.47000000000E+01 0. -1.
        -13    1    6    6    0    0  0.59485753756E+02  0.38005144128E+02  0.16463864060E+02  0.72484513518E+02  0.00000000000E+00 0.  1.
         14    1    6    6    0    0  0.90841222760E+02 -0.56696940739E+01 -0.50676013855E+02  0.10417452454E+03  0.00000000000E+00 0. -1.
         -5    1    3    3    0  503 -0.14886718564E+03 -0.10889700546E+03 -0.22457756773E+03  0.29064956680E+03  0.47000000000E+01 0.  1.
         13    1    4    4    0    0 -0.56189286509E+01 -0.54029987684E+02 -0.10117115590E+03  0.11483211534E+03  0.00000000000E+00 0. -1.
        -14    1    4    4    0    0 -0.11646700268E+02  0.29418410014E+02 -0.56605114781E+02  0.64847725436E+02  0.00000000000E+00 0.  1.
</event>
<event>
12    1  0.8356052E-002  0.1991540E+03  0.7818608E-02  0.1150545E+00
         21   -1    0    0  503  502  0.00000000000E+00  0.00000000000E+00  0.56289849741E+03  0.56289849741E+03  0.00000000000E+00 0.  1.
         21   -1    0    0  501  503 -0.00000000000E+00 -0.00000000000E+00 -0.14685845963E+04  0.14685845963E+04  0.00000000000E+00 0.  1.
          6    2    1    2  501    0 -0.43665209283E+02 -0.90190160148E+02 -0.14439481541E+04  0.14575594524E+04  0.17161692823E+03 0.  0.
         24    2    3    3    0    0 -0.84789468374E+02 -0.19791021939E+02 -0.83301980461E+03  0.84119691171E+03  0.78162081020E+02 0.  0.
         -6    2    1    2    0  502  0.43665209283E+02  0.90190160148E+02  0.53826205528E+03  0.57392364124E+03  0.17210865850E+03 0.  0.
        -24    2    5    5    0    0  0.80247979980E+02  0.10710145744E+03  0.38978420061E+03  0.42000140627E+03  0.80987639518E+02 0.  0.
          5    1    3    3  501    0  0.41124259091E+02 -0.70399138209E+02 -0.61092834952E+03  0.61636254072E+03  0.47000000000E+01 0. -1.
        -11    1    4    4    0    0 -0.11004786189E+02 -0.39013889411E+02 -0.31425858258E+03  0.31686218709E+03  0.00000000000E+00 0.  1.
         12    1    4    4    0    0 -0.73784682185E+02  0.19222867472E+02 -0.51876122204E+03  0.52433472462E+03  0.00000000000E+00 0. -1.
         -5    1    5    5    0  502 -0.36582770697E+02 -0.16911297289E+02  0.14847785468E+03  0.15392223497E+03  0.47000000000E+01 0.  1.
         13    1    6    6    0    0  0.73242375219E+02  0.47358838481E+02  0.15731268547E+03  0.17987380610E+03  0.00000000000E+00 0. -1.
        -14    1    6    6    0    0  0.70056047613E+01  0.59742618956E+02  0.23247151513E+03  0.24012760017E+03  0.00000000000E+00 0.  1.
</event>
<event>
12    1  0.8356052E-002  0.1807358E+03  0.7818608E-02  0.1167215E+00
         21   -1    0    0  503  502  0.00000000000E+00  0.00000000000E+00  0.42219313148E+03  0.42219313148E+03  0.00000000000E+00 0.  1.
         21   -1    0    0  501  503 -0.00000000000E+00 -0.00000000000E+00 -0.11807990427E+03  0.11807990427E+03  0.00000000000E+00 0. -1.
          6    2    1    2  501    0 -0.44702727046E+02 -0.35567224288E+02 -0.68400007826E+01  0.18086517459E+03  0.17147030215E+03 0.  0.
         24    2    3    3    0    0 -0.16175320488E+02  0.15971031021E+02 -0.58336887370E+02  0.10248134964E+03  0.81132729351E+02 0.  0.
         -6    2    1    2    0  502  0.44702727046E+02  0.35567224288E+02  0.31095322799E+03  0.35940786116E+03  0.17093489818E+03 0.  0.
        -24    2    5    5    0    0 -0.45360535584E+01 -0.36862582468E+02  0.19659322803E+03  0.21528696048E+03  0.79499385383E+02 0.  0.
          5    1    3    3  501    0 -0.28527406557E+02 -0.51538255309E+02  0.51496886587E+02  0.78383824947E+02  0.47000000000E+01 0. -1.
        -13    1    4    4    0    0 -0.14402251827E+02 -0.28394084644E+02 -0.36605042631E+01  0.32047592608E+02  0.00000000000E+00 0.  1.
         14    1    4    4    0    0 -0.17730686611E+01  0.44365115665E+02 -0.54676383107E+02  0.70433757035E+02  0.00000000000E+00 0. -1.
         -5    1    5    5    0  502  0.49238780604E+02  0.72429806756E+02  0.11435999996E+03  0.14412090068E+03  0.47000000000E+01 0.  1.
         13    1    6    6    0    0  0.66065773394E+01 -0.25523686197E+02  0.10282208016E+02  0.28298926180E+02  0.00000000000E+00 0. -1.
        -14    1    6    6    0    0 -0.11142630898E+02 -0.11338896271E+02  0.18631102002E+03  0.18698803430E+03  0.00000000000E+00 0.  1.
</event>
<event>
12    1  0.8356052E-002  0.2087591E+03  0.7818608E-02  0.1142758E+00
         21   -1    0    0  503  502  0.00000000000E+00  0.00000000000E+00  0.18647786788E+03  0.18647786788E+03  0.00000000000E+00 0. -1.
         21   -1    0    0  501  503 -0.00000000000E+00 -0.00000000000E+00 -0.62256415610E+03  0.62256415610E+03  0.00000000000E+00 0.  1.
          6    2    1    2  501    0  0.11179755550E+03  0.39792932038E+02 -0.53801609244E+03  0.57672751726E+03  0.17050261754E+03 0.  0.
         24    2    3    3    0    0  0.13683115938E+03  0.52919624336E+02 -0.36463414222E+03  0.40099367864E+03  0.79464582172E+02 0.  0.
         -6    2    1    2    0  502 -0.11179755550E+03 -0.39792932038E+02  0.10192980421E+03  0.23231450672E+03  0.17175032515E+03 0.  0.
        -24    2    5    5    0    0 -0.14324296551E+03 -0.46241615012E+02  0.10212355616E+03  0.19987183631E+03  0.82841391235E+02 0.  0.
          5    1    3    3  501    0 -0.25033603886E+02 -0.13126692297E+02 -0.17338195022E+03  0.17573383862E+03  0.47000000000E+01 0. -1.
        -13    1    4    4    0    0  0.13820804062E+02  0.12165023076E+02 -0.14358712956E+03  0.14476279283E+03  0.00000000000E+00 0.  1.
         14    1    4    4    0    0  0.12301035532E+03  0.40754601259E+02 -0.22104701266E+03  0.25623088582E+03  0.00000000000E+00 0. -1.
         -5    1    5    5    0  502  0.31445410014E+02  0.64486829740E+01 -0.19375194337E+00  0.32442670402E+02  0.47000000000E+01 0.  1.
         13    1    6    6    0    0 -0.40219858065E+02 -0.84673300198E+01  0.77029525515E+02  0.87309108698E+02  0.00000000000E+00 0. -1.
        -14    1    6    6    0    0 -0.10302310745E+03 -0.37774284993E+02  0.25094030642E+02  0.11256272762E+03  0.00000000000E+00 0.  1.
</event>
<event>
12    1  0.8356052E-002  0.2146068E+03  0.7818608E-02  0.1139145E+00
         21   -1    0    0  501  502  0.00000000000E+00  0.00000000000E+00  0.71836026179E+03  0.71836026179E+03  0.00000000000E+00 0.  1.
         21   -1    0    0  502  503 -0.00000000000E+00 -0.00000000000E+00 -0.63353680784E+02  0.63353680784E+02  0.00000000000E+00 0.  1.
         -6    2    1    2    0  503  0.36552129445E+02  0.11055125958E+03  0.28234280129E+03  0.35464567594E+03  0.18027328938E+03 0.  0.
        -24    2    3    3    0    0  0.73685544200E+02  0.10547349119E+03  0.27141311610E+03  0.31532364342E+03  0.95967201387E+02 0.  0.
          6    2    1    2  501    0 -0.36552129445E+02 -0.11055125958E+03  0.37266377971E+03  0.42706826663E+03  0.17306464830E+03 0.  0.
         24    2    5    5    0    0  0.15838616999E+02 -0.12438230780E+03  0.22519520856E+03  0.26988952225E+03  0.80035317064E+02 0.  0.
          5    1    5    5  501    0 -0.52390746445E+02  0.13831048224E+02  0.14746857116E+03  0.15717874439E+03  0.47000000000E+01 0. -1.
        -11    1    6    6    0    0 -0.28055366101E+02 -0.85693441541E+02  0.14068455750E+03  0.16710061103E+03  0.00000000000E+00 0.  1.
         12    1    6    6    0    0  0.43893983100E+02 -0.38688866262E+02  0.84510651063E+02  0.10278891121E+03  0.00000000000E+00 0. -1.
         -5    1    3    3    0  503 -0.37133414755E+02  0.50777683848E+01  0.10929685193E+02  0.39322032520E+02  0.47000000000E+01 0.  1.
         11    1    4    4    0    0  0.94739155058E+02  0.73196346583E+02  0.18067149541E+03  0.21673809519E+03  0.00000000000E+00 0. -1.
        -12    1    4    4    0    0 -0.21053610858E+02  0.32277144611E+02  0.90741620692E+02  0.98585548232E+02  0.00000000000E+00 0.  1.
</event>
<event>
12    1  0.8356052E-002  0.3187065E+03  0.7818608E-02  0.1076259E+00
         21   -1    0    0  501  502  0.00000000000E+00  0.00000000000E+00  0.75651210762E+03  0.75651210762E+03  0.00000000000E+00 0. -1.
         21   -1    0    0  502  503 -0.00000000000E+00 -0.00000000000E+00 -0.18060243055E+03  0.18060243055E+03  0.00000000000E+00 0.  1.
         -6    2    1    2    0  503 -0.25553585172E+03 -0.81237348679E+02  0.50463571148E+02  0.32256799398E+03  0.17206237355E+03 0.  0.
        -24    2    3    3    0    0 -0.22282296828E+03 -0.10803276134E+02  0.59697292403E+02  0.24421977813E+03  0.79452799461E+02 0.  0.
          6    2    1    2  501    0  0.25553585172E+03  0.81237348679E+02  0.52544610592E+03  0.61454654419E+03  0.17226655628E+03 0.  0.
         24    2    5    5    0    0  0.14834814463E+03  0.12170377805E+03  0.29429874590E+03  0.35651955238E+03  0.60625553873E+02 0.  0.
          5    1    5    5  501    0  0.10718770709E+03 -0.40466429374E+02  0.23114736002E+03  0.25802699181E+03  0.47000000000E+01 0. -1.
        -11    1    6    6    0    0  0.22774973961E+02  0.51537364434E+02  0.99794302569E+02  0.11460236558E+03  0.00000000000E+00 0.  1.
         12    1    6    6    0    0  0.12557317067E+03  0.70166413620E+02  0.19450444333E+03  0.24191718680E+03  0.00000000000E+00 0. -1.
         -5    1    3    3    0  503 -0.32712883440E+02 -0.70434072545E+02 -0.92337212553E+01  0.78348215847E+02  0.47000000000E+01 0.  1.
         13    1    4    4    0    0 -0.13534431297E+03  0.27195745338E+02  0.14910987360E+02  0.13885254467E+03  0.00000000000E+00 0. -1.
        -14    1    4    4    0    0 -0.87478655313E+02 -0.37999021472E+02  0.44786305043E+02  0.10536723346E+03  0.00000000000E+00 0.  1.
</event>
<event>
12    1  0.8356052E-002  0.3648981E+03  0.7818608E-02  0.1056745E+00
         21   -1    0    0  503  502  0.00000000000E+00  0.00000000000E+00  0.67249239387E+03  0.67249239387E+03  0.00000000000E+00 0.  1.
         21   -1    0    0  501  503 -0.00000000000E+00 -0.00000000000E+00 -0.48539964848E+03  0.48539964848E+03  0.00000000000E+00 0. -1.
          6    2    1    2  501    0 -0.30058650660E+03  0.11295304844E+03 -0.35225602231E+03  0.50718331366E+03  0.17332042377E+03 0.  0.
         24    2    3    3    0    0 -0.11782083673E+03 -0.52618489200E+01 -0.10457012730E+03  0.17741302296E+03  0.81431152324E+02 0.  0.
         -6    2    1    2    0  502  0.30058650660E+03 -0.11295304844E+03  0.53934876770E+03  0.65070872870E+03  0.17150544388E+03 0.  0.
        -24    2    5    5    0    0  0.13664957626E+03 -0.17717855853E+02  0.15484390216E+03  0.22197671373E+03  0.79435497691E+02 0.  0.
          5    1    3    3  501    0 -0.18276566987E+03  0.11821489736E+03 -0.24768589500E+03  0.32977029069E+03  0.47000000000E+01 0. -1.
        -13    1    4    4    0    0 -0.34839892632E+02 -0.32604437243E+02 -0.67126306909E+02  0.82357807922E+02  0.00000000000E+00 0.  1.
         14    1    4    4    0    0 -0.82980944102E+02  0.27342588323E+02 -0.37443820395E+02  0.95055215039E+02  0.00000000000E+00 0. -1.
         -5    1    5    5    0  502  0.16393693034E+03 -0.95235192592E+02  0.38450486554E+03  0.42873201497E+03  0.47000000000E+01 0.  1.
         13    1    6    6    0    0  0.94125331761E+02  0.21873179557E+02  0.70755151429E+02  0.11976771483E+03  0.00000000000E+00 0. -1.
        -14    1    6    6    0    0  0.42524244496E+02 -0.39591035410E+02  0.84088750734E+02  0.10220899889E+03  0.00000000000E+00 0.  1.
</event>
<event>
12    1  0.8356052E-002  0.1931762E+03  0.7818608E-02  0.1156059E+00
         21   -1    0    0  503  502  0.00000000000E+00  0.00000000000E+00  0.18900733485E+02  0.18900733485E+02  0.00000000000E+00 0. -1.
         21   -1    0    0  501  503 -0.00000000000E+00 -0.00000000000E+00 -0.19784066755E+04  0.19784066755E+04  0.00000000000E+00 0. -1.
          6    2    1    2  501    0 -0.36205954105E+02  0.79165469947E+02 -0.86519577204E+03  0.88607754977E+03  0.17026936747E+03 0.  0.
         24    2    3    3    0    0 -0.37159841865E+01  0.25710105058E+02 -0.75114544347E+03  0.75591364683E+03  0.80691673533E+02 0.  0.
         -6    2    1    2    0  502  0.36205954105E+02 -0.79165469947E+02 -0.10943101700E+04  0.11112298593E+04  0.17245001933E+03 0.  0.
        -24    2    5    5    0    0  0.27227293922E+02 -0.85164934743E+02 -0.10928235317E+04  0.10993593070E+04  0.79581548650E+02 0.  0.
          5    1    3    3  501    0 -0.32489969919E+02  0.53455364890E+02 -0.11405032857E+03  0.13016390294E+03  0.47000000000E+01 0. -1.
        -11    1    4    4    0    0  0.78509954087E+01 -0.28269825331E+02 -0.28748613037E+03  0.28897940464E+03  0.00000000000E+00 0.  1.
         12    1    4    4    0    0 -0.11566979595E+02  0.53979930388E+02 -0.46365931310E+03  0.46693424219E+03  0.00000000000E+00 0. -1.
         -5    1    5    5    0  502  0.89786601830E+01  0.59994647959E+01 -0.14866383111E+01  0.11870552219E+02  0.47000000000E+01 0.  1.
         11    1    6    6    0    0  0.26410171401E+02  0.36534947996E+01 -0.39619192120E+03  0.39708800486E+03  0.00000000000E+00 0. -1.
        -12    1    6    6    0    0  0.81712252143E+00 -0.88818429543E+02 -0.69663161051E+03  0.70227130219E+03  0.00000000000E+00 0.  1.
</event>
<event>
12    1  0.8356052E-002  0.1773091E+03  0.7818608E-02  0.1170843E+00
         21   -1    0    0  503  502  0.00000000000E+00  0.00000000000E+00  0.47155884815E+03  0.47155884815E+03  0.00000000000E+00 0.  1.
         21   -1    0    0  501  503 -0.00000000000E+00 -0.00000000000E+00 -0.91360085777E+02  0.91360085777E+02  0.00000000000E+00 0.  1.
          6    2    1    2  501    0 -0.45966198978E+02  0.25467148405E+01  0.41307389182E+02  0.18044556132E+03  0.16951378408E+03 0.  0.
         24    2    3    3    0    0 -0.17189197660E+02 -0.50873757352E+02 -0.14179469148E+02  0.98088144520E+02  0.80849360212E+02 0.  0.
         -6    2    1    2    0  502  0.45966198978E+02 -0.25467148405E+01  0.33889137319E+03  0.38247337261E+03  0.17122832922E+03 0.  0.
        -24    2    5    5    0    0  0.60292177592E+02  0.20900992848E+02  0.10600817756E+03  0.14792763834E+03  0.81073141625E+02 0.  0.
          5    1    3    3  501    0 -0.28777001317E+02  0.53420472193E+02  0.55486858329E+02  0.82357416796E+02  0.47000000000E+01 0. -1.
        -11    1    4    4    0    0 -0.48923155818E+02 -0.23480073150E+02 -0.14481682375E+02  0.56165008099E+02  0.00000000000E+00 0.  1.
         12    1    4    4    0    0  0.31733958158E+02 -0.27393684202E+02  0.30221322765E+00  0.41923136421E+02  0.00000000000E+00 0. -1.
         -5    1    5    5    0  502 -0.14325978614E+02 -0.23447707688E+02  0.23288319563E+03  0.23454573428E+03  0.47000000000E+01 0.  1.
         13    1    6    6    0    0  0.51407462965E+02  0.50080816774E+02  0.82964408385E+02  0.10969917281E+03  0.00000000000E+00 0. -1.
        -14    1    6    6    0    0  0.88847146274E+01 -0.29179823926E+02  0.23043769175E+02  0.38228465522E+02  0.00000000000E+00 0.  1.
</event>
<event>
12    1  0.8356052E-002  0.2149824E+03  0.7818608E-02  0.1138033E+00
         21   -1    0    0  503  502  0.00000000000E+00  0.00000000000E+00  0.62618762574E+02  0.62618762574E+02  0.00000000000E+00 0.  1.
         21   -1    0    0  501  503 -0.00000000000E+00 -0.00000000000E+00 -0.85364474987E+03  0.85364474987E+03  0.00000000000E+00 0.  1.
          6    2    1    2  501    0 -0.78100896743E+01  0.12731463365E+03 -0.22098780656E+03  0.30703370613E+03  0.17077491797E+03 0.  0.
         24    2    3    3    0    0 -0.54335580996E+02  0.11404589232E+03 -0.20850621002E+03  0.25684843846E+03  0.80854559577E+02 0.  0.
         -6    2    1    2    0  502  0.78100896743E+01 -0.12731463365E+03 -0.57003818073E+03  0.60922980631E+03  0.17305321714E+03 0.  0.
        -24    2    5    5    0    0 -0.47708064727E+02 -0.93712795687E+02 -0.24817472803E+03  0.28085574953E+03  0.78937373246E+02 0.  0.
          5    1    3    3  501    0  0.46525491321E+02  0.13268741327E+02 -0.12481596545E+02  0.50185267673E+02  0.47000000000E+01 0. -1.
        -11    1    4    4    0    0 -0.42598449114E+02  0.51520659675E+02 -0.42870854912E+02  0.79416096864E+02  0.00000000000E+00 0.  1.
         12    1    4    4    0    0 -0.11737131882E+02  0.62525232647E+02 -0.16563535511E+03  0.17743234159E+03  0.00000000000E+00 0. -1.
         -5    1    5    5    0  502  0.55518154401E+02 -0.33601837963E+02 -0.32186345271E+03  0.32837405679E+03  0.47000000000E+01 0.  1.
         13    1    6    6    0    0 -0.53627759239E+02 -0.19957889298E+02 -0.11730391196E+03  0.13051613566E+03  0.00000000000E+00 0. -1.
        -14    1    6    6    0    0  0.59196945124E+01 -0.73754906389E+02 -0.13087081607E+03  0.15033961387E+03  0.00000000000E+00 0.  1.
</event>
<event>
12    1  0.8356052E-002  0.1868664E+03  0.7818608E-02  0.1161650E+00
         21   -1    0    0  501  502  0.00000000000E+00  0.00000000000E+00  0.11100540576E+03  0.11100540576E+03  0.00000000000E+00 0. -1.
         21   -1    0    0  502  503 -0.00000000000E+00 -0.00000000000E+00 -0.42888344690E+03  0.42888344690E+03  0.00000000000E+00 0. -1.
         -6    2    1    2    0  503 -0.45642623710E+02 -0.52364804443E+02 -0.29931855644E+03  0.35210303870E+03  0.17192914176E+03 0.  0.
        -24    2    3    3    0    0 -0.63366505994E+02 -0.94637578510E+02 -0.22763849117E+03  0.26689009844E+03  0.80246225040E+02 0.  0.
          6    2    1    2  501    0  0.45642623710E+02  0.52364804443E+02 -0.18559484702E+02  0.18778581397E+03  0.17347546112E+03 0.  0.
         24    2    5    5    0    0  0.27925851298E+02 -0.15418237494E+02 -0.60994347606E+02  0.10574172589E+03  0.80270959478E+02 0.  0.
          5    1    5    5  501    0  0.17716772412E+02  0.67783041937E+02  0.42434862905E+02  0.82044088079E+02  0.47000000000E+01 0. -1.
        -13    1    6    6    0    0 -0.53912165431E+01 -0.42727379825E+02 -0.26622268403E+02  0.50630419487E+02  0.00000000000E+00 0.  1.
         14    1    6    6    0    0  0.33317067841E+02  0.27309142330E+02 -0.34372079203E+02  0.55111306400E+02  0.00000000000E+00 0. -1.
         -5    1    3    3    0  503  0.17723882284E+02  0.42272774067E+02 -0.71680065269E+02  0.85212940259E+02  0.47000000000E+01 0.  1.
         13    1    4    4    0    0 -0.39725845679E+02 -0.70939958660E+02 -0.21705544183E+03  0.23178370386E+03  0.00000000000E+00 0. -1.
        -14    1    4    4    0    0 -0.23640660315E+02 -0.23697619850E+02 -0.10583049346E+02  0.35106394576E+02  0.00000000000E+00 0.  1.
</event>
<event>
12    1  0.8356052E-002  0.3580403E+03  0.7818608E-02  0.1059437E+00
         21   -1    0    0  503  502  0.00000000000E+00  0.00000000000E+00  0.34537027860E+03  0.34537027860E+03  0.00000000000E+00 0. -1.
         21   -1    0    0  501  503 -0.00000000000E+00 -0.00000000000E+00 -0.44214249242E+03  0.44214249242E+03  0.00000000000E+00 0. -1.
          6    2    1    2  501    0 -0.26565068007E+03 -0.16778818047E+03 -0.20703622635E+03  0.41359023086E+03  0.17166747717E+03 0.  0.
         24    2    3    3    0    0 -0.44741813973E+02 -0.24688422999E+02 -0.63383324543E+02  0.11369605969E+03  0.79359939580E+02 0.  0.
         -6    2    1    2    0  502  0.26565068007E+03  0.16778818047E+03  0.11026401253E+03  0.37392254016E+03  0.17010807226E+03 0.  0.
        -24    2    5    5    0    0  0.27067860461E+03  0.15985972954E+03  0.13213824717E+03  0.34965914179E+03  0.77323728260E+02 0.  0.
          5    1    3    3  501    0 -0.22090886610E+03 -0.14309975747E+03 -0.14365290180E+03  0.29989417118E+03  0.47000000000E+01 0. -1.
        -13    1    4    4    0    0 -0.60447294274E+02 -0.82348236211E+01 -0.67057277888E+02  0.90655205162E+02  0.00000000000E+00 0.  1.
         14    1    4    4    0    0  0.15705480301E+02 -0.16453599378E+02  0.36739533457E+01  0.23040854524E+02  0.00000000000E+00 0. -1.
         -5    1    5    5    0  502 -0.50279245353E+01  0.79284509291E+01 -0.21874234635E+02  0.24263398364E+02  0.47000000000E+01 0.  1.
         13    1    6    6    0    0  0.21061287009E+03  0.13228114164E+03  0.68644531950E+02  0.25800804880E+03  0.00000000000E+00 0. -1.
        -14    1    6    6    0    0  0.60065734521E+02  0.27578587907E+02  0.63493715219E+02  0.91651092993E+02  0.00000000000E+00 0.  1.
</event>
<event>
12    1  0.8356052E-002  0.2117478E+03  0.7818608E-02  0.1141564E+00
         21   -1    0    0  503  502  0.00000000000E+00  0.00000000000E+00  0.65857276971E+03  0.65857276971E+03  0.00000000000E+00 0. -1.
         21   -1    0    0  501  503 -0.00000000000E+00 -0.00000000000E+00 -0.11226958823E+03  0.11226958823E+03  0.00000000000E+00 0.  1.
          6    2    1    2  501    0 -0.42853726076E+02  0.10342640582E+03  0.22777517440E+02  0.20611564202E+03  0.17155576156E+03 0.  0.
         24    2    3    3    0    0 -0.39493256804E+01  0.10447406503E+03 -0.41035865454E+02  0.13122313374E+03  0.67861190218E+02 0.  0.
         -6    2    1    2    0  502  0.42853726076E+02 -0.10342640582E+03  0.52352566404E+03  0.56472671593E+03  0.17973224395E+03 0.  0.
        -24    2    5    5    0    0  0.65164658197E+02 -0.81325710040E+02  0.51750662182E+03  0.53240741341E+03  0.69168247332E+02 0.  0.
          5    1    3    3  501    0 -0.38904400396E+02 -0.10476592113E+01  0.63813382894E+02  0.74892508279E+02  0.47000000000E+01 0. -1.
        -11    1    4    4    0    0 -0.65962454439E+01 -0.83064033830E+01  0.13900621471E+01  0.10697619543E+02  0.00000000000E+00 0.  1.
         12    1    4    4    0    0  0.26469197635E+01  0.11278046841E+03 -0.42425927601E+02  0.12052551420E+03  0.00000000000E+00 0. -1.
         -5    1    5    5    0  502 -0.22310932121E+02 -0.22100695777E+02  0.60190422215E+01  0.32319302517E+02  0.47000000000E+01 0.  1.
         11    1    6    6    0    0  0.37196094410E+02  0.19204853691E+01  0.15055469380E+03  0.15509337036E+03  0.00000000000E+00 0. -1.
        -12    1    6    6    0    0  0.27968563787E+02 -0.83246195409E+02  0.36695192802E+03  0.37731404305E+03  0.00000000000E+00 0.  1.
</event>
<event>
12    1  0.8356052E-002  0.3494784E+03  0.7818608E-02  0.1062952E+00
         21   -1    0    0  503  502  0.00000000000E+00  0.00000000000E+00  0.21941955145E+03  0.21941955145E+03  0.00000000000E+00 0.  1.
         21   -1    0    0  501  503 -0.00000000000E+00 -0.00000000000E+00 -0.64170144988E+03  0.64170144988E+03  0.00000000000E+00 0.  1.
          6    2    1    2  501    0  0.20979329871E+03 -0.22081470487E+03 -0.36933259879E+03  0.50765418421E+03  0.16891962629E+03 0.  0.
         24    2    3    3    0    0  0.22893066392E+03 -0.22234114818E+03 -0.34547261125E+03  0.47667099874E+03  0.77582735543E+02 0.  0.
         -6    2    1    2    0  502 -0.20979329871E+03  0.22081470487E+03 -0.52949299641E+02  0.35346681711E+03  0.17135577142E+03 0.  0.
        -24    2    5    5    0    0 -0.76130906605E+02  0.17714865339E+03 -0.35523643489E+02  0.21169904007E+03  0.79856082933E+02 0.  0.
          5    1    3    3  501    0 -0.19137365212E+02  0.15264433176E+01 -0.23859987536E+02  0.30983185467E+02  0.47000000000E+01 0. -1.
        -11    1    4    4    0    0  0.14456736163E+03 -0.10249577954E+03 -0.14883794336E+03  0.23142566897E+03  0.00000000000E+00 0.  1.
         12    1    4    4    0    0  0.84363302292E+02 -0.11984536865E+03 -0.19663466789E+03  0.24524532978E+03  0.00000000000E+00 0. -1.
         -5    1    5    5    0  502 -0.13366239211E+03  0.43666051473E+02 -0.17425656152E+02  0.14176777704E+03  0.47000000000E+01 0.  1.
         13    1    6    6    0    0 -0.19168015314E+02  0.13384421789E+01 -0.17542846215E+02  0.26018372199E+02  0.00000000000E+00 0. -1.
        -14    1    6    6    0    0 -0.56962891291E+02  0.17581021121E+03 -0.17980797273E+02  0.18568066787E+03  0.00000000000E+00 0.  1.
</event>
<event>
12    1  0.8356052E-002  0.4141212E+03  0.7818608E-02  0.1039087E+00
         21   -1    0    0  501  502  0.00000000000E+00  0.00000000000E+00  0.13436546140E+04  0.13436546140E+04  0.00000000000E+00 0.  1.
         21   -1    0    0  502  503 -0.00000000000E+00 -0.00000000000E+00 -0.26734034218E+03  0.26734034218E+03  0.00000000000E+00 0.  1.
         -6    2    1    2    0  503  0.20903971478E+03  0.31253472388E+03 -0.45164722678E+02  0.41549862868E+03  0.17094941437E+03 0.  0.
        -24    2    3    3    0    0  0.11710960885E+03  0.20369808890E+03 -0.95193947999E+02  0.26443052855E+03  0.75193382595E+02 0.  0.
          6    2    1    2  501    0 -0.20903971478E+03 -0.31253472388E+03  0.11214789945E+04  0.11954963275E+04  0.17355338653E+03 0.  0.
         24    2    5    5    0    0 -0.17806441630E+03 -0.31779685201E+03  0.10835813725E+04  0.11460445443E+04  0.81041540050E+02 0.  0.
          5    1    5    5  501    0 -0.30975298483E+02  0.52621281353E+01  0.37897622069E+02  0.49451783254E+02  0.47000000000E+01 0. -1.
        -11    1    6    6    0    0 -0.99302544776E+01 -0.46808012458E+01  0.89361769888E+01  0.14155391675E+02  0.00000000000E+00 0.  1.
         12    1    6    6    0    0 -0.16813416182E+03 -0.31311605077E+03  0.10746451955E+04  0.11318891526E+04  0.00000000000E+00 0. -1.
         -5    1    3    3    0  503  0.91930105931E+02  0.10883663497E+03  0.50029225321E+02  0.15106810013E+03  0.47000000000E+01 0.  1.
         13    1    4    4    0    0  0.18294192531E+02  0.22574103676E+02  0.12568193256E+02  0.31657970858E+02  0.00000000000E+00 0. -1.
        -14    1    4    4    0    0  0.98815416317E+02  0.18112398523E+03 -0.10776214125E+03  0.23277255769E+03  0.00000000000E+00 0.  1.
</event>
<event>
12    1  0.8356052E-002  0.2243918E+03  0.7818608E-02  0.1132890E+00
         21   -1    0    0  501  502  0.00000000000E+00  0.00000000000E+00  0.29473986898E+02  0.29473986898E+02  0.00000000000E+00 0.  1.
         21   -1    0    0  502  503 -0.00000000000E+00 -0.00000000000E+00 -0.16830651484E+04  0.16830651484E+04  0.00000000000E+00 0.  1.
         -6    2    1    2    0  503  0.47441991282E+02 -0.11609470310E+03 -0.97276601522E+03  0.99568868247E+03  0.17144535401E+03 0.  0.
        -24    2    3    3    0    0 -0.32145965437E+02 -0.47608379982E+02 -0.33144355375E+03  0.34581084095E+03  0.80189696726E+02 0.  0.
          6    2    1    2  501    0 -0.47441991282E+02  0.11609470310E+03 -0.68082514630E+03  0.71685045285E+03  0.18607248395E+03 0.  0.
         24    2    5    5    0    0 -0.89860430380E+02  0.11270820346E+03 -0.62605274835E+03  0.64733140558E+03  0.79485022855E+02 0.  0.
          5    1    5    5  501    0  0.42418439099E+02  0.33864996388E+01 -0.54772397954E+02  0.69519047267E+02  0.47000000000E+01 0. -1.
        -11    1    6    6    0    0 -0.54865682653E+02  0.10754794900E+03 -0.55475446965E+03  0.56774054467E+03  0.00000000000E+00 0.  1.
         12    1    6    6    0    0 -0.34994747727E+02  0.51602544590E+01 -0.71298278701E+02  0.79590860910E+02  0.00000000000E+00 0. -1.
         -5    1    3    3    0  503  0.79587956719E+02 -0.68486323117E+02 -0.64132246147E+03  0.64987784152E+03  0.47000000000E+01 0.  1.
         13    1    4    4    0    0 -0.54973236220E+01  0.17608767919E+02 -0.15065397463E+03  0.15177914661E+03  0.00000000000E+00 0. -1.
        -14    1    4    4    0    0 -0.26648641815E+02 -0.65217147900E+02 -0.18078957911E+03  0.19403169434E+03  0.00000000000E+00 0.  1.
</event>
<event>
12    1  0.8356052E-002  0.2015910E+03  0.7818608E-02  0.1149350E+00
         21   -1    0    0  501  502  0.00000000000E+00  0.00000000000E+00  0.41338397221E+03  0.41338397221E+03  0.00000000000E+00 0.  1.
         21   -1    0    0  502  503 -0.00000000000E+00 -0.00000000000E+00 -0.96510949441E+02  0.96510949441E+02  0.00000000000E+00 0. -1.
         -6    2    1    2    0  503  0.13176267677E+01  0.98279530191E+02  0.17253693701E+03  0.26195976879E+03  0.17086053856E+03 0.  0.
        -24    2    3    3    0    0 -0.46794229536E+02  0.31162383211E+02  0.51516490606E+02  0.11537361465E+03  0.86581338110E+02 0.  0.
          6    2    1    2  501    0 -0.13176267677E+01 -0.98279530191E+02  0.14433608575E+03  0.24793515286E+03  0.17600662538E+03 0.  0.
         24    2    5    5    0    0  0.24777998585E+02 -0.88716772972E+02  0.17047475217E+03  0.20949366654E+03  0.79632532138E+02 0.  0.
          5    1    5    5  501    0 -0.26095625353E+02 -0.95627572196E+01 -0.26138666414E+02  0.38441486315E+02  0.47000000000E+01 0. -1.
        -13    1    6    6    0    0  0.46206451866E+02 -0.21088829669E+02  0.73379528160E+02  0.89243095441E+02  0.00000000000E+00 0.  1.
         14    1    6    6    0    0 -0.21428453281E+02 -0.67627943303E+02  0.97095224007E+02  0.12025057110E+03  0.00000000000E+00 0. -1.
         -5    1    3    3    0  503  0.48111856304E+02  0.67117146981E+02  0.12102044641E+03  0.14658615414E+03  0.47000000000E+01 0.  1.
         13    1    4    4    0    0 -0.14948514820E+02 -0.13464842876E+02 -0.17892452925E+02  0.26923966289E+02  0.00000000000E+00 0. -1.
        -14    1    4    4    0    0 -0.31845714716E+02  0.44627226087E+02  0.69408943531E+02  0.88449648366E+02  0.00000000000E+00 0.  1.
</event>
<event>
12    1  0.8356052E-002  0.2112452E+03  0.7818608E-02  0.1141382E+00
         21   -1    0    0  501  502  0.00000000000E+00  0.00000000000E+00  0.15663385081E+03  0.15663385081E+03  0.00000000000E+00 0.  1.
         21   -1    0    0  502  503 -0.00000000000E+00 -0.00000000000E+00 -0.28442905428E+03  0.28442905428E+03  0.00000000000E+00 0.  1.
         -6    2    1    2    0  503  0.39017331237E+02  0.11365541974E+03 -0.35460446932E+02  0.21420078679E+03  0.17373723605E+03 0.  0.
        -24    2    3    3    0    0 -0.74767689798E+01 -0.40758832699E+01  0.12169154203E+02  0.78875142628E+02  0.77464087885E+02 0.  0.
          6    2    1    2  501    0 -0.39017331237E+02 -0.11365541974E+03 -0.92334756534E+02  0.22686211830E+03  0.16882181992E+03 0.  0.
         24    2    5    5    0    0 -0.56358281603E+02 -0.62331006520E+01 -0.45979546929E+02  0.10849337811E+03  0.80259497307E+02 0.  0.
          5    1    5    5  501    0  0.17340950366E+02 -0.10742231909E+03 -0.46355209605E+02  0.11836874019E+03  0.47000000000E+01 0. -1.
        -13    1    6    6    0    0 -0.61516130788E+02  0.47982645647E+01 -0.80706545303E+00  0.61708257507E+02  0.00000000000E+00 0.  1.
         14    1    6    6    0    0  0.51578491844E+01 -0.11031365217E+02 -0.45172481476E+02  0.46785120599E+02  0.00000000000E+00 0. -1.
         -5    1    3    3    0  503  0.46494100217E+02  0.11773130301E+03 -0.47629601135E+02  0.13532564416E+03  0.47000000000E+01 0.  1.
         13    1    4    4    0    0 -0.99789287608E+01  0.21855694984E+02 -0.24224097833E+02  0.34118284516E+02  0.00000000000E+00 0. -1.
        -14    1    4    4    0    0  0.25021597810E+01 -0.25931578254E+02  0.36393252037E+02  0.44756858113E+02  0.00000000000E+00 0.  1.
</event>
<event>
12    1  0.8356052E-002  0.2301804E+03  0.7818608E-02  0.1126609E+00
         21   -1    0    0  501  502  0.00000000000E+00  0.00000000000E+00  0.58812033368E+02  0.58812033368E+02  0.00000000000E+00 0. -1.
         21   -1    0    0  502  503 -0.00000000000E+00 -0.00000000000E+00 -0.91763468853E+03  0.91763468853E+03  0.00000000000E+00 0. -1.
         -6    2    1    2    0  503 -0.80357595085E+02 -0.12909041355E+03 -0.49894393231E+03  0.54925155703E+03  0.17207715521E+03 0.  0.
        -24    2    3    3    0    0 -0.73204825831E+02 -0.14270798825E+03 -0.50175526738E+03  0.53292384887E+03  0.80777248734E+02 0.  0.
          6    2    1    2  501    0  0.80357595085E+02  0.12909041355E+03 -0.35987872285E+03  0.42719516487E+03  0.17280432799E+03 0.  0.
         24    2    5    5    0    0  0.58796348833E+02  0.12207232136E+03 -0.36784547915E+03  0.40270638859E+03  0.92214297195E+02 0.  0.
          5    1    5    5  501    0  0.21561246252E+02  0.70180921917E+01  0.79667562943E+01  0.24488776282E+02  0.47000000000E+01 0. -1.
        -11    1    6    6    0    0  0.66833226620E+02  0.46769018632E+02 -0.13371237873E+03  0.15663020625E+03  0.00000000000E+00 0.  1.
         12    1    6    6    0    0 -0.80368777867E+01  0.75303302724E+02 -0.23413310041E+03  0.24607618234E+03  0.00000000000E+00 0. -1.
         -5    1    3    3    0  503 -0.71527692545E+01  0.13617574700E+02  0.28113350716E+01  0.16327708155E+02  0.47000000000E+01 0.  1.
         11    1    4    4    0    0 -0.93661536587E+01 -0.88032325957E+02 -0.18324106655E+03  0.20350602870E+03  0.00000000000E+00 0. -1.
        -12    1    4    4    0    0 -0.63838672172E+02 -0.54675662291E+02 -0.31851420084E+03  0.32941782017E+03  0.00000000000E+00 0.  1.
</event>
<event>
12    1  0.8356052E-002  0.1754741E+03  0.7818608E-02  0.1173503E+00
         21   -1    0    0  501  502  0.00000000000E+00  0.00000000000E+00  0.20910293349E+02  0.20910293349E+02  0.00000000000E+00 0.  1.
         21   -1    0    0  502  503 -0.00000000000E+00 -0.00000000000E+00 -0.14438634022E+04  0.14438634022E+04  0.00000000000E+00 0.  1.
         -6    2    1    2    0  503  0.21800280724E+02  0.18160620957E+02 -0.76885712497E+03  0.78754941018E+03  0.16818957893E+03 0.  0.
        -24    2    3    3    0    0 -0.22329023990E+02  0.70449580683E+02 -0.55231246058E+03  0.56040361444E+03  0.59509900344E+02 0.  0.
          6    2    1    2  501    0 -0.21800280724E+02 -0.18160620957E+02 -0.65409598392E+03  0.67722428541E+03  0.17316499697E+03 0.  0.
         24    2    5    5    0    0  0.44524569626E+02 -0.77878901448E+01 -0.22619871551E+03  0.24406756824E+03  0.79749798959E+02 0.  0.
          5    1    5    5  501    0 -0.66324850350E+02 -0.10372730812E+02 -0.42789726841E+03  0.43315671717E+03  0.47000000000E+01 0. -1.
        -11    1    6    6    0    0 -0.14876493824E+02  0.30399745889E+01 -0.12724008761E+03  0.12814285547E+03  0.00000000000E+00 0.  1.
         12    1    6    6    0    0  0.59401063450E+02 -0.10827864734E+02 -0.98958627900E+02  0.11592471276E+03  0.00000000000E+00 0. -1.
         -5    1    3    3    0  503  0.44129304714E+02 -0.52288959726E+02 -0.21654466440E+03  0.22714579574E+03  0.47000000000E+01 0.  1.
         13    1    4    4    0    0 -0.10489241117E+02  0.67959445733E+02 -0.29912125847E+03  0.30692350466E+03  0.00000000000E+00 0. -1.
        -14    1    4    4    0    0 -0.11839782874E+02  0.24901349503E+01 -0.25319120211E+03  0.25348010979E+03  0.00000000000E+00 0.  1.
</event>
<event>
12    1  0.8356052E-002  0.2137039E+03  0.7818608E-02  0.1138727E+00
         21   -1    0    0  501  502  0.00000000000E+00  0.00000000000E+00  0.32022913437E+03  0.32022913437E+03  0.00000000000E+00 0.  1.
         21   -1    0    0  502  503 -0.00000000000E+00 -0.00000000000E+00 -0.14576826807E+03  0.14576826807E+03  0.00000000000E+00 0. -1.
         -6    2    1    2    0  503 -0.31749748794E+02  0.12229270467E+03  0.12269035213E+03  0.24641890281E+03  0.17235370896E+03 0.  0.
        -24    2    3    3    0    0 -0.36412504792E+02  0.81123212494E+01  0.93962857808E+02  0.12849409548E+03  0.79309732476E+02 0.  0.
          6    2    1    2  501    0  0.31749748794E+02 -0.12229270467E+03  0.51770514167E+02  0.21957849963E+03  0.17196214466E+03 0.  0.
         24    2    5    5    0    0  0.53045651574E+02 -0.13276865351E+02  0.50740650075E+02  0.10839792885E+03  0.78647193872E+02 0.  0.
          5    1    5    5  501    0 -0.21295902780E+02 -0.10901583932E+03  0.10298640924E+01  0.11118057078E+03  0.47000000000E+01 0. -1.
        -13    1    6    6    0    0  0.35493434884E+02  0.27734902855E+02  0.44561745717E+02  0.63362117528E+02  0.00000000000E+00 0.  1.
         14    1    6    6    0    0  0.17552216690E+02 -0.41011768206E+02  0.61789043578E+01  0.45035811319E+02  0.00000000000E+00 0. -1.
         -5    1    3    3    0  503  0.46627559980E+01  0.11418038343E+03  0.28727494321E+02  0.11792480732E+03  0.47000000000E+01 0.  1.
         13    1    4    4    0    0  0.61490130857E+01 -0.22259197241E+02  0.26151379174E+01  0.23240507095E+02  0.00000000000E+00 0. -1.
        -14    1    4    4    0    0 -0.42561517877E+02  0.30371518490E+02  0.91347719891E+02  0.10525358839E+03  0.00000000000E+00 0.  1.
</event>
<event>
12    1  0.8356052E-002  0.2354880E+03  0.7818608E-02  0.1122908E+00
         21   -1    0    0  501  502  0.00000000000E+00  0.00000000000E+00  0.10912413398E+04  0.10912413398E+04  0.00000000000E+00 0.  1.
         21   -1    0    0  502  503 -0.00000000000E+00 -0.00000000000E+00 -0.62197940456E+02  0.62197940456E+02  0.00000000000E+00 0.  1.
         -6    2    1    2    0  503 -0.61535941785E+02  0.14847503382E+03  0.26722558983E+03  0.35617990793E+03  0.17211363443E+03 0.  0.
        -24    2    3    3    0    0 -0.54571507860E+02  0.17775151653E+03  0.24979502952E+03  0.32108674318E+03  0.78265501832E+02 0.  0.
          6    2    1    2  501    0  0.61535941785E+02 -0.14847503382E+03  0.76181780954E+03  0.79725937234E+03  0.17153607219E+03 0.  0.
         24    2    5    5    0    0 -0.32698758772E+02 -0.87094102012E+02  0.44421501035E+03  0.46030028636E+03  0.76777514728E+02 0.  0.
          5    1    5    5  501    0  0.94234700558E+02 -0.61380931808E+02  0.31760279918E+03  0.33695908598E+03  0.47000000000E+01 0. -1.
        -11    1    6    6    0    0 -0.46120952004E+02 -0.91688611961E+02  0.34087929041E+03  0.35599527301E+03  0.00000000000E+00 0.  1.
         12    1    6    6    0    0  0.13422193231E+02  0.45945099484E+01  0.10333571995E+03  0.10430501335E+03  0.00000000000E+00 0. -1.
         -5    1    3    3    0  503 -0.69644339253E+01 -0.29276482706E+02  0.17430560307E+02  0.35093164750E+02  0.47000000000E+01 0.  1.
         11    1    4    4    0    0  0.15901974766E+02  0.77366065908E+01  0.22975455247E+02  0.28993092743E+02  0.00000000000E+00 0. -1.
        -12    1    4    4    0    0 -0.70473482625E+02  0.17001490993E+03  0.22681957427E+03  0.29209365044E+03  0.00000000000E+00 0.  1.
</event>
<event>
12    1  0.8356052E-002  0.2264793E+03  0.7818608E-02  0.1129315E+00
         21   -1    0    0  503  502  0.00000000000E+00  0.00000000000E+00  0.48888161280E+02  0.48888161280E+02  0.00000000000E+00 0. -1.
         21   -1    0    0  501  503 -0.00000000000E+00 -0.00000000000E+00 -0.10514665581E+04  0.10514665581E+04  0.00000000000E+00 0.  1.
          6    2    1    2  501    0 -0.12509156392E+03 -0.78314384089E+02 -0.54420177911E+03  0.58907983108E+03  0.17052398332E+03 0.  0.
         24    2    3    3    0    0 -0.11925416036E+02 -0.62487946211E+02 -0.34242996955E+03  0.35715094911E+03  0.79066790961E+02 0.  0.
         -6    2    1    2    0  502  0.12509156392E+03  0.78314384089E+02 -0.45837661772E+03  0.51127488830E+03  0.17179012083E+03 0.  0.
        -24    2    5    5    0    0  0.50315823280E+01  0.16674327801E+02 -0.24040594112E+03  0.25486271703E+03  0.82804818559E+02 0.  0.
          5    1    3    3  501    0 -0.11316614789E+03 -0.15826437878E+02 -0.20177180955E+03  0.23192888197E+03  0.47000000000E+01 0. -1.
        -11    1    4    4    0    0 -0.51205420069E+01 -0.22631843562E+01 -0.22439585750E+03  0.22446568294E+03  0.00000000000E+00 0.  1.
         12    1    4    4    0    0 -0.68048740293E+01 -0.60224761854E+02 -0.11803411206E+03  0.13268526617E+03  0.00000000000E+00 0. -1.
         -5    1    5    5    0  502  0.12005998160E+03  0.61640056287E+02 -0.21797067660E+03  0.25641217127E+03  0.47000000000E+01 0.  1.
         11    1    6    6    0    0  0.17937553218E+02  0.38661137504E+01 -0.53624489611E+01  0.19116969159E+02  0.00000000000E+00 0. -1.
        -12    1    6    6    0    0 -0.12905970890E+02  0.12808214051E+02 -0.23504349216E+03  0.23574574787E+03  0.00000000000E+00 0.  1.
</event>
<event>
12    1  0.8356052E-002  0.1827360E+03  0.7818608E-02  0.1165432E+00
         21   -1    0    0  501  502  0.00000000000E+00  0.00000000000E+00  0.82388029557E+02  0.82388029557E+02  0.00000000000E+00 0. -1.
         21   -1    0    0  502  503 -0.00000000000E+00 -0.00000000000E+00 -0.57180577872E+03  0.57180577872E+03  0.00000000000E+00 0. -1.
         -6    2    1    2    0  503 -0.57986267878E+02  0.17411619014E+02 -0.42294271856E+03  0.46073091410E+03  0.17241479137E+03 0.  0.
        -24    2    3    3    0    0 -0.48538704209E+02  0.72669171709E+02 -0.34727231922E+03  0.36644012491E+03  0.77739868311E+02 0.  0.
          6    2    1    2  501    0  0.57986267878E+02 -0.17411619014E+02 -0.66475030601E+02  0.19346289418E+03  0.17129912431E+03 0.  0.
         24    2    5    5    0    0 -0.26122092329E+02 -0.17970039466E+02 -0.69275346912E+02  0.10917493619E+03  0.78197231258E+02 0.  0.
          5    1    5    5  501    0  0.84108360207E+02  0.55842045206E+00  0.28003163109E+01  0.84287957987E+02  0.47000000000E+01 0. -1.
        -13    1    6    6    0    0 -0.16004914240E+01  0.28118776116E+02 -0.41176603898E+02  0.49887271439E+02  0.00000000000E+00 0.  1.
         14    1    6    6    0    0 -0.24521600905E+02 -0.46088815582E+02 -0.28098743014E+02  0.59287664752E+02  0.00000000000E+00 0. -1.
         -5    1    3    3    0  503 -0.94475636683E+01 -0.55257552695E+02 -0.75670399342E+02  0.94290789188E+02  0.47000000000E+01 0.  1.
         13    1    4    4    0    0 -0.57882570597E+02  0.47780318132E+02 -0.15365811717E+03  0.17100926218E+03  0.00000000000E+00 0. -1.
        -14    1    4    4    0    0  0.93438663871E+01  0.24888853577E+02 -0.19361420206E+03  0.19543086273E+03  0.00000000000E+00 0.  1.
</event>
<event>
12    1  0.8356052E-002  0.2097395E+03  0.7818608E-02  0.1141913E+00
         21   -1    0    0  501  502  0.00000000000E+00  0.00000000000E+00  0.13761268283E+04  0.13761268283E+04  0.00000000000E+00 0.  1.
         21   -1    0    0  502  503 -0.00000000000E+00 -0.00000000000E+00 -0.40841961453E+02  0.40841961453E+02  0.00000000000E+00 0.  1.
         -6    2    1    2    0  503  0.46499499473E+02 -0.11199046185E+03  0.33450943399E+03  0.39445123905E+03  0.17026788179E+03 0.  0.
        -24    2    3    3    0    0  0.41639830296E+01 -0.52139737517E+02  0.65603592418E+02  0.11569176068E+03  0.79654636824E+02 0.  0.
          6    2    1    2  501    0 -0.46499499473E+02  0.11199046185E+03  0.10007754328E+04  0.10225175507E+04  0.17113330322E+03 0.  0.
         24    2    5    5    0    0  0.62154862305E+01 -0.65853174722E+01  0.36498709994E+03  0.37360462939E+03  0.79264350790E+02 0.  0.
          5    1    5    5  501    0 -0.52714985703E+02  0.11857577932E+03  0.63578833290E+03  0.64891292129E+03  0.47000000000E+01 0. -1.
        -11    1    6    6    0    0 -0.31412821994E+02 -0.22239854677E+02  0.19896258413E+03  0.20265114460E+03  0.00000000000E+00 0.  1.
         12    1    6    6    0    0  0.37628308224E+02  0.15654537205E+02  0.16602451581E+03  0.17095348479E+03  0.00000000000E+00 0. -1.
         -5    1    3    3    0  503  0.42335516443E+02 -0.59850724329E+02  0.26890584157E+03  0.27875947838E+03  0.47000000000E+01 0.  1.
         13    1    4    4    0    0 -0.26440222276E+02 -0.30589588821E+02  0.66978358033E+02  0.78236236764E+02  0.00000000000E+00 0. -1.
        -14    1    4    4    0    0  0.30604205305E+02 -0.21550148696E+02 -0.13747656142E+01  0.37455523914E+02  0.00000000000E+00 0.  1.
</event>
<event>
12    1  0.8356052E-002  0.1944692E+03  0.7818608E-02  0.1156156E+00
         21   -1    0    0  501  502  0.00000000000E+00  0.00000000000E+00  0.18826262706E+03  0.18826262706E+03  0.00000000000E+00 0. -1.
         21   -1    0    0  502  503 -0.00000000000E+00 -0.00000000000E+00 -0.20082163481E+03  0.20082163481E+03  0.00000000000E+00 0. -1.
         -6    2    1    2    0  503  0.37491795694E+02  0.69710741108E+02 -0.43917059205E+02  0.19210304544E+03  0.16943922157E+03 0.  0.
        -24    2    3    3    0    0  0.48443015073E+02 -0.20663240894E+02 -0.20483196471E+02  0.97982793891E+02  0.80046057538E+02 0.  0.
          6    2    1    2  501    0 -0.37491795694E+02 -0.69710741108E+02  0.31358051451E+02  0.19698121644E+03  0.17763178226E+03 0.  0.
         24    2    5    5    0    0 -0.14825920449E+02  0.33730113901E+02  0.41195293657E+01  0.87538174304E+02  0.79299640209E+02 0.  0.
          5    1    5    5  501    0 -0.22665875245E+02 -0.10344085501E+03  0.27238522085E+02  0.10944304213E+03  0.47000000000E+01 0. -1.
        -11    1    6    6    0    0  0.22513073673E+02  0.23235738405E+02 -0.23445162245E+02  0.39955145578E+02  0.00000000000E+00 0.  1.
         12    1    6    6    0    0 -0.37338994123E+02  0.10494375497E+02  0.27564691611E+02  0.47583028726E+02  0.00000000000E+00 0. -1.
         -5    1    3    3    0  503 -0.10951219380E+02  0.90373982002E+02 -0.23433862735E+02  0.94120251548E+02  0.47000000000E+01 0.  1.
         11    1    4    4    0    0  0.17613199123E+00 -0.12218271629E+02  0.27070893334E+02  0.29701017659E+02  0.00000000000E+00 0. -1.
        -12    1    4    4    0    0  0.48266883082E+02 -0.84449692647E+01 -0.47554089804E+02  0.68281776232E+02  0.00000000000E+00 0.  1.
</event>
<event>
12    1  0.8356052E-002  0.1870090E+03  0.7818608E-02  0.1161564E+00
         21   -1    0    0  503  502  0.00000000000E+00  0.00000000000E+00  0.50482710848E+03  0.50482710848E+03  0.00000000000E+00 0.  1.
         21   -1    0    0  501  503 -0.00000000000E+00 -0.00000000000E+00 -0.12798739272E+03  0.12798739272E+03  0.00000000000E+00 0.  1.
          6    2    1    2  501    0  0.24031850212E+01 -0.70936942301E+02 -0.27420943675E+02  0.18739440658E+03  0.17125107411E+03 0.  0.
         24    2    3    3    0    0  0.66150820879E+02 -0.37921980593E+02 -0.34088094794E+02  0.11514283443E+03  0.79258226063E+02 0.  0.
         -6    2    1    2    0  502 -0.24031850212E+01  0.70936942301E+02  0.40426065944E+03  0.44542009461E+03  0.17301605370E+03 0.  0.
        -24    2    5    5    0    0 -0.49866974313E+02  0.62989224798E+02  0.14245699782E+03  0.17918856991E+03  0.73213317048E+02 0.  0.
          5    1    3    3  501    0 -0.63747635857E+02 -0.33014961708E+02  0.66671511188E+01  0.72251572149E+02  0.47000000000E+01 0. -1.
        -11    1    4    4    0    0 -0.18336203318E+02 -0.35123850544E+01 -0.75218091840E+01  0.20127861642E+02  0.00000000000E+00 0.  1.
         12    1    4    4    0    0  0.84487024196E+02 -0.34409595539E+02 -0.26566285610E+02  0.95014972787E+02  0.00000000000E+00 0. -1.
         -5    1    5    5    0  502  0.47463789292E+02  0.79477175030E+01  0.26180366162E+03  0.26623152470E+03  0.47000000000E+01 0.  1.
         11    1    6    6    0    0 -0.25696250401E+02  0.29393969309E+02  0.98394186794E+01  0.40263095713E+02  0.00000000000E+00 0. -1.
        -12    1    6    6    0    0 -0.24170723912E+02  0.33595255489E+02  0.13261757914E+03  0.13892547420E+03  0.00000000000E+00 0.  1.
</event>
<event>
12    1  0.8356052E-002  0.1829755E+03  0.7818608E-02  0.1165121E+00
         21   -1    0    0  501  502  0.00000000000E+00  0.00000000000E+00  0.95558414168E+02  0.95558414168E+02  0.00000000000E+00 0.  1.
         21   -1    0    0  502  503 -0.00000000000E+00 -0.00000000000E+00 -0.37155209282E+03  0.37155209282E+03  0.00000000000E+00 0. -1.
         -6    2    1    2    0  503  0.32760582924E+01  0.60872858044E+02 -0.19526884374E+03  0.26711918765E+03  0.17177456643E+03 0.  0.
        -24    2    3    3    0    0  0.30160748126E+02 -0.83976948839E+00 -0.17788339147E+03  0.19743720365E+03  0.80178379141E+02 0.  0.
          6    2    1    2  501    0 -0.32760582924E+01 -0.60872858044E+02 -0.80724834920E+02  0.19999131934E+03  0.17252185785E+03 0.  0.
         24    2    5    5    0    0 -0.35725834719E+02 -0.83067991989E+02 -0.14241688324E+02  0.12261101990E+03  0.81572115052E+02 0.  0.
          5    1    5    5  501    0  0.32449776427E+02  0.22195133945E+02 -0.66483146596E+02  0.77380299446E+02  0.47000000000E+01 0. -1.
        -13    1    6    6    0    0  0.23662411425E+02 -0.43927886848E+02  0.84423041494E+00  0.49902722194E+02  0.00000000000E+00 0.  1.
         14    1    6    6    0    0 -0.59388246144E+02 -0.39140105142E+02 -0.15085918739E+02  0.72708297702E+02  0.00000000000E+00 0. -1.
         -5    1    3    3    0  503 -0.26884689834E+02  0.61712627533E+02 -0.17385452264E+02  0.69681984005E+02  0.47000000000E+01 0.  1.
         11    1    4    4    0    0 -0.13905354182E+02  0.29186278344E+02 -0.68924917645E+02  0.76130427497E+02  0.00000000000E+00 0. -1.
        -12    1    4    4    0    0  0.44066102308E+02 -0.30026047832E+02 -0.10895847383E+03  0.12130677615E+03  0.00000000000E+00 0.  1.
</event>
<event>
12    1  0.8356052E-002  0.2922018E+03  0.7818608E-02  0.1089271E+00
         21   -1    0    0  503  502  0.00000000000E+00  0.00000000000E+00  0.10757513826E+03  0.10757513826E+03  0.00000000000E+00 0. -1.
         21   -1    0    0  501  503 -0.00000000000E+00 -0.00000000000E+00 -0.79384856162E+03  0.79384856162E+03  0.00000000000E+00 0.  1.
          6    2    1    2  501    0 -0.23387090671E+03  0.34946003351E+02 -0.36331220212E+03  0.46623773629E+03  0.17165385630E+03 0.  0.
         24    2    3    3    0    0 -0.11294003108E+03  0.66906038174E+02 -0.26858114700E+03  0.30926072107E+03  0.79211694244E+02 0.  0.
         -6    2    1    2    0  502  0.23387090671E+03 -0.34946003351E+02 -0.32296122124E+03  0.43518596359E+03  0.17078070245E+03 0.  0.
        -24    2    5    5    0    0  0.10369037013E+03 -0.47594968099E+02 -0.80322947621E+02  0.15950065343E+03  0.77276831490E+02 0.  0.
          5    1    3    3  501    0 -0.12093087563E+03 -0.31960034823E+02 -0.94731055112E+02  0.15697701523E+03  0.47000000000E+01 0. -1.
        -11    1    4    4    0    0 -0.23338428595E+02  0.18913077985E+01 -0.12900278395E+03  0.13111055473E+03  0.00000000000E+00 0.  1.
         12    1    4    4    0    0 -0.89601602482E+02  0.65014730375E+02 -0.13957836305E+03  0.17815016633E+03  0.00000000000E+00 0. -1.
         -5    1    5    5    0  502  0.13018053658E+03  0.12648964748E+02 -0.24263827362E+03  0.27568531016E+03  0.47000000000E+01 0.  1.
         11    1    6    6    0    0  0.90473696333E+02 -0.58771826939E+02 -0.89256077201E+02  0.14002237210E+03  0.00000000000E+00 0. -1.
        -12    1    6    6    0    0  0.13216673796E+02  0.11176858840E+02  0.89331295799E+01  0.19478281337E+02  0.00000000000E+00 0.  1.
</event>
<event>
12    1  0.8356052E-002  0.2207164E+03  0.7818608E-02  0.1134088E+00
         21   -1    0    0  503  502  0.00000000000E+00  0.00000000000E+00  0.53031675159E+02  0.53031675159E+02  0.00000000000E+00 0.  1.
         21   -1    0    0  501  503 -0.00000000000E+00 -0.00000000000E+00 -0.97597513034E+03  0.97597513034E+03  0.00000000000E+00 0.  1.
          6    2    1    2  501    0 -0.13124930973E+03  0.44461787216E+02 -0.60665469354E+03  0.64555839088E+03  0.17179198762E+03 0.  0.
         24    2    3    3    0    0 -0.11182430099E+03  0.64091968816E+01 -0.24383874408E+03  0.28020536465E+03  0.80696723384E+02 0.  0.
         -6    2    1    2    0  502  0.13124930973E+03 -0.44461787216E+02 -0.31628876164E+03  0.38344841462E+03  0.16670595102E+03 0.  0.
        -24    2    5    5    0    0  0.14065945808E+02  0.19762672189E+02 -0.11380735312E+03  0.14080148436E+03  0.79275029683E+02 0.  0.
          5    1    3    3  501    0 -0.19425008746E+02  0.38052590334E+02 -0.36281594946E+03  0.36535302623E+03  0.47000000000E+01 0. -1.
        -13    1    4    4    0    0 -0.47826067897E+02 -0.26877595220E+02 -0.16237778006E+03  0.17139510306E+03  0.00000000000E+00 0.  1.
         14    1    4    4    0    0 -0.63998233091E+02  0.33286792102E+02 -0.81460964019E+02  0.10881026158E+03  0.00000000000E+00 0. -1.
         -5    1    5    5    0  502  0.11718336393E+03 -0.64224459405E+02 -0.20248140852E+03  0.24264693026E+03  0.47000000000E+01 0.  1.
         11    1    6    6    0    0 -0.24273553106E+02 -0.62701755947E+01 -0.78887747467E+02  0.82775583253E+02  0.00000000000E+00 0. -1.
        -12    1    6    6    0    0  0.38339498913E+02  0.26032847784E+02 -0.34919605650E+02  0.58025901108E+02  0.00000000000E+00 0.  1.
</event>
<event>
12    1  0.8356052E-002  0.1752376E+03  0.7818608E-02  0.1172502E+00
         21   -1    0    0  503  502  0.00000000000E+00  0.00000000000E+00  0.11796535133E+03  0.11796535133E+03  0.00000000000E+00 0.  1.
         21   -1    0    0  501  503 -0.00000000000E+00 -0.00000000000E+00 -0.10197350369E+04  0.10197350369E+04  0.00000000000E+00 0.  1.
          6    2    1    2  501    0  0.55620554905E+01 -0.36396076895E+02 -0.94181470034E+03  0.95797867278E+03  0.17132599586E+03 0.  0.
         24    2    3    3    0    0 -0.93194432785E+01 -0.65684721999E+01 -0.90323368140E+03  0.90677584054E+03  0.79254936238E+02 0.  0.
         -6    2    1    2    0  502 -0.55620554905E+01  0.36396076895E+02  0.40045014740E+02  0.17972171547E+03  0.17129121673E+03 0.  0.
        -24    2    5    5    0    0  0.15062923256E+02  0.87807741852E+02  0.30803407799E+02  0.12336529311E+03  0.79580490235E+02 0.  0.
          5    1    3    3  501    0  0.14881498769E+02 -0.29827604695E+02 -0.38581018935E+02  0.51202832241E+02  0.47000000000E+01 0. -1.
        -11    1    4    4    0    0 -0.20635050819E+02  0.83443644714E+01 -0.72696674438E+02  0.76027891034E+02  0.00000000000E+00 0.  1.
         12    1    4    4    0    0  0.11315607541E+02 -0.14912836671E+02 -0.83053700697E+03  0.83074794951E+03  0.00000000000E+00 0. -1.
         -5    1    5    5    0  502 -0.20624978747E+02 -0.51411664957E+02  0.92416069407E+01  0.56356422356E+02  0.47000000000E+01 0.  1.
         11    1    6    6    0    0  0.40632414129E+02  0.36253763146E+02 -0.64158319178E+01  0.54831481098E+02  0.00000000000E+00 0. -1.
        -12    1    6    6    0    0 -0.25569490872E+02  0.51553978706E+02  0.37219239717E+02  0.68533812013E+02  0.00000000000E+00 0.  1.
</event>
<event>
12    1  0.8356052E-002  0.4012194E+03  0.7818608E-02  0.1043420E+00
         21   -1    0    0  503  502  0.00000000000E+00  0.00000000000E+00  0.23446702507E+03  0.23446702507E+03  0.00000000000E+00 0. -1.
         21   -1    0    0  501  503 -0.00000000000E+00 -0.00000000000E+00 -0.78343173470E+03  0.78343173470E+03  0.00000000000E+00 0.  1.
          6    2    1    2  501    0  0.25197077954E+03 -0.25972078884E+03 -0.94181849756E+02  0.41142989480E+03  0.17163966797E+03 0.  0.
         24    2    3    3    0    0  0.35316777744E+02 -0.69136767286E+02 -0.83738257319E+00  0.10812063791E+03  0.75247616252E+02 0.  0.
         -6    2    1    2    0  502 -0.25197077954E+03  0.25972078884E+03 -0.45478285988E+03  0.60646886497E+03  0.17329994992E+03 0.  0.
        -24    2    5    5    0    0 -0.20491702633E+03  0.25514994191E+03 -0.32533068103E+03  0.46857432214E+03  0.81420899140E+02 0.  0.
          5    1    3    3  501    0  0.21665400179E+03 -0.19058402155E+03 -0.93344467183E+02  0.30330925689E+03  0.47000000000E+01 0. -1.
        -13    1    4    4    0    0 -0.18209435494E+02 -0.32797452081E+02 -0.17378529343E+02  0.41343314891E+02  0.00000000000E+00 0.  1.
         14    1    4    4    0    0  0.53526213239E+02 -0.36339315205E+02  0.16541146770E+02  0.66777323020E+02  0.00000000000E+00 0. -1.
         -5    1    5    5    0  502 -0.47053753208E+02  0.45708469268E+01 -0.12945217885E+03  0.13789454282E+03  0.47000000000E+01 0.  1.
         13    1    6    6    0    0 -0.45047457626E+02  0.48252070478E+02 -0.25537582132E+02  0.70779261405E+02  0.00000000000E+00 0. -1.
        -14    1    6    6    0    0 -0.15986956870E+03  0.20689787143E+03 -0.29979309890E+03  0.39779506074E+03  0.00000000000E+00 0.  1.
</event>
<event>
12    1  0.8356052E-002  0.1957765E+03  0.7818608E-02  0.1153805E+00
         21   -1    0    0  501  502  0.00000000000E+00  0.00000000000E+00  0.23586590074E+03  0.23586590074E+03  0.00000000000E+00 0.  1.
         21   -1    0    0  502  503 -0.00000000000E+00 -0.00000000000E+00 -0.41906432483E+03  0.41906432483E+03  0.00000000000E+00 0.  1.
         -6    2    1    2    0  503 -0.67864182127E+02  0.63127763310E+02 -0.34849299082E+03  0.39870627221E+03  0.17008428832E+03 0.  0.
        -24    2    3    3    0    0  0.24230689626E+02  0.28859473697E+02 -0.21838340356E+03  0.23559166289E+03  0.79950766923E+02 0.  0.
          6    2    1    2  501    0  0.67864182127E+02 -0.63127763310E+02  0.16529456673E+03  0.25622395336E+03  0.17244639390E+03 0.  0.
         24    2    5    5    0    0  0.87878792718E+02  0.23152640508E+01  0.13843939070E+03  0.18255805252E+03  0.80211813250E+02 0.  0.
          5    1    5    5  501    0 -0.20014610591E+02 -0.65443027361E+02  0.26855176035E+02  0.73665900844E+02  0.47000000000E+01 0. -1.
        -11    1    6    6    0    0 -0.13824265607E+02 -0.13152518505E+01  0.34041614399E+02  0.36765088302E+02  0.00000000000E+00 0.  1.
         12    1    6    6    0    0  0.10170305833E+03  0.36305159013E+01  0.10439777630E+03  0.14579296422E+03  0.00000000000E+00 0. -1.
         -5    1    3    3    0  503 -0.92094871753E+02  0.34268289613E+02 -0.13010958727E+03  0.16311460932E+03  0.47000000000E+01 0.  1.
         13    1    4    4    0    0  0.16676175463E+02 -0.27118407606E+02 -0.83109601052E+02  0.88998363166E+02  0.00000000000E+00 0. -1.
        -14    1    4    4    0    0  0.75545141634E+01  0.55977881303E+02 -0.13527380251E+03  0.14659329972E+03  0.00000000000E+00 0.  1.
</event>
<event>
12    1  0.8356052E-002  0.1813240E+03  0.7818608E-02  0.1168177E+00
         21   -1    0    0  501  502  0.00000000000E+00  0.00000000000E+00  0.22167415384E+04  0.22167415384E+04  0.00000000000E+00 0. -1.
         21   -1    0    0  502  503 -0.00000000000E+00 -0.00000000000E+00 -0.15124134173E+02  0.15124134173E+02  0.00000000000E+00 0. -1.
         -6    2    1    2    0  503 -0.30388471241E+02 -0.27387906580E+02  0.85777328160E+03  0.87672879625E+03  0.17664886907E+03 0.  0.
        -24    2    3    3    0    0 -0.25717370349E+02  0.29357605282E+02  0.23971660629E+03  0.25603723341E+03  0.81041726486E+02 0.  0.
          6    2    1    2  501    0  0.30388471241E+02  0.27387906580E+02  0.13438441227E+04  0.13551368764E+04  0.16972145130E+03 0.  0.
         24    2    5    5    0    0  0.63271250483E+01  0.81177987318E+02  0.97368988443E+03  0.98029214684E+03  0.79188408057E+02 0.  0.
          5    1    5    5  501    0  0.24061346192E+02 -0.53790080738E+02  0.37015423824E+03  0.37484472953E+03  0.47000000000E+01 0. -1.
        -11    1    6    6    0    0  0.23234842902E+02  0.54522128230E+02  0.29640845313E+03  0.30227552246E+03  0.00000000000E+00 0.  1.
         12    1    6    6    0    0 -0.16907717853E+02  0.26655859089E+02  0.67728143131E+03  0.67801662438E+03  0.00000000000E+00 0. -1.
         -5    1    3    3    0  503 -0.46711008915E+01 -0.56745511862E+02  0.61805667530E+03  0.62069156285E+03  0.47000000000E+01 0.  1.
         11    1    4    4    0    0 -0.50678218796E+02  0.37212404220E+02  0.18484998428E+03  0.19524999764E+03  0.00000000000E+00 0. -1.
        -12    1    4    4    0    0  0.24960848446E+02 -0.78547989384E+01  0.54866622012E+02  0.60787235770E+02  0.00000000000E+00 0.  1.
</event>
<event>
12    1  0.8356052E-002  0.2088622E+03  0.7818608E-02  0.1142492E+00
         21   -1    0    0  503  502  0.00000000000E+00  0.00000000000E+00  0.50414207121E+03  0.50414207121E+03  0.00000000000E+00 0.  1.
         21   -1    0    0  501  503 -0.00000000000E+00 -0.00000000000E+00 -0.12382761547E+03  0.12382761547E+03  0.00000000000E+00 0.  1.
          6    2    1    2  501    0 -0.60595977997E+02  0.10146547352E+03  0.17694719210E+02  0.20950046938E+03  0.17207622938E+03 0.  0.
         24    2    3    3    0    0 -0.77151713650E+02  0.77119313306E+02 -0.41901606294E+02  0.14286234280E+03  0.82183507937E+02 0.  0.
         -6    2    1    2    0  502  0.60595977997E+02 -0.10146547352E+03  0.36261973653E+03  0.41846921731E+03  0.17221003933E+03 0.  0.
        -24    2    5    5    0    0  0.34541200471E+02 -0.13840279008E+03  0.26999856258E+03  0.31529950930E+03  0.78524709078E+02 0.  0.
          5    1    3    3  501    0  0.16555735653E+02  0.24346160211E+02  0.59596325503E+02  0.66638126576E+02  0.47000000000E+01 0. -1.
        -13    1    4    4    0    0 -0.28550431457E+02  0.76898616359E+02 -0.56352544711E+01  0.82220924510E+02  0.00000000000E+00 0.  1.
         14    1    4    4    0    0 -0.48601282193E+02  0.22069694728E+00 -0.36266351822E+02  0.60641418292E+02  0.00000000000E+00 0. -1.
         -5    1    5    5    0  502  0.26054777526E+02  0.36937316563E+02  0.92621173950E+02  0.10316970801E+03  0.47000000000E+01 0.  1.
         11    1    6    6    0    0 -0.17338372059E+02 -0.80626785620E+02  0.16757251337E+03  0.18676681970E+03  0.00000000000E+00 0. -1.
        -12    1    6    6    0    0  0.51879572531E+02 -0.57776004459E+02  0.10242604921E+03  0.12853268959E+03  0.00000000000E+00 0.  1.
</event>
<event>
12    1  0.8356052E-002  0.1859291E+03  0.7818608E-02  0.1164814E+00
         21   -1    0    0  503  502  0.00000000000E+00  0.00000000000E+00  0.26920484689E+03  0.26920484689E+03  0.00000000000E+00 0. -1.
         21   -1    0    0  501  503 -0.00000000000E+00 -0.00000000000E+00 -0.15444569210E+03  0.15444569210E+03  0.00000000000E+00 0. -1.
          6    2    1    2  501    0 -0.32133036513E+02 -0.30398020183E+01 -0.42601713364E+02  0.18006878794E+03  0.17195374372E+03 0.  0.
         24    2    3    3    0    0  0.12162906800E+01  0.43459050646E+02 -0.74929930417E+02  0.11417854177E+03  0.74377930073E+02 0.  0.
         -6    2    1    2    0  502  0.32133036513E+02  0.30398020183E+01  0.15736086815E+03  0.24358175105E+03  0.18310612820E+03 0.  0.
        -24    2    5    5    0    0  0.14210463855E+02 -0.53855619751E+02  0.15274102116E+03  0.18356724767E+03  0.85233501700E+02 0.  0.
          5    1    3    3  501    0 -0.33349327193E+02 -0.46498852664E+02  0.32328217053E+02  0.65890246176E+02  0.47000000000E+01 0. -1.
        -11    1    4    4    0    0  0.22497142561E-01  0.11919874138E+02 -0.81140645011E+02  0.82011512475E+02  0.00000000000E+00 0.  1.
         12    1    4    4    0    0  0.11937935374E+01  0.31539176507E+02  0.62107145945E+01  0.32167029293E+02  0.00000000000E+00 0. -1.
         -5    1    5    5    0  502  0.17922572658E+02  0.56895421770E+02  0.46198469976E+01  0.60014503375E+02  0.47000000000E+01 0.  1.
         13    1    6    6    0    0  0.47598865701E+02 -0.47189693928E+02  0.90437142941E+02  0.11256729566E+03  0.00000000000E+00 0. -1.
        -14    1    6    6    0    0 -0.33388401846E+02 -0.66659258238E+01  0.62303878216E+02  0.70999952012E+02  0.00000000000E+00 0.  1.
</event>
<event>
12    1  0.8356052E-002  0.2058165E+03  0.7818608E-02  0.1145240E+00
         21   -1    0    0  501  502  0.00000000000E+00  0.00000000000E+00  0.10708206556E+03  0.10708206556E+03  0.00000000000E+00 0.  1.
         21   -1    0    0  502  503 -0.00000000000E+00 -0.00000000000E+00 -0.94418069787E+03  0.94418069787E+03  0.00000000000E+00 0.  1.
         -6    2    1    2    0  503  0.78064419905E+02 -0.77193734397E+02 -0.82095920380E+03  0.84636543118E+03  0.17409050089E+03 0.  0.
        -24    2    3    3    0    0  0.10988098244E+03 -0.96668913889E+02 -0.70757124609E+03  0.72690625312E+03  0.79479074740E+02 0.  0.
          6    2    1    2  501    0 -0.78064419905E+02  0.77193734397E+02 -0.16139428512E+02  0.20489733225E+03  0.17224839426E+03 0.  0.
         24    2    5    5    0    0  0.11592434981E+02  0.65047102540E+02 -0.41779531508E+02  0.11074109414E+03  0.78438195923E+02 0.  0.
          5    1    5    5  501    0 -0.89656854886E+02  0.12146631857E+02  0.25640102996E+02  0.94156238111E+02  0.47000000000E+01 0. -1.
        -13    1    6    6    0    0 -0.31881013123E+01  0.63901313851E+02 -0.59683136528E+02  0.87496392426E+02  0.00000000000E+00 0.  1.
         14    1    6    6    0    0  0.14780536293E+02  0.11457886892E+01  0.17903605020E+02  0.23244701709E+02  0.00000000000E+00 0. -1.
         -5    1    3    3    0  503 -0.31816562533E+02  0.19475179491E+02 -0.11338795772E+03  0.11945917806E+03  0.47000000000E+01 0.  1.
         13    1    4    4    0    0  0.12624798804E+01 -0.44125431336E+02 -0.14643398393E+03  0.15294299329E+03  0.00000000000E+00 0. -1.
        -14    1    4    4    0    0  0.10861850256E+03 -0.52543482553E+02 -0.56113726216E+03  0.57396325983E+03  0.00000000000E+00 0.  1.
</event>
<event>
12    1  0.8356052E-002  0.1739806E+03  0.7818608E-02  0.1173902E+00
         21   -1    0    0  501  502  0.00000000000E+00  0.00000000000E+00  0.21074080764E+02  0.21074080764E+02  0.00000000000E+00 0.  1.
         21   -1    0    0  502  503 -0.00000000000E+00 -0.00000000000E+00 -0.14707295200E+04  0.14707295200E+04  0.00000000000E+00 0.  1.
         -6    2    1    2    0  503 -0.27264365116E+02 -0.39221994921E+01 -0.60442361060E+03  0.62896515269E+03  0.17178630035E+03 0.  0.
        -24    2    3    3    0    0 -0.22492743214E+02 -0.58086510049E+02 -0.50874061767E+03  0.51881132365E+03  0.80425166097E+02 0.  0.
          6    2    1    2  501    0  0.27264365116E+02  0.39221994921E+01 -0.84523182866E+03  0.86283844811E+03  0.17121511057E+03 0.  0.
         24    2    5    5    0    0  0.35294600509E+02 -0.30116915647E+01 -0.84664560026E+03  0.85114861167E+03  0.79940024999E+02 0.  0.
          5    1    5    5  501    0 -0.80302353936E+01  0.69338910567E+01  0.14137715996E+01  0.11689836432E+02  0.47000000000E+01 0. -1.
        -11    1    6    6    0    0  0.52682802554E+02 -0.17864195321E+02 -0.39191539203E+03  0.39584375917E+03  0.00000000000E+00 0.  1.
         12    1    6    6    0    0 -0.17388202045E+02  0.14852503756E+02 -0.45473020823E+03  0.45530485251E+03  0.00000000000E+00 0. -1.
         -5    1    3    3    0  503 -0.47716219016E+01  0.54164310557E+02 -0.95682992935E+02  0.11015382903E+03  0.47000000000E+01 0.  1.
         11    1    4    4    0    0  0.29696047174E+02 -0.13178629557E+02 -0.18489245830E+03  0.18772520511E+03  0.00000000000E+00 0. -1.
        -12    1    4    4    0    0 -0.52188790389E+02 -0.44907880492E+02 -0.32384815936E+03  0.33108611855E+03  0.00000000000E+00 0.  1.
</event>
<event>
12    1  0.8356052E-002  0.3168646E+03  0.7818608E-02  0.1077187E+00
         21   -1    0    0  501  502  0.00000000000E+00  0.00000000000E+00  0.17033966434E+04  0.17033966434E+04  0.00000000000E+00 0.  1.
         21   -1    0    0  502  503 -0.00000000000E+00 -0.00000000000E+00 -0.71017199404E+02  0.71017199404E+02  0.00000000000E+00 0. -1.
         -6    2    1    2    0  503  0.25655356190E+03  0.68638000006E+02  0.44751208132E+03  0.54790912756E+03  0.17148307196E+03 0.  0.
        -24    2    3    3    0    0  0.25457783176E+03  0.65518123435E+02  0.35628015284E+03  0.45648160483E+03  0.11107390025E+03 0.  0.
          6    2    1    2  501    0 -0.25655356190E+03 -0.68638000006E+02  0.11848673627E+04  0.12265047153E+04  0.17283588808E+03 0.  0.
         24    2    5    5    0    0 -0.24767956658E+03 -0.13374228737E+02  0.99101778882E+03  0.10246815761E+04  0.79574097240E+02 0.  0.
          5    1    5    5  501    0 -0.88739953205E+01 -0.55263771269E+02  0.19384957387E+03  0.20182313916E+03  0.47000000000E+01 0. -1.
        -11    1    6    6    0    0 -0.10805566403E+03  0.22852723305E+01  0.28468571319E+03  0.30451141899E+03  0.00000000000E+00 0.  1.
         12    1    6    6    0    0 -0.13962390255E+03 -0.15659501067E+02  0.70633207563E+03  0.72017015711E+03  0.00000000000E+00 0. -1.
         -5    1    3    3    0  503  0.19757301450E+01  0.31198765705E+01  0.91231928483E+02  0.91427522739E+02  0.47000000000E+01 0.  1.
         11    1    4    4    0    0  0.52492686308E+02  0.59413029966E+02  0.13649891071E+03  0.15785228180E+03  0.00000000000E+00 0. -1.
        -12    1    4    4    0    0  0.20208514545E+03  0.61050934687E+01  0.21978124213E+03  0.29862932303E+03  0.00000000000E+00 0.  1.
</event>
<event>
12    1  0.8356052E-002  0.2795135E+03  0.7818608E-02  0.1096849E+00
         21   -1    0    0  501  502  0.00000000000E+00  0.00000000000E+00  0.11268785710E+03  0.11268785710E+03  0.00000000000E+00 0.  1.
         21   -1    0    0  502  503 -0.00000000000E+00 -0.00000000000E+00 -0.68450775566E+03  0.68450775566E+03  0.00000000000E+00 0. -1.
         -6    2    1    2    0  503  0.19780550139E+03 -0.75969608965E+02 -0.24860327338E+03  0.37407403264E+03  0.18228932085E+03 0.  0.
        -24    2    3    3    0    0  0.83723016119E+02 -0.62366105491E+02 -0.21910782155E+03  0.25536455353E+03  0.79396115730E+02 0.  0.
          6    2    1    2  501    0 -0.19780550139E+03  0.75969608965E+02 -0.32321662519E+03  0.42312158012E+03  0.17223381461E+03 0.  0.
         24    2    5    5    0    0 -0.31095844329E+02  0.52849169998E+01 -0.66868963733E+02  0.10923521697E+03  0.80411394924E+02 0.  0.
          5    1    5    5  501    0 -0.16670965706E+03  0.70684691965E+02 -0.25634766145E+03  0.31388636315E+03  0.47000000000E+01 0. -1.
        -13    1    6    6    0    0 -0.34661115482E+02 -0.30474931288E+02 -0.20320750994E+02  0.50428635560E+02  0.00000000000E+00 0.  1.
         14    1    6    6    0    0  0.35652711527E+01  0.35759848288E+02 -0.46548212739E+02  0.58806581410E+02  0.00000000000E+00 0. -1.
         -5    1    3    3    0  503  0.11408248527E+03 -0.13603503474E+02 -0.29495451827E+02  0.11870947911E+03  0.47000000000E+01 0.  1.
         11    1    4    4    0    0  0.86689347824E+02 -0.70385166358E+02 -0.15694115753E+03  0.19261267247E+03  0.00000000000E+00 0. -1.
        -12    1    4    4    0    0 -0.29663317056E+01  0.80190608667E+01 -0.62166664027E+02  0.62751881065E+02  0.00000000000E+00 0.  1.
</event>
<event>
12    1  0.8356052E-002  0.1724559E+03  0.7818608E-02  0.1176356E+00
         21   -1    0    0  503  502  0.00000000000E+00  0.00000000000E+00  0.34360843459E+02  0.34360843459E+02  0.00000000000E+00 0. -1.
         21   -1    0    0  501  503 -0.00000000000E+00 -0.00000000000E+00 -0.90010446046E+03  0.90010446046E+03  0.00000000000E+00 0. -1.
          6    2    1    2  501    0 -0.68392588052E+00 -0.14286327500E+02 -0.55284296475E+03  0.57911688411E+03  0.17186173187E+03 0.  0.
         24    2    3    3    0    0  0.53436626180E+02 -0.42250788846E+02 -0.41714579491E+03  0.43029868241E+03  0.80658165747E+02 0.  0.
         -6    2    1    2    0  502  0.68392588052E+00  0.14286327500E+02 -0.31290065226E+03  0.35534841981E+03  0.16781273603E+03 0.  0.
        -24    2    5    5    0    0 -0.25832625375E+02  0.51262106110E+02 -0.11472344311E+03  0.15196053443E+03  0.81458011080E+02 0.  0.
          5    1    3    3  501    0 -0.54120552060E+02  0.27964461346E+02 -0.13569716984E+03  0.14881820169E+03  0.47000000000E+01 0. -1.
        -11    1    4    4    0    0  0.19681669019E+02 -0.93931302127E+01 -0.33419271910E+03  0.33490352714E+03  0.00000000000E+00 0.  1.
         12    1    4    4    0    0  0.33754957161E+02 -0.32857658633E+02 -0.82953075806E+02  0.95395155273E+02  0.00000000000E+00 0. -1.
         -5    1    5    5    0  502  0.26516551255E+02 -0.36975778611E+02 -0.19817720915E+03  0.20338788538E+03  0.47000000000E+01 0.  1.
         13    1    6    6    0    0 -0.19664235973E+02  0.73289256246E+02 -0.96208014664E+02  0.12253154428E+03  0.00000000000E+00 0. -1.
        -14    1    6    6    0    0 -0.61683894021E+01 -0.22027150136E+02 -0.18515428443E+02  0.29428990152E+02  0.00000000000E+00 0.  1.
</event>
<event>
12    1  0.8356052E-002  0.1787704E+03  0.7818608E-02  0.1170455E+00
         21   -1    0    0  501  502  0.00000000000E+00  0.00000000000E+00  0.90071509385E+03  0.90071509385E+03  0.00000000000E+00 0.  1.
         21   -1    0    0  502  503 -0.00000000000E+00 -0.00000000000E+00 -0.65877951361E+02  0.65877951361E+02  0.00000000000E+00 0.  1.
         -6    2    1    2    0  503 -0.35483440496E+02 -0.25423768948E+02  0.79358078457E+02  0.19025066816E+03  0.16730860570E+03 0.  0.
        -24    2    3    3    0    0 -0.11096269385E+01 -0.76499583417E+02  0.59437956605E+02  0.12537232712E+03  0.79573438949E+02 0.  0.
          6    2    1    2  501    0  0.35483440496E+02  0.25423768948E+02  0.75547906403E+03  0.77634237705E+03  0.17335924445E+03 0.  0.
         24    2    5    5    0    0 -0.41334748861E+02 -0.12272737396E+02  0.32746724600E+03  0.33983548457E+03  0.79963603123E+02 0.  0.
          5    1    5    5  501    0  0.76818189357E+02  0.37696506345E+02  0.42801181803E+03  0.43650689248E+03  0.47000000000E+01 0. -1.
        -11    1    6    6    0    0 -0.22853776198E+02 -0.36057782726E+02  0.28253059640E+03  0.28573763610E+03  0.00000000000E+00 0.  1.
         12    1    6    6    0    0 -0.18480972664E+02  0.23785045329E+02  0.44936649594E+02  0.54097848466E+02  0.00000000000E+00 0. -1.
         -5    1    3    3    0  503 -0.34373813558E+02  0.51075814469E+02  0.19920121852E+02  0.64878341045E+02  0.47000000000E+01 0.  1.
         11    1    4    4    0    0 -0.17649080997E+02 -0.24507151986E+02  0.63852270587E+02  0.70634290664E+02  0.00000000000E+00 0. -1.
        -12    1    4    4    0    0  0.16539454058E+02 -0.51992431432E+02 -0.44143139821E+01  0.54738036452E+02  0.00000000000E+00 0.  1.
</event>
<event>
12    1  0.8356052E-002  0.2187274E+03  0.7818608E-02  0.1136397E+00
         21   -1    0    0  501  502  0.00000000000E+00  0.00000000000E+00  0.30508365261E+03  0.30508365261E+03  0.00000000000E+00 0.  1.
         21   -1    0    0  502  503 -0.00000000000E+00 -0.00000000000E+00 -0.70703962462E+03  0.70703962462E+03  0.00000000000E+00 0.  1.
         -6    2    1    2    0  503 -0.35495202089E+02  0.11006495609E+03 -0.65054561690E+03  0.68633176156E+03  0.18565420365E+03 0.  0.
        -24    2    3    3    0    0  0.31728455647E+02  0.11520565547E+03 -0.34623766124E+03  0.37460933884E+03  0.78565900591E+02 0.  0.
          6    2    1    2  501    0  0.35495202089E+02 -0.11006495609E+03  0.24858964489E+03  0.32579151567E+03  0.17598038586E+03 0.  0.
         24    2    5    5    0    0 -0.39720008000E+02 -0.76925332725E+02  0.19562151769E+03  0.22789731275E+03  0.78576212231E+02 0.  0.
          5    1    5    5  501    0  0.75215210089E+02 -0.33139623365E+02  0.52968127201E+02  0.97894202916E+02  0.47000000000E+01 0. -1.
        -13    1    6    6    0    0 -0.14182178789E+01 -0.76251174627E+02  0.10745445381E+03  0.13176764632E+03  0.00000000000E+00 0.  1.
         14    1    6    6    0    0 -0.38301790121E+02 -0.67415809756E+00  0.88167063876E+02  0.96129666431E+02  0.00000000000E+00 0. -1.
         -5    1    3    3    0  503 -0.67223657736E+02 -0.51406993825E+01 -0.30430795566E+03  0.31172242272E+03  0.47000000000E+01 0.  1.
         13    1    4    4    0    0  0.28169396699E+02  0.38325256978E+01 -0.43016816825E+02  0.51562095510E+02  0.00000000000E+00 0. -1.
        -14    1    4    4    0    0  0.35590589480E+01  0.11137312977E+03 -0.30322084442E+03  0.32304724333E+03  0.00000000000E+00 0.  1.
</event>
<event>
12    1  0.8356052E-002  0.2567191E+03  0.7818608E-02  0.1109238E+00
         21   -1    0    0  503  502  0.00000000000E+00  0.00000000000E+00  0.91325874070E+02  0.91325874070E+02  0.00000000000E+00 0. -1.
         21   -1    0    0  501  503 -0.00000000000E+00 -0.00000000000E+00 -0.85175895548E+03  0.85175895548E+03  0.00000000000E+00 0.  1.
          6    2    1    2  501    0  0.17253435763E+03 -0.80757868925E+02 -0.56634892244E+03  0.62181654673E+03  0.17208944733E+03 0.  0.
         24    2    3    3    0    0  0.10646713398E+03 -0.43651411800E+02 -0.50568617900E+03  0.52463719891E+03  0.79277881402E+02 0.  0.
         -6    2    1    2    0  502 -0.17253435763E+03  0.80757868925E+02 -0.19408415897E+03  0.32126828282E+03  0.17104008544E+03 0.  0.
        -24    2    5    5    0    0 -0.66369134156E+02  0.62948586860E+02 -0.17414560532E+03  0.21168789623E+03  0.78215644229E+02 0.  0.
          5    1    3    3  501    0  0.66067223650E+02 -0.37106457125E+02 -0.60662743444E+02  0.97179347824E+02  0.47000000000E+01 0. -1.
        -11    1    4    4    0    0  0.43428369157E+02  0.21433613712E+02 -0.15197267882E+03  0.15950272146E+03  0.00000000000E+00 0.  1.
         12    1    4    4    0    0  0.63038764822E+02 -0.65085025512E+02 -0.35371350017E+03  0.36513447745E+03  0.00000000000E+00 0. -1.
         -5    1    5    5    0  502 -0.10616522347E+03  0.17809282065E+02 -0.19938553648E+02  0.10958038659E+03  0.47000000000E+01 0.  1.
         11    1    6    6    0    0 -0.28688384883E+02  0.28935494642E+02 -0.13052115073E+02  0.42786025584E+02  0.00000000000E+00 0. -1.
        -12    1    6    6    0    0 -0.37680749272E+02  0.34013092218E+02 -0.16109349025E+03  0.16890187065E+03  0.00000000000E+00 0.  1.
</event>
<event>
12    1  0.8356052E-002  0.3258778E+03  0.7818608E-02  0.1073818E+00
         21   -1    0    0  501  502  0.00000000000E+00  0.00000000000E+00  0.16495571636E+03  0.16495571636E+03  0.00000000000E+00 0. -1.
         21   -1    0    0  502  503 -0.00000000000E+00 -0.00000000000E+00 -0.62923879589E+03  0.62923879589E+03  0.00000000000E+00 0.  1.
         -6    2    1    2    0  503 -0.27056122441E+03  0.57473134627E+02 -0.22897460733E+03  0.39224129869E+03  0.15785223546E+03 0.  0.
        -24    2    3    3    0    0 -0.60908988766E+02  0.20224467240E+02 -0.11457555680E+03  0.15047538734E+03  0.73459852913E+02 0.  0.
          6    2    1    2  501    0  0.27056122441E+03 -0.57473134627E+02 -0.23530847220E+03  0.40195321356E+03  0.17230720079E+03 0.  0.
         24    2    5    5    0    0  0.17166423166E+03 -0.10414147848E+03 -0.14612120598E+03  0.26076182590E+03  0.79569259379E+02 0.  0.
          5    1    5    5  501    0  0.98896992749E+02  0.46668343857E+02 -0.89187266221E+02  0.14119138766E+03  0.47000000000E+01 0. -1.
        -11    1    6    6    0    0  0.12687403301E+03 -0.97340635333E+02 -0.14434339782E+03  0.21542338785E+03  0.00000000000E+00 0.  1.
         12    1    6    6    0    0  0.44790198654E+02 -0.68008431508E+01 -0.17778081582E+01  0.45338438051E+02  0.00000000000E+00 0. -1.
         -5    1    3    3    0  503 -0.20965223564E+03  0.37248667387E+02 -0.11439905053E+03  0.24176591136E+03  0.47000000000E+01 0.  1.
         11    1    4    4    0    0 -0.56469247807E+02  0.18254131515E+02 -0.31368241074E+02  0.67126416658E+02  0.00000000000E+00 0. -1.
        -12    1    4    4    0    0 -0.44397409590E+01  0.19703357253E+01 -0.83207315727E+02  0.83348970678E+02  0.00000000000E+00 0.  1.
</event>
<event>
12    1  0.8356052E-002  0.2543930E+03  0.7818608E-02  0.1111455E+00
         21   -1    0    0  503  502  0.00000000000E+00  0.00000000000E+00  0.78271077623E+03  0.78271077623E+03  0.00000000000E+00 0. -1.
         21   -1    0    0  501  503 -0.00000000000E+00 -0.00000000000E+00 -0.11297384866E+03  0.11297384866E+03  0.00000000000E+00 0.  1.
          6    2    1    2  501    0 -0.73727378712E+02 -0.16426485878E+03  0.93271957817E+02  0.26558330353E+03  0.17151140720E+03 0.  0.
         24    2    3    3    0    0 -0.75572368152E+02 -0.16993010997E+03  0.37822267823E+02  0.20961673157E+03  0.89001264639E+02 0.  0.
         -6    2    1    2    0  502  0.73727378712E+02  0.16426485878E+03  0.57646496975E+03  0.63010132136E+03  0.17971406074E+03 0.  0.
        -24    2    5    5    0    0  0.56692314417E+02  0.17494155366E+03  0.57589760681E+03  0.60944709347E+03  0.77130671540E+02 0.  0.
          5    1    3    3  501    0  0.18449894402E+01  0.56652511895E+01  0.55449689994E+02  0.55966571965E+02  0.47000000000E+01 0. -1.
        -11    1    4    4    0    0 -0.80591762208E+02 -0.85765033715E+02  0.42613172289E+02  0.12516611201E+03  0.00000000000E+00 0.  1.
         12    1    4    4    0    0  0.50193940561E+01 -0.84165076252E+02 -0.47909044661E+01  0.84450619552E+02  0.00000000000E+00 0. -1.
         -5    1    5    5    0  502  0.17035064294E+02 -0.10676694886E+02  0.56736294071E+00  0.20654227894E+02  0.47000000000E+01 0.  1.
         11    1    6    6    0    0  0.44367692478E+02  0.92550498775E+02  0.20437676805E+03  0.22870056904E+03  0.00000000000E+00 0. -1.
        -12    1    6    6    0    0  0.12324621939E+02  0.82391054889E+02  0.37152083876E+03  0.38074652443E+03  0.00000000000E+00 0.  1.
</event>
<event>
12    1  0.8356052E-002  0.3412737E+03  0.7818608E-02  0.1066272E+00
         21   -1    0    0  501  502  0.00000000000E+00  0.00000000000E+00  0.36941838023E+03  0.36941838023E+03  0.00000000000E+00 0.  1.
         21   -1    0    0  502  503 -0.00000000000E+00 -0.00000000000E+00 -0.31549142497E+03  0.31549142497E+03  0.00000000000E+00 0. -1.
         -6    2    1    2    0  503 -0.23835283713E+03  0.17343926202E+03  0.15227321557E+02  0.34144888940E+03  0.17164562380E+03 0.  0.
        -24    2    3    3    0    0 -0.22023870988E+03  0.11858605010E+03 -0.34483250113E+02  0.26509296363E+03  0.80730689447E+02 0.  0.
          6    2    1    2  501    0  0.23835283713E+03 -0.17343926202E+03  0.38699633704E+02  0.34346091580E+03  0.17197234212E+03 0.  0.
         24    2    5    5    0    0  0.16248436945E+03 -0.13816053391E+03  0.89460262971E+02  0.24548467108E+03  0.82280505824E+02 0.  0.
          5    1    5    5  501    0  0.75868467682E+02 -0.35278728111E+02 -0.50760629267E+02  0.97976244719E+02  0.47000000000E+01 0. -1.
        -11    1    6    6    0    0  0.10981192580E+03 -0.46602982586E+02  0.69269367469E+02  0.13794470741E+03  0.00000000000E+00 0.  1.
         12    1    6    6    0    0  0.52672443655E+02 -0.91557551325E+02  0.20190895502E+02  0.10753996367E+03  0.00000000000E+00 0. -1.
         -5    1    3    3    0  503 -0.18114127253E+02  0.54853211921E+02  0.49710571671E+02  0.76355925769E+02  0.47000000000E+01 0.  1.
         11    1    4    4    0    0 -0.13226861054E+03  0.11148850952E+03 -0.89550652126E+01  0.17321912793E+03  0.00000000000E+00 0. -1.
        -12    1    4    4    0    0 -0.87970099343E+02  0.70975405755E+01 -0.25528184901E+02  0.91873835693E+02  0.00000000000E+00 0.  1.
</event>
<event>
12    1  0.8356052E-002  0.2144007E+03  0.7818608E-02  0.1138173E+00
         21   -1    0    0  503  502  0.00000000000E+00  0.00000000000E+00  0.59779174275E+03  0.59779174275E+03  0.00000000000E+00 0.  1.
         21   -1    0    0  501  503 -0.00000000000E+00 -0.00000000000E+00 -0.80739308416E+02  0.80739308416E+02  0.00000000000E+00 0. -1.
          6    2    1    2  501    0 -0.30486537453E+02  0.12477206159E+03  0.18384013700E+03  0.28242669314E+03  0.17166870625E+03 0.  0.
         24    2    3    3    0    0 -0.42539338120E+02  0.14818289038E+03  0.18692560819E+03  0.25550185255E+03  0.81069410823E+02 0.  0.
         -6    2    1    2    0  502  0.30486537453E+02 -0.12477206159E+03  0.33321229733E+03  0.39610435803E+03  0.17137891070E+03 0.  0.
        -24    2    5    5    0    0  0.66967815662E+02 -0.62043641358E+02  0.12169672996E+03  0.17243794659E+03  0.81182815748E+02 0.  0.
          5    1    3    3  501    0  0.12052800667E+02 -0.23410828787E+02 -0.30854711867E+01  0.26924840591E+02  0.47000000000E+01 0. -1.
        -11    1    4    4    0    0 -0.17058710259E+02 -0.40557364771E+01  0.33800973278E+02  0.38078266618E+02  0.00000000000E+00 0.  1.
         12    1    4    4    0    0 -0.25480627861E+02  0.15223862686E+03  0.15312463491E+03  0.21742358593E+03  0.00000000000E+00 0. -1.
         -5    1    5    5    0  502 -0.36481278209E+02 -0.62728420234E+02  0.21151556737E+03  0.22366641144E+03  0.47000000000E+01 0.  1.
         11    1    6    6    0    0  0.10057386481E+02  0.19779121756E+02  0.27096616023E+02  0.35022725196E+02  0.00000000000E+00 0. -1.
        -12    1    6    6    0    0  0.56910429181E+02 -0.81822763114E+02  0.94600113941E+02  0.13741522139E+03  0.00000000000E+00 0.  1.
</event>
<event>
12    1  0.8356052E-002  0.1962291E+03  0.7818608E-02  0.1153213E+00
         21   -1    0    0  503  502  0.00000000000E+00  0.00000000000E+00  0.53103013277E+03  0.53103013277E+03  0.00000000000E+00 0.  1.
         21   -1    0    0  501  503 -0.00000000000E+00 -0.00000000000E+00 -0.11291751950E+03  0.11291751950E+03  0.00000000000E+00 0.  1.
          6    2    1    2  501    0 -0.69668947811E+01  0.93381251420E+02  0.15828752776E+02  0.19686652106E+03  0.17244501141E+03 0.  0.
         24    2    3    3    0    0  0.49581709452E+02  0.40017085889E+02 -0.29682720469E+02  0.10665087385E+03  0.80209924100E+02 0.  0.
         -6    2    1    2    0  502  0.69668947811E+01 -0.93381251420E+02  0.40228386049E+03  0.44708113122E+03  0.17111586056E+03 0.  0.
        -24    2    5    5    0    0  0.24472568860E+02 -0.98773695911E+01  0.90088391465E+02  0.12340313106E+03  0.80099596883E+02 0.  0.
          5    1    3    3  501    0 -0.56548604233E+02  0.53364165532E+02  0.45511473244E+02  0.90215647204E+02  0.47000000000E+01 0. -1.
        -11    1    4    4    0    0  0.57062170473E+01  0.55467455840E+02 -0.19149930639E+02  0.58956928463E+02  0.00000000000E+00 0.  1.
         12    1    4    4    0    0  0.43875492404E+02 -0.15450369951E+02 -0.10532789830E+02  0.47693945391E+02  0.00000000000E+00 0. -1.
         -5    1    5    5    0  502 -0.17505674079E+02 -0.83503881829E+02  0.31219546903E+03  0.32367800016E+03  0.47000000000E+01 0.  1.
         13    1    6    6    0    0 -0.35852756668E+01 -0.14152370304E+02 -0.11080766295E+02  0.18328316030E+02  0.00000000000E+00 0. -1.
        -14    1    6    6    0    0  0.28057844527E+02  0.42750007124E+01  0.10116915776E+03  0.10507481503E+03  0.00000000000E+00 0.  1.
</event>
<event>
12    1  0.8356052E-002  0.2731383E+03  0.7818608E-02  0.1100390E+00
         21   -1    0    0  503  502  0.00000000000E+00  0.00000000000E+00  0.74101174054E+03  0.74101174054E+03  0.00000000000E+00 0. -1.
         21   -1    0    0  501  503 -0.00000000000E+00 -0.00000000000E+00 -0.22153176783E+03  0.22153176783E+03  0.00000000000E+00 0.  1.
          6    2    1    2  501    0  0.16150057974E+03  0.12768656752E+03 -0.97738148811E+02  0.29009873313E+03  0.17949437999E+03 0.  0.
         24    2    3    3    0    0  0.14958563037E+03  0.35954301105E+02 -0.25342932948E+02  0.17254052627E+03  0.73887728158E+02 0.  0.
         -6    2    1    2    0  502 -0.16150057974E+03 -0.12768656752E+03  0.61721812152E+03  0.67244477524E+03  0.16981598700E+03 0.  0.
        -24    2    5    5    0    0 -0.18352001469E+03 -0.81823441682E+02  0.49931701728E+03  0.54394947491E+03  0.78669410245E+02 0.  0.
          5    1    3    3  501    0  0.11914949366E+02  0.91732266418E+02 -0.72395215863E+02  0.11755820686E+03  0.47000000000E+01 0. -1.
        -11    1    4    4    0    0  0.53664907218E+02 -0.37432572272E+00  0.23917921388E+02  0.58754824057E+02  0.00000000000E+00 0.  1.
         12    1    4    4    0    0  0.95920723156E+02  0.36328626828E+02 -0.49260854335E+02  0.11378570221E+03  0.00000000000E+00 0. -1.
         -5    1    5    5    0  502  0.22019434953E+02 -0.45863125840E+02  0.11790110424E+03  0.12849530034E+03  0.47000000000E+01 0.  1.
         11    1    6    6    0    0 -0.10399278481E+03 -0.16577377863E+02  0.18077954446E+03  0.20921413061E+03  0.00000000000E+00 0. -1.
        -12    1    6    6    0    0 -0.79527229878E+02 -0.65246063819E+02  0.31853747281E+03  0.33473534430E+03  0.00000000000E+00 0.  1.
</event>
<event>
12    1  0.8356052E-002  0.1760823E+03  0.7818608E-02  0.1172535E+00
         21   -1    0    0  501  502  0.00000000000E+00  0.00000000000E+00  0.27621011587E+03  0.27621011587E+03  0.00000000000E+00 0.  1.
         21   -1    0    0  502  503 -0.00000000000E+00 -0.00000000000E+00 -0.29710695148E+03  0.29710695148E+03  0.00000000000E+00 0.  1.
         -6    2    1    2    0  503  0.20333000467E+02 -0.72859922644E+01 -0.23795618431E+03  0.29602050180E+03  0.17475261154E+03 0.  0.
        -24    2    3    3    0    0  0.77650894209E+02 -0.25305020387E+02 -0.17663900677E+03  0.21004426916E+03  0.79039552529E+02 0.  0.
          6    2    1    2  501    0 -0.20333000467E+02  0.72859922644E+01  0.21705934870E+03  0.27729656556E+03  0.17120779135E+03 0.  0.
         24    2    5    5    0    0 -0.78066450505E+02 -0.74435175947E+01  0.15811853484E+03  0.19335480448E+03  0.78960956855E+02 0.  0.
          5    1    5    5  501    0  0.57733450038E+02  0.14729509859E+02  0.58940813863E+02  0.83941761078E+02  0.47000000000E+01 0. -1.
        -11    1    6    6    0    0 -0.44767643929E+02  0.30553682218E+02  0.11420803180E+03  0.12641654943E+03  0.00000000000E+00 0.  1.
         12    1    6    6    0    0 -0.33298806576E+02 -0.37997199813E+02  0.43910503032E+02  0.66938255053E+02  0.00000000000E+00 0. -1.
         -5    1    3    3    0  503 -0.57317893742E+02  0.18019028123E+02 -0.61317177540E+02  0.85976232640E+02  0.47000000000E+01 0.  1.
         11    1    4    4    0    0  0.66271833796E+02  0.16626283795E+02 -0.88767122053E+02  0.11201781655E+03  0.00000000000E+00 0. -1.
        -12    1    4    4    0    0  0.11379060414E+02 -0.41931304182E+02 -0.87871884718E+02  0.98026452604E+02  0.00000000000E+00 0.  1.
</event>
<event>
12    1  0.8356052E-002  0.2257182E+03  0.7818608E-02  0.1129738E+00
         21   -1    0    0  501  502  0.00000000000E+00  0.00000000000E+00  0.41206329524E+03  0.41206329524E+03  0.00000000000E+00 0.  1.
         21   -1    0    0  502  503 -0.00000000000E+00 -0.00000000000E+00 -0.26223457219E+03  0.26223457219E+03  0.00000000000E+00 0.  1.
         -6    2    1    2    0  503 -0.10139330268E+03  0.10545372036E+03 -0.17033585822E+03  0.28256573752E+03  0.17154591939E+03 0.  0.
        -24    2    3    3    0    0  0.52730965966E+01  0.85105614029E+02 -0.94187113941E+02  0.14985369052E+03  0.79461594764E+02 0.  0.
          6    2    1    2  501    0  0.10139330268E+03 -0.10545372036E+03  0.32016458127E+03  0.39173212991E+03  0.17189419286E+03 0.  0.
         24    2    5    5    0    0  0.13277730638E+03 -0.65992618848E+02  0.28347951120E+03  0.32920198848E+03  0.77643268321E+02 0.  0.
          5    1    5    5  501    0 -0.31384003709E+02 -0.39461101512E+02  0.36685070077E+02  0.62530141435E+02  0.47000000000E+01 0. -1.
        -13    1    6    6    0    0  0.43880971251E+02 -0.49949279239E+02  0.17975414281E+03  0.19165599911E+03  0.00000000000E+00 0.  1.
         14    1    6    6    0    0  0.88896335132E+02 -0.16043339608E+02  0.10372536838E+03  0.13754598937E+03  0.00000000000E+00 0. -1.
         -5    1    3    3    0  503 -0.10666639927E+03  0.20348106330E+02 -0.76148744277E+02  0.13271204700E+03  0.47000000000E+01 0.  1.
         13    1    4    4    0    0  0.38247168076E+02  0.19734159269E+02 -0.29748240010E+02  0.52318645735E+02  0.00000000000E+00 0. -1.
        -14    1    4    4    0    0 -0.32974071479E+02  0.65371454760E+02 -0.64438873930E+02  0.97535044783E+02  0.00000000000E+00 0.  1.
</event>
<event>
12    1  0.8356052E-002  0.2170107E+03  0.7818608E-02  0.1136758E+00
         21   -1    0    0  501  502  0.00000000000E+00  0.00000000000E+00  0.31946439151E+03  0.31946439151E+03  0.00000000000E+00 0.  1.
         21   -1    0    0  502  503 -0.00000000000E+00 -0.00000000000E+00 -0.17224424409E+03  0.17224424409E+03  0.00000000000E+00 0.  1.
         -6    2    1    2    0  503  0.12631773528E+03 -0.88572718187E+01 -0.24281706757E+02  0.21511048966E+03  0.17218681706E+03 0.  0.
        -24    2    3    3    0    0  0.45855859387E+02 -0.35939941902E+02  0.42695330515E+02  0.10687187357E+03  0.78767168594E+02 0.  0.
          6    2    1    2  501    0 -0.12631773528E+03  0.88572718187E+01  0.17150185417E+03  0.27659814594E+03  0.17623571387E+03 0.  0.
         24    2    5    5    0    0 -0.13093846963E+03  0.47102832704E+02  0.83931179640E+02  0.18081303670E+03  0.79280209685E+02 0.  0.
          5    1    5    5  501    0  0.46207343530E+01 -0.38245560886E+02  0.87570674531E+02  0.95785109235E+02  0.47000000000E+01 0. -1.
        -13    1    6    6    0    0 -0.13062666936E+03  0.21999682112E+02  0.57648382323E+02  0.14446677384E+03  0.00000000000E+00 0.  1.
         14    1    6    6    0    0 -0.31180027537E+00  0.25103150592E+02  0.26282797317E+02  0.36346262860E+02  0.00000000000E+00 0. -1.
         -5    1    3    3    0  503  0.80461875892E+02  0.27082670083E+02 -0.66977037273E+02  0.10823861609E+03  0.47000000000E+01 0.  1.
         11    1    4    4    0    0 -0.19199751522E+02 -0.77146675251E+01 -0.51539450944E+01  0.21323923268E+02  0.00000000000E+00 0. -1.
        -12    1    4    4    0    0  0.65055610909E+02 -0.28225274376E+02  0.47849275610E+02  0.85547950301E+02  0.00000000000E+00 0.  1.
</event>
<event>
12    1  0.8356052E-002  0.2027354E+03  0.7818608E-02  0.1147825E+00
         21   -1    0    0  503  502  0.00000000000E+00  0.00000000000E+00  0.42595389597E+03  0.42595389597E+03  0.00000000000E+00 0. -1.
         21   -1    0    0  501  503 -0.00000000000E+00 -0.00000000000E+00 -0.96155420162E+02  0.96155420162E+02  0.00000000000E+00 0.  1.
          6    2    1    2  501    0  0.78752040276E+02 -0.59901397900E+02  0.14509540716E+03  0.24785241380E+03  0.17489448399E+03 0.  0.
         24    2    3    3    0    0  0.25479030251E+02 -0.10447294893E+02 -0.71221885918E+00  0.84862611336E+02  0.80267232380E+02 0.  0.
         -6    2    1    2    0  502 -0.78752040276E+02  0.59901397900E+02  0.18470306864E+03  0.27425690233E+03  0.17695073775E+03 0.  0.
        -24    2    5    5    0    0  0.17485124280E+02  0.31770681331E+02  0.37883991315E+02  0.96406233159E+02  0.80894123585E+02 0.  0.
          5    1    3    3  501    0  0.53273010025E+02 -0.49454103007E+02  0.14580762602E+03  0.16298980247E+03  0.47000000000E+01 0. -1.
        -11    1    4    4    0    0  0.10071660635E+02 -0.44045746477E+02  0.10206275649E+02  0.46320990849E+02  0.00000000000E+00 0.  1.
         12    1    4    4    0    0  0.15407369617E+02  0.33598451585E+02 -0.10918494508E+02  0.38541620486E+02  0.00000000000E+00 0. -1.
         -5    1    5    5    0  502 -0.96237164557E+02  0.28130716569E+02  0.14681907732E+03  0.17785066917E+03  0.47000000000E+01 0.  1.
         11    1    6    6    0    0  0.36398618385E+01 -0.18667069755E+02  0.39754172681E+02  0.44069290135E+02  0.00000000000E+00 0. -1.
        -12    1    6    6    0    0  0.13845262442E+02  0.50437751086E+02 -0.18701813658E+01  0.52336943024E+02  0.00000000000E+00 0.  1.
</event>
<event>
12    1  0.8356052E-002  0.1873020E+03  0.7818608E-02  0.1160927E+00
         21   -1    0    0  503  502  0.00000000000E+00  0.00000000000E+00  0.25140022515E+03  0.25140022515E+03  0.00000000000E+00 0. -1.
         21   -1    0    0  501  503 -0.00000000000E+00 -0.00000000000E+00 -0.15512836661E+03  0.15512836661E+03  0.00000000000E+00 0. -1.
          6    2    1    2  501    0  0.60695823925E+02  0.40114309488E+02 -0.16350195946E+02  0.18797479956E+03  0.17255160241E+03 0.  0.
         24    2    3    3    0    0  0.90106596047E+02 -0.14981923085E+02 -0.28048431080E+02  0.12426038152E+03  0.79437215828E+02 0.  0.
         -6    2    1    2    0  502 -0.60695823925E+02 -0.40114309488E+02  0.11262205449E+03  0.21855379220E+03  0.17259458873E+03 0.  0.
        -24    2    5    5    0    0 -0.90512672145E+02 -0.40309972552E+02  0.31406585113E+02  0.13191012430E+03  0.81218653013E+02 0.  0.
          5    1    3    3  501    0 -0.29410772121E+02  0.55096232573E+02  0.11698235134E+02  0.63714418037E+02  0.47000000000E+01 0. -1.
        -13    1    4    4    0    0  0.51045563230E+02  0.25098530372E+02  0.83607280889E+01  0.57493369413E+02  0.00000000000E+00 0.  1.
         14    1    4    4    0    0  0.39061032817E+02 -0.40080453458E+02 -0.36409159169E+02  0.66767012106E+02  0.00000000000E+00 0. -1.
         -5    1    5    5    0  502  0.29816848220E+02  0.19566306403E+00  0.81215469377E+02  0.86643667904E+02  0.47000000000E+01 0.  1.
         11    1    6    6    0    0  0.33866378812E+01 -0.22174588974E+02  0.28450332445E+02  0.36229865147E+02  0.00000000000E+00 0. -1.
        -12    1    6    6    0    0 -0.93899310026E+02 -0.18135383577E+02  0.29562526676E+01  0.95680259149E+02  0.00000000000E+00 0.  1.
</event>
<event>
12    1  0.8356052E-002  0.1939094E+03  0.7818608E-02  0.1155300E+00
         21   -1    0    0  503  502  0.00000000000E+00  0.00000000000E+00  0.10154199855E+03  0.10154199855E+03  0.00000000000E+00 0. -1.
         21   -1    0    0  501  503 -0.00000000000E+00 -0.00000000000E+00 -0.37485268384E+03  0.37485268384E+03  0.00000000000E+00 0. -1.
          6    2    1    2  501    0  0.44074602765E+02  0.77270131043E+02 -0.10290547847E+03  0.21824978908E+03  0.17067568419E+03 0.  0.
         24    2    3    3    0    0 -0.42392040420E+01  0.45831031852E+02 -0.12664333095E+03  0.15573405885E+03  0.78077586276E+02 0.  0.
         -6    2    1    2    0  502 -0.44074602765E+02 -0.77270131043E+02 -0.17040520682E+03  0.25814489331E+03  0.17230092184E+03 0.  0.
        -24    2    5    5    0    0 -0.50191989352E+02 -0.94074145048E+02 -0.18936113650E+03  0.23166443683E+03  0.80259521030E+02 0.  0.
          5    1    3    3  501    0  0.48313806807E+02  0.31439099191E+02  0.23737852483E+02  0.62515730234E+02  0.47000000000E+01 0. -1.
        -13    1    4    4    0    0 -0.37761042307E+02  0.54503730420E+01 -0.53101752735E+02  0.65386535509E+02  0.00000000000E+00 0.  1.
         14    1    4    4    0    0  0.33521838264E+02  0.40380658810E+02 -0.73541578217E+02  0.90347523338E+02  0.00000000000E+00 0. -1.
         -5    1    5    5    0  502  0.61173865867E+01  0.16804014005E+02  0.18955929674E+02  0.26480456475E+02  0.47000000000E+01 0.  1.
         13    1    6    6    0    0 -0.81878090875E+01 -0.47655577234E+02 -0.22279158975E+02  0.53239601650E+02  0.00000000000E+00 0. -1.
        -14    1    6    6    0    0 -0.42004180265E+02 -0.46418567814E+02 -0.16708197752E+03  0.17842483518E+03  0.00000000000E+00 0.  1.
</event>
<event>
12    1  0.8356052E-002  0.2029438E+03  0.7818608E-02  0.1147872E+00
         21   -1    0    0  503  502  0.00000000000E+00  0.00000000000E+00  0.58442877582E+03  0.58442877582E+03  0.00000000000E+00 0. -1.
         21   -1    0    0  501  503 -0.00000000000E+00 -0.00000000000E+00 -0.80107649487E+02  0.80107649487E+02  0.00000000000E+00 0. -1.
          6    2    1    2  501    0  0.46804231383E+02 -0.95284818554E+02  0.12964363736E+03  0.23842679294E+03  0.16961730502E+03 0.  0.
         24    2    3    3    0    0  0.68940766254E+02 -0.11431795290E+03  0.13484039691E+03  0.20840375696E+03  0.86190310764E+02 0.  0.
         -6    2    1    2    0  502 -0.46804231383E+02  0.95284818554E+02  0.37467748897E+03  0.42610963236E+03  0.17296347975E+03 0.  0.
        -24    2    5    5    0    0 -0.68404582853E+02  0.11661047274E+03  0.24040968456E+03  0.28837331903E+03  0.84173424468E+02 0.  0.
          5    1    3    3  501    0 -0.22136534871E+02  0.19033134349E+02 -0.51967595570E+01  0.30023035975E+02  0.47000000000E+01 0. -1.
        -13    1    4    4    0    0  0.39414206998E+01 -0.88764867547E+02  0.80779453621E+02  0.12008354023E+03  0.00000000000E+00 0.  1.
         14    1    4    4    0    0  0.64999345555E+02 -0.25553085356E+02  0.54060943291E+02  0.88320216730E+02  0.00000000000E+00 0. -1.
         -5    1    5    5    0  502  0.21600351470E+02 -0.21325654189E+02  0.13426780441E+03  0.13773631334E+03  0.47000000000E+01 0.  1.
         11    1    6    6    0    0 -0.47569476957E+02  0.14010118341E+02  0.11344779436E+03  0.12381252198E+03  0.00000000000E+00 0. -1.
        -12    1    6    6    0    0 -0.20835105896E+02  0.10260035440E+03  0.12696189020E+03  0.16456079705E+03  0.00000000000E+00 0.  1.
</event>
<event>
12    1  0.8356052E-002  0.1862443E+03  0.7818608E-02  0.1164080E+00
         21   -1    0    0  503  502  0.00000000000E+00  0.00000000000E+00  0.33216929730E+02  0.33216929730E+02  0.00000000000E+00 0. -1.
         21   -1    0    0  501  503 -0.00000000000E+00 -0.00000000000E+00 -0.11080893119E+04  0.11080893119E+04  0.00000000000E+00 0.  1.
          6    2    1    2  501    0 -0.68977948335E+02  0.17386307571E+02 -0.70883659840E+03  0.73061277540E+03  0.16212792264E+03 0.  0.
         24    2    3    3    0    0  0.19374870737E+01 -0.26038976071E+02 -0.47617522032E+03  0.48349304513E+03  0.79629781561E+02 0.  0.
         -6    2    1    2    0  502  0.68977948335E+02 -0.17386307571E+02 -0.36603578381E+03  0.41069346627E+03  0.17212404585E+03 0.  0.
        -24    2    5    5    0    0  0.77898283075E+02  0.16190948246E+02 -0.35825383312E+03  0.37478172395E+03  0.76060780631E+02 0.  0.
          5    1    3    3  501    0 -0.70915435409E+02  0.43425283642E+02 -0.23266137808E+03  0.24711973027E+03  0.47000000000E+01 0. -1.
        -13    1    4    4    0    0 -0.26126310416E+02 -0.42269620923E+02 -0.33344019636E+03  0.33712263273E+03  0.00000000000E+00 0.  1.
         14    1    4    4    0    0  0.28063797489E+02  0.16230644853E+02 -0.14273502396E+03  0.14637041240E+03  0.00000000000E+00 0. -1.
         -5    1    5    5    0  502 -0.89203347399E+01 -0.33577255817E+02 -0.77819506916E+01  0.35911742322E+02  0.47000000000E+01 0.  1.
         13    1    6    6    0    0 -0.74995871979E+01  0.11323462587E+02 -0.12014465841E+02  0.18133174089E+02  0.00000000000E+00 0. -1.
        -14    1    6    6    0    0  0.85397870273E+02  0.48674856587E+01 -0.34623936728E+03  0.35664854986E+03  0.00000000000E+00 0.  1.
</event>
<event>
12    1  0.8356052E-002  0.2162613E+03  0.7818608E-02  0.1137093E+00
         21   -1    0    0  501  502  0.00000000000E+00  0.00000000000E+00  0.17837375517E+03  0.17837375517E+03  0.00000000000E+00 0. -1.
         21   -1    0    0  502  503 -0.00000000000E+00 -0.00000000000E+00 -0.29513163465E+03  0.29513163465E+03  0.00000000000E+00 0.  1.
         -6    2    1    2    0  503 -0.12466101924E+03 -0.30640699894E+02 -0.14062618730E+03  0.25796258333E+03  0.17403950022E+03 0.  0.
        -24    2    3    3    0    0 -0.10952370688E+03 -0.43803996743E+02 -0.17137919411E+03  0.22094572180E+03  0.74377088587E+02 0.  0.
          6    2    1    2  501    0  0.12466101924E+03  0.30640699894E+02  0.23868307812E+02  0.21554280649E+03  0.17149280773E+03 0.  0.
         24    2    5    5    0    0  0.59778620713E+02 -0.23431510547E+02 -0.38362778988E+02  0.11052696128E+03  0.81375593254E+02 0.  0.
          5    1    5    5  501    0  0.64882398526E+02  0.54072210441E+02  0.62231086800E+02  0.10501584521E+03  0.47000000000E+01 0. -1.
        -13    1    6    6    0    0  0.34446100307E+02 -0.81023357887E+01 -0.62834578754E+02  0.72113562932E+02  0.00000000000E+00 0.  1.
         14    1    6    6    0    0  0.25332520407E+02 -0.15329174758E+02  0.24471799766E+02  0.38413398349E+02  0.00000000000E+00 0. -1.
         -5    1    3    3    0  503 -0.15137312358E+02  0.13163296848E+02  0.30753006815E+02  0.37016861530E+02  0.47000000000E+01 0.  1.
         13    1    4    4    0    0 -0.32798155585E+02 -0.52838619433E+02 -0.77220187156E+02  0.99149362165E+02  0.00000000000E+00 0. -1.
        -14    1    4    4    0    0 -0.76725551296E+02  0.90346226901E+01 -0.94159006957E+02  0.12179635963E+03  0.00000000000E+00 0.  1.
</event>
<event>
12    1  0.8356052E-002  0.1811084E+03  0.7818608E-02  0.1167292E+00
         21   -1    0    0  501  502  0.00000000000E+00  0.00000000000E+00  0.60109848558E+03  0.60109848558E+03  0.00000000000E+00 0. -1.
         21   -1    0    0  502  503 -0.00000000000E+00 -0.00000000000E+00 -0.67347994893E+02  0.67347994893E+02  0.00000000000E+00 0. -1.
         -6    2    1    2    0  503  0.34345117920E+02 -0.42767167975E+02  0.11602304990E+03  0.21314826248E+03  0.17018288959E+03 0.  0.
        -24    2    3    3    0    0  0.48106420565E+02 -0.57018556355E+02  0.17076319457E+02  0.11212835857E+03  0.81950135092E+02 0.  0.
          6    2    1    2  501    0 -0.34345117920E+02  0.42767167975E+02  0.41772744079E+03  0.45529821799E+03  0.17260253398E+03 0.  0.
         24    2    5    5    0    0  0.32217021940E+02 -0.22002321126E+02  0.16984243205E+03  0.19054423268E+03  0.77062404871E+02 0.  0.
          5    1    5    5  501    0 -0.66562139860E+02  0.64769489101E+02  0.24788500874E+03  0.26475398531E+03  0.47000000000E+01 0. -1.
        -13    1    6    6    0    0  0.59284385988E+01  0.27484330345E+02  0.37856525331E+02  0.47155607396E+02  0.00000000000E+00 0.  1.
         14    1    6    6    0    0  0.26288583341E+02 -0.49486651471E+02  0.13198590672E+03  0.14338862528E+03  0.00000000000E+00 0. -1.
         -5    1    3    3    0  503 -0.13761302645E+02  0.14251388380E+02  0.98946730440E+02  0.10101990391E+03  0.47000000000E+01 0.  1.
         11    1    4    4    0    0  0.71464821259E+02 -0.41624779883E+02  0.15219886562E+02  0.84092139495E+02  0.00000000000E+00 0. -1.
        -12    1    4    4    0    0 -0.23358400694E+02 -0.15393776472E+02  0.18564328949E+01  0.28036219077E+02  0.00000000000E+00 0.  1.
</event>
<event>
12    1  0.8356052E-002  0.1850401E+03  0.7818608E-02  0.1163300E+00
         21   -1    0    0  503  502  0.00000000000E+00  0.00000000000E+00  0.62776845081E+02  0.62776845081E+02  0.00000000000E+00 0.  1.
         21   -1    0    0  501  503 -0.00000000000E+00 -0.00000000000E+00 -0.63836555030E+03  0.63836555030E+03  0.00000000000E+00 0. -1.
          6    2    1    2  501    0  0.69256895736E+02 -0.11481050803E+02 -0.42332231689E+03  0.46150748310E+03  0.16987948918E+03 0.  0.
         24    2    3    3    0    0  0.39770239297E+02  0.57160489355E+02 -0.28605659771E+03  0.30515822149E+03  0.80275585164E+02 0.  0.
         -6    2    1    2    0  502 -0.69256895736E+02  0.11481050803E+02 -0.15226638833E+03  0.23963491228E+03  0.17120603387E+03 0.  0.
        -24    2    5    5    0    0 -0.72845206985E+02  0.51120461580E+02 -0.15926132549E+03  0.19895103328E+03  0.79357533204E+02 0.  0.
          5    1    3    3  501    0  0.29486656439E+02 -0.68641540158E+02 -0.13726571918E+03  0.15634926161E+03  0.47000000000E+01 0. -1.
        -11    1    4    4    0    0  0.46172048301E+02  0.17570010404E+02 -0.71633063872E+02  0.87016430343E+02  0.00000000000E+00 0.  1.
         12    1    4    4    0    0 -0.64018090041E+01  0.39590478951E+02 -0.21442353384E+03  0.21814179115E+03  0.00000000000E+00 0. -1.
         -5    1    5    5    0  502  0.35883112492E+01 -0.39639410776E+02  0.69949371585E+01  0.40683878996E+02  0.47000000000E+01 0.  1.
         13    1    6    6    0    0 -0.81727205951E+01  0.15960877025E+02 -0.10744420393E+03  0.10893025252E+03  0.00000000000E+00 0. -1.
        -14    1    6    6    0    0 -0.64672486390E+02  0.35159584555E+02 -0.51817121559E+02  0.90020780760E+02  0.00000000000E+00 0.  1.
</event>
<event>
12    1  0.8356052E-002  0.2413602E+03  0.7818608E-02  0.1119415E+00
         21   -1    0    0  501  502  0.00000000000E+00  0.00000000000E+00  0.24017054275E+03  0.24017054275E+03  0.00000000000E+00 0.  1.
         21   -1    0    0  502  503 -0.00000000000E+00 -0.00000000000E+00 -0.54204834063E+03  0.54204834063E+03  0.00000000000E+00 0.  1.
         -6    2    1    2    0  503 -0.16888617846E+03 -0.11015661538E+02 -0.44274437856E+03  0.50275845594E+03  0.16762933575E+03 0.  0.
        -24    2    3    3    0    0 -0.31102309440E+02  0.26938380437E+01 -0.93833912987E+02  0.12734808325E+03  0.80237900429E+02 0.  0.
          6    2    1    2  501    0  0.16888617846E+03  0.11015661538E+02  0.14086658067E+03  0.27946042744E+03  0.17207803719E+03 0.  0.
         24    2    5    5    0    0  0.10977902327E+03  0.49139686299E+02  0.14982756540E+03  0.20840068986E+03  0.80724255704E+02 0.  0.
          5    1    5    5  501    0  0.59107155181E+02 -0.38124024761E+02 -0.89609847323E+01  0.71059737581E+02  0.47000000000E+01 0. -1.
        -13    1    6    6    0    0  0.11279446473E+03  0.19102357532E+02  0.12350888820E+03  0.16835063647E+03  0.00000000000E+00 0.  1.
         14    1    6    6    0    0 -0.30154414520E+01  0.30037328768E+02  0.26318677199E+02  0.40050053385E+02  0.00000000000E+00 0. -1.
         -5    1    3    3    0  503 -0.13778386902E+03 -0.13709499582E+02 -0.34891046557E+03  0.37541037269E+03  0.47000000000E+01 0.  1.
         11    1    4    4    0    0 -0.32767073918E+02  0.34864648311E+02 -0.77872670865E+02  0.91396814510E+02  0.00000000000E+00 0. -1.
        -12    1    4    4    0    0  0.16647644772E+01 -0.32170810267E+02 -0.15961242122E+02  0.35951268741E+02  0.00000000000E+00 0.  1.
</event>
<event>
12    1  0.8356052E-002  0.4290449E+03  0.7818608E-02  0.1034200E+00
         21   -1    0    0  501  502  0.00000000000E+00  0.00000000000E+00  0.10935750631E+04  0.10935750631E+04  0.00000000000E+00 0.  1.
         21   -1    0    0  502  503 -0.00000000000E+00 -0.00000000000E+00 -0.39776729280E+03  0.39776729280E+03  0.00000000000E+00 0.  1.
         -6    2    1    2    0  503  0.35540214020E+03 -0.16704857809E+03 -0.21857122732E+03  0.48151105086E+03  0.17281088504E+03 0.  0.
        -24    2    3    3    0    0  0.12623906627E+03 -0.72889499649E+02 -0.26415450562E+02  0.16793876406E+03  0.79097859860E+02 0.  0.
          6    2    1    2  501    0 -0.35540214020E+03  0.16704857809E+03  0.91437899758E+03  0.10098313050E+04  0.17162285588E+03 0.  0.
         24    2    5    5    0    0 -0.26269900876E+03  0.17072910802E+03  0.80224993973E+03  0.86422075424E+03  0.71507683125E+02 0.  0.
          5    1    5    5  501    0 -0.92703131440E+02 -0.36805299239E+01  0.11212905785E+03  0.14561055077E+03  0.47000000000E+01 0. -1.
        -11    1    6    6    0    0 -0.11421581062E+03  0.35316787785E+02  0.33020198797E+03  0.35117784634E+03  0.00000000000E+00 0.  1.
         12    1    6    6    0    0 -0.14848319813E+03  0.13541232023E+03  0.47204795176E+03  0.51304290791E+03  0.00000000000E+00 0. -1.
         -5    1    3    3    0  503  0.22916307392E+03 -0.94159078442E+02 -0.19215577676E+03  0.31357228679E+03  0.47000000000E+01 0.  1.
         13    1    4    4    0    0 -0.47241109902E+01 -0.26445724321E+02 -0.54467264299E+01  0.27410953801E+02  0.00000000000E+00 0. -1.
        -14    1    4    4    0    0  0.13096317726E+03 -0.46443775328E+02 -0.20968724133E+02  0.14052781026E+03  0.00000000000E+00 0.  1.
</event>
<event>
12    1  0.8356052E-002  0.2278127E+03  0.7818608E-02  0.1128221E+00
         21   -1    0    0  503  502  0.00000000000E+00  0.00000000000E+00  0.72588048025E+02  0.72588048025E+02  0.00000000000E+00 0.  1.
         21   -1    0    0  501  503 -0.00000000000E+00 -0.00000000000E+00 -0.87246176243E+03  0.87246176243E+03  0.00000000000E+00 0.  1.
          6    2    1    2  501    0  0.13237079196E+03  0.69357050699E+02 -0.60118072666E+03  0.64289725230E+03  0.17194820109E+03 0.  0.
         24    2    3    3    0    0  0.10506650493E+03  0.42492497116E+01 -0.23217955584E+03  0.26717327927E+03  0.80107355628E+02 0.  0.
         -6    2    1    2    0  502 -0.13237079196E+03 -0.69357050699E+02 -0.19869298774E+03  0.30215255816E+03  0.17171149634E+03 0.  0.
        -24    2    5    5    0    0 -0.41686145765E+02 -0.94511604389E+02 -0.89216603089E+02  0.15771009410E+03  0.79010716997E+02 0.  0.
          5    1    3    3  501    0  0.27304287031E+02  0.65107800988E+02 -0.36900117082E+03  0.37572397303E+03  0.47000000000E+01 0. -1.
        -13    1    4    4    0    0  0.45721434516E+02 -0.59440392579E+01 -0.18505197020E+03  0.19070923641E+03  0.00000000000E+00 0.  1.
         14    1    4    4    0    0  0.59345070412E+02  0.10193288970E+02 -0.47127585632E+02  0.76464042855E+02  0.00000000000E+00 0. -1.
         -5    1    5    5    0  502 -0.90684646193E+02  0.25154553690E+02 -0.10947638465E+03  0.14444246406E+03  0.47000000000E+01 0.  1.
         13    1    6    6    0    0 -0.98301026975E+01 -0.54951676830E+02 -0.91144965451E+02  0.10688181526E+03  0.00000000000E+00 0. -1.
        -14    1    6    6    0    0 -0.31856043068E+02 -0.39559927560E+02  0.19283623626E+01  0.50828278840E+02  0.00000000000E+00 0.  1.
</event>
<event>
12    1  0.8356052E-002  0.1839726E+03  0.7818608E-02  0.1164200E+00
         21   -1    0    0  503  502  0.00000000000E+00  0.00000000000E+00  0.96209360211E+03  0.96209360211E+03  0.00000000000E+00 0.  1.
         21   -1    0    0  501  503 -0.00000000000E+00 -0.00000000000E+00 -0.43095981364E+02  0.43095981364E+02  0.00000000000E+00 0.  1.
          6    2    1    2  501    0 -0.53069312266E+02 -0.37175142479E+02  0.24122461218E+03  0.30289181600E+03  0.17133533072E+03 0.  0.
         24    2    3    3    0    0 -0.71158534469E+01 -0.12327575980E+02  0.23764561186E+03  0.25031785684E+03  0.77336848382E+02 0.  0.
         -6    2    1    2    0  502  0.53069312266E+02  0.37175142479E+02  0.67777300857E+03  0.70229776748E+03  0.17218466815E+03 0.  0.
        -24    2    5    5    0    0  0.58851749937E+02 -0.32277409900E+02  0.51107972703E+03  0.52156084893E+03  0.79485043228E+02 0.  0.
          5    1    3    3  501    0 -0.45953458819E+02 -0.24847566499E+02  0.35790003276E+01  0.52573959159E+02  0.47000000000E+01 0. -1.
        -11    1    4    4    0    0 -0.10708510002E+02 -0.33601785960E+02  0.48613775971E+02  0.60058733090E+02  0.00000000000E+00 0.  1.
         12    1    4    4    0    0  0.35926565555E+01  0.21274209980E+02  0.18903183589E+03  0.19025912375E+03  0.00000000000E+00 0. -1.
         -5    1    5    5    0  502 -0.57824376706E+01  0.69452552379E+02  0.16669328154E+03  0.18073691855E+03  0.47000000000E+01 0.  1.
         11    1    6    6    0    0  0.26985821003E+02 -0.25861827552E+02  0.45655290446E+03  0.45808036765E+03  0.00000000000E+00 0. -1.
        -12    1    6    6    0    0  0.31865928933E+02 -0.64155823480E+01  0.54526822571E+02  0.63480481278E+02  0.00000000000E+00 0.  1.
</event>
<event>
12    1  0.8356052E-002  0.2078938E+03  0.7818608E-02  0.1143683E+00
         21   -1    0    0  501  502  0.00000000000E+00  0.00000000000E+00  0.93362513030E+02  0.93362513030E+02  0.00000000000E+00 0.  1.
         21   -1    0    0  502  503 -0.00000000000E+00 -0.00000000000E+00 -0.53868615463E+03  0.53868615463E+03  0.00000000000E+00 0. -1.
         -6    2    1    2    0  503 -0.72933361220E+02 -0.91962382067E+02 -0.34389765134E+03  0.40073273619E+03  0.16895199427E+03 0.  0.
        -24    2    3    3    0    0 -0.10773050893E+03 -0.51077834662E+02 -0.19487654139E+03  0.24226580300E+03  0.80629059104E+02 0.  0.
          6    2    1    2  501    0  0.72933361220E+02  0.91962382067E+02 -0.10142599026E+03  0.23131593147E+03  0.17159100721E+03 0.  0.
         24    2    5    5    0    0 -0.81699875275E+01  0.10384558707E+02 -0.51911353852E+01  0.81262835077E+02  0.80013203426E+02 0.  0.
          5    1    5    5  501    0  0.81103348748E+02  0.81577823360E+02 -0.96234854879E+02  0.15005309639E+03  0.47000000000E+01 0. -1.
        -11    1    6    6    0    0 -0.29834410206E+02  0.35650908983E+02  0.42107065039E+01  0.46677718377E+02  0.00000000000E+00 0.  1.
         12    1    6    6    0    0  0.21664422678E+02 -0.25266350276E+02 -0.94018418890E+01  0.34585116700E+02  0.00000000000E+00 0. -1.
         -5    1    3    3    0  503  0.34797147710E+02 -0.40884547405E+02 -0.14902110995E+03  0.15846693319E+03  0.47000000000E+01 0.  1.
         11    1    4    4    0    0 -0.88199642991E+02  0.95985317285E+00 -0.11424333081E+03  0.14433169082E+03  0.00000000000E+00 0. -1.
        -12    1    4    4    0    0 -0.19530865940E+02 -0.52037687834E+02 -0.80633210581E+02  0.97934112178E+02  0.00000000000E+00 0.  1.
</event>
<event>
12    1  0.8356052E-002  0.2159771E+03  0.7818608E-02  0.1136930E+00
         21   -1    0    0  503  502  0.00000000000E+00  0.00000000000E+00  0.71077627417E+03  0.71077627417E+03  0.00000000000E+00 0. -1.
         21   -1    0    0  501  503 -0.00000000000E+00 -0.00000000000E+00 -0.13044984666E+03  0.13044984666E+03  0.00000000000E+00 0. -1.
          6    2    1    2  501    0 -0.12428591618E+03  0.34691642104E+02 -0.63977614869E+01  0.21601305311E+03  0.17311905953E+03 0.  0.
         24    2    3    3    0    0 -0.35879027524E+02 -0.29419915724E+02  0.36057254020E+02  0.98750151263E+02  0.79363913398E+02 0.  0.
         -6    2    1    2    0  502  0.12428591618E+03 -0.34691642104E+02  0.58672418900E+03  0.62521306772E+03  0.17319239909E+03 0.  0.
        -24    2    5    5    0    0  0.42538195263E+02 -0.81300926340E+02  0.31537729657E+03  0.33797389685E+03  0.79650342629E+02 0.  0.
          5    1    3    3  501    0 -0.88406888655E+02  0.64111557827E+02 -0.42455015507E+02  0.11726290185E+03  0.47000000000E+01 0. -1.
        -13    1    4    4    0    0 -0.11658758046E+02  0.23266686202E+02 -0.64981922383E+01  0.26823344839E+02  0.00000000000E+00 0.  1.
         14    1    4    4    0    0 -0.24220269478E+02 -0.52686601926E+02  0.42555446259E+02  0.71926806424E+02  0.00000000000E+00 0. -1.
         -5    1    5    5    0  502  0.81747720916E+02  0.46609284236E+02  0.27134689243E+03  0.28723917087E+03  0.47000000000E+01 0.  1.
         13    1    6    6    0    0  0.36447984154E+02 -0.30726678191E+02  0.55553258553E+02  0.73203475583E+02  0.00000000000E+00 0. -1.
        -14    1    6    6    0    0  0.60902111090E+01 -0.50574248149E+02  0.25982403802E+03  0.26477042127E+03  0.00000000000E+00 0.  1.
</event>
<event>
12    1  0.8356052E-002  0.2181041E+03  0.7818608E-02  0.1137867E+00
         21   -1    0    0  503  502  0.00000000000E+00  0.00000000000E+00  0.65123438710E+03  0.65123438710E+03  0.00000000000E+00 0.  1.
         21   -1    0    0  501  503 -0.00000000000E+00 -0.00000000000E+00 -0.76206159374E+02  0.76206159374E+02  0.00000000000E+00 0.  1.
          6    2    1    2  501    0  0.15052722067E+01 -0.10314352222E+03  0.18152453727E+03  0.28376141587E+03  0.19216797727E+03 0.  0.
         24    2    3    3    0    0 -0.53013718664E+02 -0.12490935580E+03  0.14692912690E+03  0.21546057916E+03  0.80139199591E+02 0.  0.
         -6    2    1    2    0  502 -0.15052722067E+01  0.10314352222E+03  0.39350369046E+03  0.44367913060E+03  0.17710213015E+03 0.  0.
        -24    2    5    5    0    0  0.66933429913E+02  0.63566724235E+02  0.27858961708E+03  0.30411726924E+03  0.79714027829E+02 0.  0.
          5    1    3    3  501    0  0.54518990871E+02  0.21765833572E+02  0.34595410368E+02  0.68300836709E+02  0.47000000000E+01 0. -1.
        -11    1    4    4    0    0  0.18804400868E+02 -0.17825680221E+02  0.41418909730E+02  0.48855771927E+02  0.00000000000E+00 0.  1.
         12    1    4    4    0    0 -0.71818119533E+02 -0.10708367558E+03  0.10551021717E+03  0.16660480724E+03  0.00000000000E+00 0. -1.
         -5    1    5    5    0  502 -0.68438702120E+02  0.39576797989E+02  0.11491407338E+03  0.13956186137E+03  0.47000000000E+01 0.  1.
         11    1    6    6    0    0  0.19849650155E+02  0.71503604876E+02  0.16781385335E+03  0.18348913728E+03  0.00000000000E+00 0. -1.
        -12    1    6    6    0    0  0.47083779758E+02 -0.79368806402E+01  0.11077576373E+03  0.12062813196E+03  0.00000000000E+00 0.  1.
</event>
<event>
12    1  0.8356052E-002  0.2458640E+03  0.7818608E-02  0.1116126E+00
         21   -1    0    0  503  502  0.00000000000E+00  0.00000000000E+00  0.16473086576E+04  0.16473086576E+04  0.00000000000E+00 0.  1.
         21   -1    0    0  501  503 -0.00000000000E+00 -0.00000000000E+00 -0.36537698799E+02  0.36537698799E+02  0.00000000000E+00 0.  1.
          6    2    1    2  501    0 -0.11565461323E+03 -0.13113008945E+03  0.79200891869E+03  0.82896601131E+03  0.17127589059E+03 0.  0.
         24    2    3    3    0    0 -0.75134473894E+02 -0.13680014385E+03  0.42747564752E+03  0.46211368816E+03  0.80337805779E+02 0.  0.
         -6    2    1    2    0  502  0.11565461323E+03  0.13113008945E+03  0.81876204010E+03  0.85488034508E+03  0.17285264295E+03 0.  0.
        -24    2    5    5    0    0  0.83332873571E+02  0.44267098802E+02  0.25138720080E+03  0.27996628866E+03  0.79256887432E+02 0.  0.
          5    1    3    3  501    0 -0.40520139333E+02  0.56700544014E+01  0.36453327117E+03  0.36685232315E+03  0.47000000000E+01 0. -1.
        -11    1    4    4    0    0 -0.23451748965E+02 -0.23557814527E+02  0.20057669404E+03  0.20331248202E+03  0.00000000000E+00 0.  1.
         12    1    4    4    0    0 -0.51682724929E+02 -0.11324232933E+03  0.22689895348E+03  0.25880120614E+03  0.00000000000E+00 0. -1.
         -5    1    5    5    0  502  0.32321739656E+02  0.86862990650E+02  0.56737483930E+03  0.57491405642E+03  0.47000000000E+01 0.  1.
         13    1    6    6    0    0  0.12236329530E+02  0.43669855775E+02  0.56097999564E+02  0.72137158378E+02  0.00000000000E+00 0. -1.
        -14    1    6    6    0    0  0.71096544041E+02  0.59724302670E+00  0.19528920123E+03  0.20782913028E+03  0.00000000000E+00 0.  1.
</event>
<event>
12    1  0.8356052E-002  0.2299528E+03  0.7818608E-02  0.1127014E+00
         21   -1    0    0  501  502  0.00000000000E+00  0.00000000000E+00  0.20598699624E+03  0.20598699624E+03  0.00000000000E+00 0. -1.
         21   -1    0    0  502  503 -0.00000000000E+00 -0.00000000000E+00 -0.26021116638E+03  0.26021116638E+03  0.00000000000E+00 0. -1.
         -6    2    1    2    0  503  0.22820856102E+02  0.14870917229E+03  0.73532344694E+01  0.22814344848E+03  0.17134804822E+03 0.  0.
        -24    2    3    3    0    0  0.11927173025E+02  0.19940389324E+01 -0.12787675072E+02  0.79577810037E+02  0.77607148955E+02 0.  0.
          6    2    1    2  501    0 -0.22820856102E+02 -0.14870917229E+03 -0.61577404604E+02  0.23805471414E+03  0.17390532128E+03 0.  0.
         24    2    5    5    0    0 -0.67279269714E+02 -0.70412689286E+02 -0.73659534080E+02  0.14708791995E+03  0.82004160193E+02 0.  0.
          5    1    5    5  501    0  0.44458413611E+02 -0.78296483007E+02  0.12082129476E+02  0.90966794188E+02  0.47000000000E+01 0. -1.
        -11    1    6    6    0    0  0.18027710613E+02 -0.11146501387E+02 -0.23792879945E+02  0.31864462638E+02  0.00000000000E+00 0.  1.
         12    1    6    6    0    0 -0.85306980327E+02 -0.59266187899E+02 -0.49866654135E+02  0.11522345731E+03  0.00000000000E+00 0. -1.
         -5    1    3    3    0  503  0.10893683078E+02  0.14671513336E+03  0.20140909541E+02  0.14856563844E+03  0.47000000000E+01 0.  1.
         13    1    4    4    0    0  0.72188857191E+01  0.39793294263E+02 -0.72037118133E+01  0.41079338398E+02  0.00000000000E+00 0. -1.
        -14    1    4    4    0    0  0.47082873055E+01 -0.37799255330E+02 -0.55839632583E+01  0.38498471639E+02  0.00000000000E+00 0.  1.
</event>
<event>
12    1  0.8356052E-002  0.2394645E+03  0.7818608E-02  0.1120163E+00
         21   -1    0    0  501  502  0.00000000000E+00  0.00000000000E+00  0.33816828332E+03  0.33816828332E+03  0.00000000000E+00 0.  1.
         21   -1    0    0  502  503 -0.00000000000E+00 -0.00000000000E+00 -0.24419059527E+03  0.24419059527E+03  0.00000000000E+00 0. -1.
         -6    2    1    2    0  503 -0.18270102860E+02 -0.16623996382E+03 -0.11403798199E+03  0.26516211746E+03  0.17127978564E+03 0.  0.
        -24    2    3    3    0    0 -0.71769470516E+02 -0.14647712469E+03 -0.81308703544E+02  0.19923755589E+03  0.80486604160E+02 0.  0.
          6    2    1    2  501    0  0.18270102860E+02  0.16623996382E+03  0.20801567004E+03  0.31719676113E+03  0.17138770102E+03 0.  0.
         24    2    5    5    0    0 -0.37915342538E+02  0.58140446349E+02  0.14444947499E+03  0.17970108446E+03  0.81295413328E+02 0.  0.
          5    1    5    5  501    0  0.56185445398E+02  0.10809951747E+03  0.63566195047E+02  0.13749567667E+03  0.47000000000E+01 0. -1.
        -13    1    6    6    0    0  0.82299553729E+01  0.54358445026E+02  0.10643094417E+03  0.11979198048E+03  0.00000000000E+00 0.  1.
         14    1    6    6    0    0 -0.46145297911E+02  0.37820013229E+01  0.38018530826E+02  0.59909103978E+02  0.00000000000E+00 0. -1.
         -5    1    3    3    0  503  0.53499367657E+02 -0.19762839130E+02 -0.32729278449E+02  0.65924561568E+02  0.47000000000E+01 0.  1.
         13    1    4    4    0    0  0.66332594415E+01 -0.76514473688E+02 -0.35376457786E+02  0.84557427705E+02  0.00000000000E+00 0. -1.
        -14    1    4    4    0    0 -0.78402729958E+02 -0.69962650999E+02 -0.45932245758E+02  0.11468012818E+03  0.00000000000E+00 0.  1.
</event>
<event>
12    1  0.8356052E-002  0.1930569E+03  0.7818608E-02  0.1156163E+00
         21   -1    0    0  501  502  0.00000000000E+00  0.00000000000E+00  0.60773550783E+02  0.60773550783E+02  0.00000000000E+00 0. -1.
         21   -1    0    0  502  503 -0.00000000000E+00 -0.00000000000E+00 -0.61018157483E+03  0.61018157483E+03  0.00000000000E+00 0.  1.
         -6    2    1    2    0  503 -0.29401643908E+02  0.73131096347E+02 -0.29979417739E+03  0.35657751084E+03  0.17623381776E+03 0.  0.
        -24    2    3    3    0    0  0.50653094320E+02  0.24137630435E+02 -0.16247290795E+03  0.19017936825E+03  0.81378038344E+02 0.  0.
          6    2    1    2  501    0  0.29401643908E+02 -0.73131096347E+02 -0.24961384666E+03  0.31437761478E+03  0.17410800760E+03 0.  0.
         24    2    5    5    0    0 -0.11282631128E+01 -0.87231345259E+01 -0.16288613165E+02  0.70362829664E+02  0.67884039552E+02 0.  0.
          5    1    5    5  501    0  0.30529907021E+02 -0.64407961821E+02 -0.23332523349E+03  0.24401478511E+03  0.47000000000E+01 0. -1.
        -13    1    6    6    0    0  0.27760399957E+02  0.98143483897E+01 -0.20359239150E+02  0.35797483973E+02  0.00000000000E+00 0.  1.
         14    1    6    6    0    0 -0.28888663069E+02 -0.18537482916E+02  0.40706259848E+01  0.34565345690E+02  0.00000000000E+00 0. -1.
         -5    1    3    3    0  503 -0.80054738228E+02  0.48993465911E+02 -0.13732126944E+03  0.16639814258E+03  0.47000000000E+01 0.  1.
         13    1    4    4    0    0  0.28565973571E+02  0.46703285879E+02 -0.52830534455E+02  0.76080727709E+02  0.00000000000E+00 0. -1.
        -14    1    4    4    0    0  0.22087120750E+02 -0.22565655444E+02 -0.10964237350E+03  0.11409864055E+03  0.00000000000E+00 0.  1.
</event>
<event>
12    1  0.8356052E-002  0.2578718E+03  0.7818608E-02  0.1108971E+00
         21   -1    0    0  503  502  0.00000000000E+00  0.00000000000E+00  0.15093879274E+04  0.15093879274E+04  0.00000000000E+00 0. -1.
         21   -1    0    0  501  503 -0.00000000000E+00 -0.00000000000E+00 -0.43453074937E+02  0.43453074937E+02  0.00000000000E+00 0.  1.
          6    2    1    2  501    0 -0.60953790779E+02 -0.17889028198E+03  0.73560674529E+03  0.77949672276E+03  0.17544446267E+03 0.  0.
         24    2    3    3    0    0 -0.96936874809E+02 -0.16886140196E+03  0.52505882740E+03  0.56560919040E+03  0.79473601063E+02 0.  0.
         -6    2    1    2    0  502  0.60953790779E+02  0.17889028198E+03  0.73032810715E+03  0.77334427955E+03  0.17019145992E+03 0.  0.
        -24    2    5    5    0    0  0.10001481758E+03  0.13326701001E+03  0.63143642166E+03  0.65754746518E+03  0.76770141841E+02 0.  0.
          5    1    3    3  501    0  0.35983084030E+02 -0.10028880017E+02  0.21054791789E+03  0.21388753236E+03  0.47000000000E+01 0. -1.
        -11    1    4    4    0    0 -0.21141869853E+02 -0.17801448592E+02  0.23293667193E+02  0.36145057257E+02  0.00000000000E+00 0.  1.
         12    1    4    4    0    0 -0.75795004956E+02 -0.15105995337E+03  0.50176516020E+03  0.52946413314E+03  0.00000000000E+00 0. -1.
         -5    1    5    5    0  502 -0.39061026799E+02  0.45623271968E+02  0.98891685491E+02  0.11579681437E+03  0.47000000000E+01 0.  1.
         13    1    6    6    0    0  0.45686027435E+02  0.76142313569E+02  0.46477351338E+03  0.47317996973E+03  0.00000000000E+00 0. -1.
        -14    1    6    6    0    0  0.54328790143E+02  0.57124696439E+02  0.16666290828E+03  0.18436749545E+03  0.00000000000E+00 0.  1.
</event>
<event>
12    1  0.8356052E-002  0.1789001E+03  0.7818608E-02  0.1169148E+00
         21   -1    0    0  503  502  0.00000000000E+00  0.00000000000E+00  0.26521760434E+03  0.26521760434E+03  0.00000000000E+00 0.  1.
         21   -1    0    0  501  503 -0.00000000000E+00 -0.00000000000E+00 -0.13084615834E+03  0.13084615834E+03  0.00000000000E+00 0.  1.
          6    2    1    2  501    0 -0.44925960486E+02 -0.21973885760E+02  0.10140073147E+02  0.17918720669E+03  0.17176740196E+03 0.  0.
         24    2    3    3    0    0  0.35880388537E+02  0.24152742411E+02  0.40017701375E+01  0.85821792147E+02  0.74017623547E+02 0.  0.
         -6    2    1    2    0  502  0.44925960486E+02  0.21973885760E+02  0.12423137286E+03  0.21687655599E+03  0.17058960389E+03 0.  0.
        -24    2    5    5    0    0 -0.31560550997E+02  0.36714520455E+02  0.39597120106E+02  0.10175696821E+03  0.80265336654E+02 0.  0.
          5    1    3    3  501    0 -0.80806349023E+02 -0.46126628171E+02  0.61383030097E+01  0.93365414543E+02  0.47000000000E+01 0. -1.
        -13    1    4    4    0    0 -0.86115238920E+00 -0.38329800047E+00 -0.30035315644E+02  0.30050102939E+02  0.00000000000E+00 0.  1.
         14    1    4    4    0    0  0.36741540926E+02  0.24536040412E+02  0.34037085781E+02  0.55771689209E+02  0.00000000000E+00 0. -1.
         -5    1    5    5    0  502  0.76486511483E+02 -0.14740634695E+02  0.84634252755E+02  0.11511958778E+03  0.47000000000E+01 0.  1.
         13    1    6    6    0    0 -0.14852336405E+01 -0.87126679613E+01 -0.19481449399E+02  0.21392600886E+02  0.00000000000E+00 0. -1.
        -14    1    6    6    0    0 -0.30075317357E+02  0.45427188416E+02  0.59078569504E+02  0.80364367329E+02  0.00000000000E+00 0.  1.
</event>
<event>
12    1  0.8356052E-002  0.2409111E+03  0.7818608E-02  0.1121010E+00
         21   -1    0    0  501  502  0.00000000000E+00  0.00000000000E+00  0.11862673527E+03  0.11862673527E+03  0.00000000000E+00 0. -1.
         21   -1    0    0  502  503 -0.00000000000E+00 -0.00000000000E+00 -0.52477861658E+03  0.52477861658E+03  0.00000000000E+00 0. -1.
         -6    2    1    2    0  503  0.68774127519E+02  0.15490468232E+03 -0.30502670570E+03  0.38213071623E+03  0.15574739763E+03 0.  0.
        -24    2    3    3    0    0  0.32484736302E+01  0.10598033803E+03 -0.11719057719E+03  0.17721194218E+03  0.80175160985E+02 0.  0.
          6    2    1    2  501    0 -0.68774127519E+02 -0.15490468232E+03 -0.10112517561E+03  0.26127463562E+03  0.17120979194E+03 0.  0.
         24    2    5    5    0    0  0.29485941753E+02 -0.83151927891E+02 -0.52019467155E+02  0.12998503366E+03  0.80040115810E+02 0.  0.
          5    1    5    5  501    0 -0.98260069272E+02 -0.71752754429E+02 -0.49105708456E+02  0.13128960197E+03  0.47000000000E+01 0. -1.
        -11    1    6    6    0    0  0.16032693317E+02 -0.59621371750E+02  0.97740097155E+01  0.62508291372E+02  0.00000000000E+00 0.  1.
         12    1    6    6    0    0  0.13453248436E+02 -0.23530556142E+02 -0.61793476870E+02  0.67476742286E+02  0.00000000000E+00 0. -1.
         -5    1    3    3    0  503  0.65525653889E+02  0.48924344289E+02 -0.18783612851E+03  0.20491877404E+03  0.47000000000E+01 0.  1.
         13    1    4    4    0    0 -0.55485237586E+01  0.10869578526E+03 -0.12456603635E+03  0.16541540818E+03  0.00000000000E+00 0. -1.
        -14    1    4    4    0    0  0.87969973888E+01 -0.27154472295E+01  0.73754591607E+01  0.11796534006E+02  0.00000000000E+00 0.  1.
</event>
<event>
12    1  0.8356052E-002  0.1863886E+03  0.7818608E-02  0.1162043E+00
         21   -1    0    0  501  502  0.00000000000E+00  0.00000000000E+00  0.47361327340E+03  0.47361327340E+03  0.00000000000E+00 0.  1.
         21   -1    0    0  502  503 -0.00000000000E+00 -0.00000000000E+00 -0.79158956914E+02  0.79158956914E+02  0.00000000000E+00 0.  1.
         -6    2    1    2    0  503  0.66592684062E+02 -0.16208479691E+02  0.11993659848E+03  0.22164274458E+03  0.17333037295E+03 0.  0.
        -24    2    3    3    0    0  0.89191775253E+02  0.33890705324E+02  0.11145124429E+03  0.16583290228E+03  0.77300834051E+02 0.  0.
          6    2    1    2  501    0 -0.66592684062E+02  0.16208479691E+02  0.27451771801E+03  0.33112948574E+03  0.17201586682E+03 0.  0.
         24    2    5    5    0    0 -0.56112345928E+02  0.73164512806E+02  0.14823427624E+03  0.19212076349E+03  0.80220607150E+02 0.  0.
          5    1    5    5  501    0 -0.10480338134E+02 -0.56956033115E+02  0.12628344178E+03  0.13900872225E+03  0.47000000000E+01 0. -1.
        -11    1    6    6    0    0 -0.42829290765E+02  0.29737999405E+02  0.13515234158E+03  0.14486149313E+03  0.00000000000E+00 0.  1.
         12    1    6    6    0    0 -0.13283055163E+02  0.43426513401E+02  0.13081934655E+02  0.47259270359E+02  0.00000000000E+00 0. -1.
         -5    1    3    3    0  503 -0.22599091191E+02 -0.50099185014E+02  0.84853541909E+01  0.55809842300E+02  0.47000000000E+01 0.  1.
         13    1    4    4    0    0  0.97214939427E+01  0.19830681171E+02  0.73319369360E+02  0.76573450253E+02  0.00000000000E+00 0. -1.
        -14    1    4    4    0    0  0.79470281311E+02  0.14060024152E+02  0.38131874930E+02  0.89259452028E+02  0.00000000000E+00 0.  1.
</event>
<event>
12    1  0.8356052E-002  0.2004757E+03  0.7818608E-02  0.1149370E+00
         21   -1    0    0  503  502  0.00000000000E+00  0.00000000000E+00  0.10471856435E+03  0.10471856435E+03  0.00000000000E+00 0. -1.
         21   -1    0    0  501  503 -0.00000000000E+00 -0.00000000000E+00 -0.67680045018E+03  0.67680045018E+03  0.00000000000E+00 0.  1.
          6    2    1    2  501    0 -0.93362311322E+02  0.42630372791E+02 -0.54333893369E+03  0.57914393400E+03  0.17221100302E+03 0.  0.
         24    2    3    3    0    0 -0.11559378524E+03  0.74808577603E+02 -0.45948908547E+03  0.48650181429E+03  0.81212986464E+02 0.  0.
         -6    2    1    2    0  502  0.93362311322E+02 -0.42630372791E+02 -0.28742952135E+02  0.20237508052E+03  0.17203385149E+03 0.  0.
        -24    2    5    5    0    0  0.11830261834E+03 -0.57587444188E+02 -0.52253647681E+02  0.16468455513E+03  0.84135223112E+02 0.  0.
          5    1    3    3  501    0  0.22231473920E+02 -0.32178204811E+02 -0.83849848225E+02  0.92642119713E+02  0.47000000000E+01 0. -1.
        -11    1    4    4    0    0 -0.47505985934E+02  0.36280683708E+02 -0.32877629388E+03  0.33416606370E+03  0.00000000000E+00 0.  1.
         12    1    4    4    0    0 -0.68087799308E+02  0.38527893895E+02 -0.13071279159E+03  0.15233575059E+03  0.00000000000E+00 0. -1.
         -5    1    5    5    0  502 -0.24940307022E+02  0.14957071397E+02  0.23510695546E+02  0.37690525390E+02  0.47000000000E+01 0.  1.
         13    1    6    6    0    0  0.61157623092E+02  0.21490829203E+01  0.89223774417E+01  0.61842398392E+02  0.00000000000E+00 0. -1.
        -14    1    6    6    0    0  0.57144995253E+02 -0.59736527109E+02 -0.61176025123E+02  0.10284215674E+03  0.00000000000E+00 0.  1.
</event>
<event>
12    1  0.8356052E-002  0.2344763E+03  0.7818608E-02  0.1123706E+00
         21   -1    0    0  501  502  0.00000000000E+00  0.00000000000E+00  0.24607261278E+02  0.24607261278E+02  0.00000000000E+00 0.  1.
         21   -1    0    0  502  503 -0.00000000000E+00 -0.00000000000E+00 -0.22321422218E+04  0.22321422218E+04  0.00000000000E+00 0. -1.
         -6    2    1    2    0  503 -0.22568664188E+02 -0.15597976030E+03 -0.11725399525E+04  0.11957546080E+04  0.17360907839E+03 0.  0.
        -24    2    3    3    0    0  0.24301919293E+02 -0.23134567380E+02 -0.61084047352E+03  0.61664055052E+03  0.77418944482E+02 0.  0.
          6    2    1    2  501    0  0.22568664188E+02  0.15597976030E+03 -0.10349950080E+04  0.10609948751E+04  0.17221041809E+03 0.  0.
         24    2    5    5    0    0 -0.31132401151E+02  0.29245248426E+02 -0.33317917628E+03  0.34579351001E+03  0.82099190634E+02 0.  0.
          5    1    5    5  501    0  0.53701065339E+02  0.12673451187E+03 -0.70181583175E+03  0.71520136508E+03  0.47000000000E+01 0. -1.
        -11    1    6    6    0    0  0.42125798864E+01  0.29525585333E+02 -0.37051624142E+02  0.47563945064E+02  0.00000000000E+00 0.  1.
         12    1    6    6    0    0 -0.35344981037E+02 -0.28033690671E+00 -0.29612755214E+03  0.29822956495E+03  0.00000000000E+00 0. -1.
         -5    1    3    3    0  503 -0.46870583481E+02 -0.13284519292E+03 -0.56169947899E+03  0.57911405748E+03  0.47000000000E+01 0.  1.
         13    1    4    4    0    0  0.10323488303E+02 -0.26316987286E+02 -0.59336082624E+03  0.59403386128E+03  0.00000000000E+00 0. -1.
        -14    1    4    4    0    0  0.13978430990E+02  0.31824199053E+01 -0.17479647286E+02  0.22606689245E+02  0.00000000000E+00 0.  1.
</event>
<event>
12    1  0.8356052E-002  0.2298813E+03  0.7818608E-02  0.1127187E+00
         21   -1    0    0  503  502  0.00000000000E+00  0.00000000000E+00  0.33509018655E+03  0.33509018655E+03  0.00000000000E+00 0.  1.
         21   -1    0    0  501  503 -0.00000000000E+00 -0.00000000000E+00 -0.15602819210E+03  0.15602819210E+03  0.00000000000E+00 0.  1.
          6    2    1    2  501    0 -0.10307394385E+03  0.11246713907E+03  0.83444609943E+02  0.24455759155E+03  0.17196603556E+03 0.  0.
         24    2    3    3    0    0 -0.11954272655E+03  0.68575348668E+02  0.13361371281E+02  0.16010961698E+03  0.80396027832E+02 0.  0.
         -6    2    1    2    0  502  0.10307394385E+03 -0.11246713907E+03  0.95617384506E+02  0.24656078710E+03  0.16845308618E+03 0.  0.
        -24    2    5    5    0    0  0.60944459443E+02 -0.17446180354E+02 -0.51662183301E+01  0.10170464932E+03  0.79363401734E+02 0.  0.
          5    1    3    3  501    0  0.16468782699E+02  0.43891790406E+02  0.70083238662E+02  0.84447974576E+02  0.47000000000E+01 0. -1.
        -11    1    4    4    0    0 -0.12330451305E+03  0.79887292079E+02  0.16324563645E+02  0.14782582235E+03  0.00000000000E+00 0.  1.
         12    1    4    4    0    0  0.37617865087E+01 -0.11311943410E+02 -0.29631923639E+01  0.12283794627E+02  0.00000000000E+00 0. -1.
         -5    1    5    5    0  502  0.42129484403E+02 -0.95020958720E+02  0.10078360284E+03  0.14485613778E+03  0.47000000000E+01 0.  1.
         13    1    6    6    0    0 -0.13162518037E+02 -0.21028668343E+02 -0.11294554683E+02  0.27258461784E+02  0.00000000000E+00 0. -1.
        -14    1    6    6    0    0  0.74106977480E+02  0.35824879892E+01  0.61283363527E+01  0.74446187531E+02  0.00000000000E+00 0.  1.
</event>
<event>
12    1  0.8356052E-002  0.1772605E+03  0.7818608E-02  0.1171545E+00
         21   -1    0    0  501  502  0.00000000000E+00  0.00000000000E+00  0.26778101668E+03  0.26778101668E+03  0.00000000000E+00 0. -1.
         21   -1    0    0  502  503 -0.00000000000E+00 -0.00000000000E+00 -0.33478883186E+03  0.33478883186E+03  0.00000000000E+00 0. -1.
         -6    2    1    2    0  503 -0.25438899318E+02  0.37338140334E+02 -0.27800705902E+03  0.32971082120E+03  0.17140602799E+03 0.  0.
        -24    2    3    3    0    0 -0.70758746506E+02  0.37756216909E+02 -0.12326079721E+03  0.16839572929E+03  0.82046117454E+02 0.  0.
          6    2    1    2  501    0  0.25438899318E+02 -0.37338140334E+02  0.21099924384E+03  0.27285902734E+03  0.16700327415E+03 0.  0.
         24    2    5    5    0    0 -0.38823678169E+02  0.38824214140E+01  0.15220235193E+03  0.17638116421E+03  0.80139927452E+02 0.  0.
          5    1    5    5  501    0  0.64262577487E+02 -0.41220561748E+02  0.58796891908E+02  0.96477863130E+02  0.47000000000E+01 0. -1.
        -13    1    6    6    0    0  0.74890802908E+01  0.16835815607E+02  0.18426834419E+01  0.18518274570E+02  0.00000000000E+00 0.  1.
         14    1    6    6    0    0 -0.46312758460E+02 -0.12953394193E+02  0.15035966849E+03  0.15786288964E+03  0.00000000000E+00 0. -1.
         -5    1    3    3    0  503  0.45319847188E+02 -0.41807657420E+00 -0.15474626181E+03  0.16131509192E+03  0.47000000000E+01 0.  1.
         13    1    4    4    0    0 -0.47932662103E+02  0.42895225478E+02 -0.12913826351E+03  0.14427138166E+03  0.00000000000E+00 0. -1.
        -14    1    4    4    0    0 -0.22826084403E+02 -0.51390085695E+01  0.58774662918E+01  0.24124347624E+02  0.00000000000E+00 0.  1.
</event>
<event>
12    1  0.8356052E-002  0.2379311E+03  0.7818608E-02  0.1121856E+00
         21   -1    0    0  501  502  0.00000000000E+00  0.00000000000E+00  0.65189644218E+03  0.65189644218E+03  0.00000000000E+00 0.  1.
         21   -1    0    0  502  503 -0.00000000000E+00 -0.00000000000E+00 -0.14928995534E+03  0.14928995534E+03  0.00000000000E+00 0. -1.
         -6    2    1    2    0  503 -0.12278871001E+03  0.99803173300E+02 -0.11983263119E+02  0.23425269952E+03  0.17231653413E+03 0.  0.
        -24    2    3    3    0    0 -0.35141649827E+02  0.10245368773E+03  0.23049249690E+02  0.13970959116E+03  0.85181032332E+02 0.  0.
          6    2    1    2  501    0  0.12278871001E+03 -0.99803173300E+02  0.51458974995E+03  0.56693369800E+03  0.17768924128E+03 0.  0.
         24    2    5    5    0    0  0.14584124540E+03 -0.80008975209E+02  0.49970922064E+03  0.53277597824E+03  0.80435271058E+02 0.  0.
          5    1    5    5  501    0 -0.23052535393E+02 -0.19794198091E+02  0.14880529312E+02  0.34157719753E+02  0.47000000000E+01 0. -1.
        -13    1    6    6    0    0  0.14555243388E+03 -0.76089608046E+02  0.39227998725E+03  0.42527488505E+03  0.00000000000E+00 0.  1.
         14    1    6    6    0    0  0.28881152400E+00 -0.39193671625E+01  0.10742923339E+03  0.10750109320E+03  0.00000000000E+00 0. -1.
         -5    1    3    3    0  503 -0.87647060179E+02 -0.26505144321E+01 -0.35032512809E+02  0.94543108361E+02  0.47000000000E+01 0.  1.
         13    1    4    4    0    0 -0.32490003496E+02  0.75297191180E+02 -0.23889410324E+02  0.85416457737E+02  0.00000000000E+00 0. -1.
        -14    1    4    4    0    0 -0.26516463315E+01  0.27156496552E+02  0.46938660014E+02  0.54293133426E+02  0.00000000000E+00 0.  1.
</event>
<event>
12    1  0.8356052E-002  0.1863922E+03  0.7818608E-02  0.1162128E+00
         21   -1    0    0  503  502  0.00000000000E+00  0.00000000000E+00  0.60677415200E+03  0.60677415200E+03  0.00000000000E+00 0. -1.
         21   -1    0    0  501  503 -0.00000000000E+00 -0.00000000000E+00 -0.35984579895E+03  0.35984579895E+03  0.00000000000E+00 0.  1.
          6    2    1    2  501    0  0.66782429384E+02 -0.20140314777E+01 -0.32000485016E+03  0.37033115173E+03  0.17400605915E+03 0.  0.
         24    2    3    3    0    0  0.11085254954E+03 -0.20820528514E+02 -0.24344739044E+03  0.27989335841E+03  0.79698670175E+02 0.  0.
         -6    2    1    2    0  502 -0.66782429384E+02  0.20140314777E+01  0.56693320320E+03  0.59628879923E+03  0.17228791598E+03 0.  0.
        -24    2    5    5    0    0 -0.78725211735E+02  0.38531025370E+02  0.24538138474E+03  0.27241570240E+03  0.79473215970E+02 0.  0.
          5    1    3    3  501    0 -0.44070120151E+02  0.18806497036E+02 -0.76557459720E+02  0.90437793315E+02  0.47000000000E+01 0. -1.
        -13    1    4    4    0    0  0.63705118086E+02 -0.50713038861E+02 -0.15943994805E+03  0.17902863295E+03  0.00000000000E+00 0.  1.
         14    1    4    4    0    0  0.47147431449E+02  0.29892510347E+02 -0.84007442388E+02  0.10086472547E+03  0.00000000000E+00 0. -1.
         -5    1    5    5    0  502  0.11942782351E+02 -0.36516993893E+02  0.32155181846E+03  0.32387309683E+03  0.47000000000E+01 0.  1.
         11    1    6    6    0    0 -0.61468977202E+02  0.30219669215E+02  0.24375202013E+03  0.25319303088E+03  0.00000000000E+00 0. -1.
        -12    1    6    6    0    0 -0.17256234533E+02  0.83113561553E+01  0.16293646087E+01  0.19222671521E+02  0.00000000000E+00 0.  1.
</event>
<event>
12    1  0.8356052E-002  0.1751119E+03  0.7818608E-02  0.1172845E+00
         21   -1    0    0  503  502  0.00000000000E+00  0.00000000000E+00  0.16141579255E+04  0.16141579255E+04  0.00000000000E+00 0.  1.
         21   -1    0    0  501  503 -0.00000000000E+00 -0.00000000000E+00 -0.22101803849E+02  0.22101803849E+02  0.00000000000E+00 0.  1.
          6    2    1    2  501    0  0.22831937431E+02 -0.19685746569E+02  0.48288490754E+03  0.51335057653E+03  0.17158716301E+03 0.  0.
         24    2    3    3    0    0  0.41177716930E+02  0.14521673730E+02  0.45689861840E+03  0.46640281352E+03  0.82877943859E+02 0.  0.
         -6    2    1    2    0  502 -0.22831937431E+02  0.19685746569E+02  0.11091712141E+04  0.11229091529E+04  0.17249741241E+03 0.  0.
        -24    2    5    5    0    0 -0.37678179755E+02  0.34567901490E+02  0.34789958198E+03  0.36133284192E+03  0.83142759518E+02 0.  0.
          5    1    3    3  501    0 -0.18345779499E+02 -0.34207420299E+02  0.25986289138E+02  0.46947763015E+02  0.47000000000E+01 0. -1.
        -13    1    4    4    0    0  0.56748918739E+02 -0.15845636419E+02  0.26247131968E+03  0.26900319260E+03  0.00000000000E+00 0.  1.
         14    1    4    4    0    0 -0.15571201809E+02  0.30367310149E+02  0.19442729872E+03  0.19739962092E+03  0.00000000000E+00 0. -1.
         -5    1    5    5    0  502  0.14846242324E+02 -0.14882154921E+02  0.76127163216E+03  0.76157631094E+03  0.47000000000E+01 0.  1.
         13    1    6    6    0    0  0.22309994136E+02  0.21977118012E+02  0.17756087443E+03  0.18030139678E+03  0.00000000000E+00 0. -1.
        -14    1    6    6    0    0 -0.59988173891E+02  0.12590783478E+02  0.17033870756E+03  0.18103144513E+03  0.00000000000E+00 0.  1.
</event>
<event>
12    1  0.8356052E-002  0.2833182E+03  0.7818608E-02  0.1094325E+00
         21   -1    0    0  501  502  0.00000000000E+00  0.00000000000E+00  0.85540987852E+02  0.85540987852E+02  0.00000000000E+00 0. -1.
         21   -1    0    0  502  503 -0.00000000000E+00 -0.00000000000E+00 -0.93039604657E+03  0.93039604657E+03  0.00000000000E+00 0. -1.
         -6    2    1    2    0  503 -0.22318647603E+03 -0.16563693389E+02 -0.39297653226E+03  0.48258590957E+03  0.16844003737E+03 0.  0.
        -24    2    3    3    0    0 -0.51094258080E+02  0.24853345170E+02 -0.11755136248E+03  0.15515314287E+03  0.83820420822E+02 0.  0.
          6    2    1    2  501    0  0.22318647603E+03  0.16563693389E+02 -0.45187852646E+03  0.53335112485E+03  0.17373157653E+03 0.  0.
         24    2    5    5    0    0  0.70690730793E+02  0.62744689123E+02 -0.21844598438E+03  0.25068439815E+03  0.78676196852E+02 0.  0.
          5    1    5    5  501    0  0.15249574524E+03 -0.46180995733E+02 -0.23343254208E+03  0.28266672670E+03  0.47000000000E+01 0. -1.
        -13    1    6    6    0    0 -0.26804223426E+00 -0.15067713142E+01 -0.92383713789E+02  0.92396389431E+02  0.00000000000E+00 0.  1.
         14    1    6    6    0    0  0.70958773028E+02  0.64251460437E+02 -0.12606227059E+03  0.15828800872E+03  0.00000000000E+00 0. -1.
         -5    1    3    3    0  503 -0.17209221795E+03 -0.41417038559E+02 -0.27542516978E+03  0.32743276670E+03  0.47000000000E+01 0.  1.
         13    1    4    4    0    0 -0.71102963568E+02  0.95228884593E+01 -0.64724965331E+02  0.96621105199E+02  0.00000000000E+00 0. -1.
        -14    1    4    4    0    0  0.20008705488E+02  0.15330456710E+02 -0.52826397146E+02  0.58532037669E+02  0.00000000000E+00 0.  1.
</event>
<event>
12    1  0.8356052E-002  0.1970111E+03  0.7818608E-02  0.1153039E+00
         21   -1    0    0  501  502  0.00000000000E+00  0.00000000000E+00  0.24225722878E+03  0.24225722878E+03  0.00000000000E+00 0.  1.
         21   -1    0    0  502  503 -0.00000000000E+00 -0.00000000000E+00 -0.16371081089E+03  0.16371081089E+03  0.00000000000E+00 0.  1.
         -6    2    1    2    0  503  0.89481965730E+02 -0.15142832073E+02 -0.89485277602E+00  0.19354322663E+03  0.17094400329E+03 0.  0.
        -24    2    3    3    0    0  0.78716341578E+02  0.22589287258E+02 -0.54177565651E+02  0.12720508539E+03  0.80866475121E+02 0.  0.
          6    2    1    2  501    0 -0.89481965730E+02  0.15142832073E+02  0.79441270659E+02  0.21242481304E+03  0.17486296966E+03 0.  0.
         24    2    5    5    0    0 -0.63983434907E+02  0.14922171718E+02  0.12372127264E+03  0.16111173146E+03  0.79583198981E+02 0.  0.
          5    1    5    5  501    0 -0.25498530823E+02  0.22066035456E+00 -0.44280001982E+02  0.51313081575E+02  0.47000000000E+01 0. -1.
        -13    1    6    6    0    0 -0.24435975724E+02 -0.15840029584E+02  0.16606609603E+01  0.29168154581E+02  0.00000000000E+00 0.  1.
         14    1    6    6    0    0 -0.39547459183E+02  0.30762201303E+02  0.12206061168E+03  0.13194357688E+03  0.00000000000E+00 0. -1.
         -5    1    3    3    0  503  0.10765624152E+02 -0.37732119330E+02  0.53282712875E+02  0.66338141245E+02  0.47000000000E+01 0.  1.
         13    1    4    4    0    0  0.52865195710E+02  0.47317926996E+02 -0.12095962244E+02  0.71972407458E+02  0.00000000000E+00 0. -1.
        -14    1    4    4    0    0  0.25851145868E+02 -0.24728639739E+02 -0.42081603407E+02  0.55232677930E+02  0.00000000000E+00 0.  1.
</event>
<event>
12    1  0.8356052E-002  0.1904964E+03  0.7818608E-02  0.1158375E+00
         21   -1    0    0  501  502  0.00000000000E+00  0.00000000000E+00  0.11820013666E+03  0.11820013666E+03  0.00000000000E+00 0. -1.
         21   -1    0    0  502  503 -0.00000000000E+00 -0.00000000000E+00 -0.31692899856E+03  0.31692899856E+03  0.00000000000E+00 0. -1.
         -6    2    1    2    0  503  0.73956497022E+02  0.30790949673E+02 -0.55782352966E+02  0.19696411458E+03  0.17107175541E+03 0.  0.
        -24    2    3    3    0    0  0.41009820613E+02  0.81724857993E+02 -0.60815896252E+02  0.13591353669E+03  0.80082197883E+02 0.  0.
          6    2    1    2  501    0 -0.73956497022E+02 -0.30790949673E+02 -0.14294650893E+03  0.23816502063E+03  0.17283294421E+03 0.  0.
         24    2    5    5    0    0 -0.65255270304E+02 -0.68807790896E+02 -0.15388601758E+03  0.19738813487E+03  0.79299476606E+02 0.  0.
          5    1    5    5  501    0 -0.87012267180E+01  0.38016841223E+02  0.10939508650E+02  0.40776885762E+02  0.47000000000E+01 0. -1.
        -11    1    6    6    0    0  0.54147777988E+01 -0.42829867906E+02 -0.85011279797E+02  0.95344822074E+02  0.00000000000E+00 0.  1.
         12    1    6    6    0    0 -0.70670048102E+02 -0.25977922989E+02 -0.68874737785E+02  0.10204331280E+03  0.00000000000E+00 0. -1.
         -5    1    3    3    0  503  0.32946676409E+02 -0.50933908320E+02  0.50335432868E+01  0.61050577893E+02  0.47000000000E+01 0.  1.
         13    1    4    4    0    0  0.21359630517E+02  0.91641036667E+02 -0.63821003729E+02  0.11369887394E+03  0.00000000000E+00 0. -1.
        -14    1    4    4    0    0  0.19650190096E+02 -0.99161786743E+01  0.30051074768E+01  0.22214662754E+02  0.00000000000E+00 0.  1.
</event>
<event>
12    1  0.8356052E-002  0.2826767E+03  0.7818608E-02  0.1095124E+00
         21   -1    0    0  503  502  0.00000000000E+00  0.00000000000E+00  0.11804157339E+04  0.11804157339E+04  0.00000000000E+00 0.  1.
         21   -1    0    0  501  503 -0.00000000000E+00 -0.00000000000E+00 -0.80912525953E+02  0.80912525953E+02  0.00000000000E+00 0.  1.
          6    2    1    2  501    0  0.15895638527E+03  0.16905642467E+03  0.81393963523E+03  0.85951651033E+03  0.14974543265E+03 0.  0.
         24    2    3    3    0    0  0.99285106747E+02  0.89933764156E+02  0.64519121077E+03  0.66376366197E+03  0.79780236488E+02 0.  0.
         -6    2    1    2    0  502 -0.15895638527E+03 -0.16905642467E+03  0.28556357273E+03  0.40181174953E+03  0.16142775738E+03 0.  0.
        -24    2    5    5    0    0 -0.12192610176E+03 -0.18732421682E+03  0.21509029321E+03  0.31999776996E+03  0.78602811965E+02 0.  0.
          5    1    3    3  501    0  0.59671278523E+02  0.79122660510E+02  0.16874842446E+03  0.19575284837E+03  0.47000000000E+01 0. -1.
        -13    1    4    4    0    0  0.31282353993E+02  0.46501665461E+02  0.43536716208E+03  0.43895962956E+03  0.00000000000E+00 0.  1.
         14    1    4    4    0    0  0.68002752754E+02  0.43432098695E+02  0.20982404869E+03  0.22480403241E+03  0.00000000000E+00 0. -1.
         -5    1    5    5    0  502 -0.37030283508E+02  0.18267792153E+02  0.70473279516E+02  0.81813979567E+02  0.47000000000E+01 0.  1.
         11    1    6    6    0    0 -0.53850029518E+02 -0.13275221571E+03  0.16822465926E+03  0.22095816898E+03  0.00000000000E+00 0. -1.
        -12    1    6    6    0    0 -0.68076072244E+02 -0.54572001105E+02  0.46865633952E+02  0.99039600981E+02  0.00000000000E+00 0.  1.
</event>
<event>
12    1  0.8356052E-002  0.1999358E+03  0.7818608E-02  0.1150148E+00
         21   -1    0    0  503  502  0.00000000000E+00  0.00000000000E+00  0.26898133423E+03  0.26898133423E+03  0.00000000000E+00 0.  1.
         21   -1    0    0  501  503 -0.00000000000E+00 -0.00000000000E+00 -0.32998930001E+03  0.32998930001E+03  0.00000000000E+00 0. -1.
          6    2    1    2  501    0 -0.73424091132E+02  0.69236129651E+02 -0.25323661848E+03  0.32161494089E+03  0.17065358613E+03 0.  0.
         24    2    3    3    0    0 -0.39419646318E+02  0.10788553198E+03 -0.13981941280E+03  0.19697292907E+03  0.77818185945E+02 0.  0.
         -6    2    1    2    0  502  0.73424091132E+02 -0.69236129651E+02  0.19222865270E+03  0.27735569334E+03  0.17259660165E+03 0.  0.
        -24    2    5    5    0    0  0.27833422779E+02 -0.85242050813E+02  0.56107499602E+02  0.13283663967E+03  0.80353062647E+02 0.  0.
          5    1    3    3  501    0 -0.34004444813E+02 -0.38649402328E+02 -0.11341720568E+03  0.12464201182E+03  0.47000000000E+01 0. -1.
        -13    1    4    4    0    0 -0.11827221654E+02 -0.10395929927E+02 -0.26699606275E+02  0.30997217720E+02  0.00000000000E+00 0.  1.
         14    1    4    4    0    0 -0.27592424664E+02  0.11828146191E+03 -0.11311980652E+03  0.16597571135E+03  0.00000000000E+00 0. -1.
         -5    1    5    5    0  502  0.45590668352E+02  0.16005921162E+02  0.13612115310E+03  0.14451905367E+03  0.47000000000E+01 0.  1.
         13    1    6    6    0    0  0.43362900538E+02 -0.51516097158E+02  0.21913496985E+01  0.67372482684E+02  0.00000000000E+00 0. -1.
        -14    1    6    6    0    0 -0.15529477759E+02 -0.33725953655E+02  0.53916149904E+02  0.65464156986E+02  0.00000000000E+00 0.  1.
</event>
<event>
12    1  0.8356052E-002  0.2013854E+03  0.7818608E-02  0.1149749E+00
         21   -1    0    0  501  502  0.00000000000E+00  0.00000000000E+00  0.28363049690E+03  0.28363049690E+03  0.00000000000E+00 0. -1.
         21   -1    0    0  502  503 -0.00000000000E+00 -0.00000000000E+00 -0.20895927049E+03  0.20895927049E+03  0.00000000000E+00 0. -1.
         -6    2    1    2    0  503  0.78976013501E+02 -0.52691429451E+02 -0.10542224241E+03  0.22242364384E+03  0.17130332950E+03 0.  0.
        -24    2    3    3    0    0  0.38175901041E+02 -0.52861738905E+02  0.69943675920E+01  0.10273963327E+03  0.79086966093E+02 0.  0.
          6    2    1    2  501    0 -0.78976013501E+02  0.52691429451E+02  0.18009346882E+03  0.27016612355E+03  0.17760202520E+03 0.  0.
         24    2    5    5    0    0 -0.45892614563E+02 -0.51581214413E+01  0.18102789797E+03  0.20335261457E+03  0.80302227386E+02 0.  0.
          5    1    5    5  501    0 -0.33083398938E+02  0.57849550893E+02 -0.93442914588E+00  0.66813508976E+02  0.47000000000E+01 0. -1.
        -11    1    6    6    0    0 -0.18448748090E+02 -0.42467914484E+02  0.88582294903E+02  0.99953504376E+02  0.00000000000E+00 0.  1.
         12    1    6    6    0    0 -0.27443866473E+02  0.37309793042E+02  0.92445603063E+02  0.10339911020E+03  0.00000000000E+00 0. -1.
         -5    1    3    3    0  503  0.40800112460E+02  0.17030945394E+00 -0.11241661001E+03  0.11968401058E+03  0.47000000000E+01 0.  1.
         11    1    4    4    0    0  0.58476675667E+02 -0.35368558683E+02 -0.12664194169E+02  0.69504232636E+02  0.00000000000E+00 0. -1.
        -12    1    4    4    0    0 -0.20300774626E+02 -0.17493180222E+02  0.19658561761E+02  0.33235400632E+02  0.00000000000E+00 0.  1.
</event>
<event>
12    1  0.8356052E-002  0.2180463E+03  0.7818608E-02  0.1136461E+00
         21   -1    0    0  501  502  0.00000000000E+00  0.00000000000E+00  0.23242395096E+03  0.23242395096E+03  0.00000000000E+00 0. -1.
         21   -1    0    0  502  503 -0.00000000000E+00 -0.00000000000E+00 -0.27292698283E+03  0.27292698283E+03  0.00000000000E+00 0. -1.
         -6    2    1    2    0  503  0.21130955059E+02  0.13048978789E+03 -0.15142765670E+03  0.26071146048E+03  0.16603020330E+03 0.  0.
        -24    2    3    3    0    0  0.36302282421E+02  0.15064913093E+03 -0.15665256272E+03  0.23452066193E+03  0.80292584394E+02 0.  0.
          6    2    1    2  501    0 -0.21130955059E+02 -0.13048978789E+03  0.11092462483E+03  0.24463947331E+03  0.17340731675E+03 0.  0.
         24    2    5    5    0    0  0.97394805720E+01 -0.16850215134E+02  0.95459050996E+02  0.12577732515E+03  0.79553239231E+02 0.  0.
          5    1    5    5  501    0 -0.30870435631E+02 -0.11363957275E+03  0.15465573833E+02  0.11886214816E+03  0.47000000000E+01 0. -1.
        -13    1    6    6    0    0 -0.17994314700E+02 -0.24410452263E+02  0.48419605603E+01  0.30710098067E+02  0.00000000000E+00 0.  1.
         14    1    6    6    0    0  0.27733795272E+02  0.75602371291E+01  0.90617090436E+02  0.95067227080E+02  0.00000000000E+00 0. -1.
         -5    1    3    3    0  503 -0.15171327363E+02 -0.20159343038E+02  0.52249060226E+01  0.26190798549E+02  0.47000000000E+01 0.  1.
         11    1    4    4    0    0  0.34342118514E+02  0.12305435732E+03 -0.74627609946E+02  0.14795619665E+03  0.00000000000E+00 0. -1.
        -12    1    4    4    0    0  0.19601639074E+01  0.27594773606E+02 -0.82024952772E+02  0.86564465286E+02  0.00000000000E+00 0.  1.
</event>
<event>
12    1  0.8356052E-002  0.1754910E+03  0.7818608E-02  0.1172317E+00
         21   -1    0    0  501  502  0.00000000000E+00  0.00000000000E+00  0.14346885051E+03  0.14346885051E+03  0.00000000000E+00 0.  1.
         21   -1    0    0  502  503 -0.00000000000E+00 -0.00000000000E+00 -0.21429792194E+03  0.21429792194E+03  0.00000000000E+00 0.  1.
         -6    2    1    2    0  503  0.15505913011E+02 -0.20489401030E+02 -0.36822502788E+02  0.17901127256E+03  0.17328845922E+03 0.  0.
        -24    2    3    3    0    0  0.67900818114E+02 -0.20825500284E+02 -0.59555863915E+02  0.12170302924E+03  0.78870170769E+02 0.  0.
          6    2    1    2  501    0 -0.15505913011E+02  0.20489401030E+02 -0.34006568644E+02  0.17875549990E+03  0.17359963462E+03 0.  0.
         24    2    5    5    0    0  0.29756008443E+02  0.60422791898E+02 -0.42979723637E+00  0.10952539938E+03  0.86367207689E+02 0.  0.
          5    1    5    5  501    0 -0.45261921454E+02 -0.39933390867E+02 -0.33576771408E+02  0.69230100520E+02  0.47000000000E+01 0. -1.
        -13    1    6    6    0    0 -0.12408351622E+02  0.19707440360E+02  0.34252299992E+02  0.41419445316E+02  0.00000000000E+00 0.  1.
         14    1    6    6    0    0  0.42164360065E+02  0.40715351537E+02 -0.34682097228E+02  0.68105954062E+02  0.00000000000E+00 0. -1.
         -5    1    3    3    0  503 -0.52394905104E+02  0.33609925309E+00  0.22733361127E+02  0.57308243314E+02  0.47000000000E+01 0.  1.
         13    1    4    4    0    0  0.37587992569E+02  0.25655752091E+02 -0.45726880994E+02  0.64513738430E+02  0.00000000000E+00 0. -1.
        -14    1    4    4    0    0  0.30312825545E+02 -0.46481252375E+02 -0.13828982921E+02  0.57189290812E+02  0.00000000000E+00 0.  1.
</event>
<event>
12    1  0.8356052E-002  0.1876996E+03  0.7818608E-02  0.1160613E+00
         21   -1    0    0  503  502  0.00000000000E+00  0.00000000000E+00  0.26002852464E+02  0.26002852464E+02  0.00000000000E+00 0.  1.
         21   -1    0    0  501  503 -0.00000000000E+00 -0.00000000000E+00 -0.17903913092E+04  0.17903913092E+04  0.00000000000E+00 0. -1.
          6    2    1    2  501    0  0.64685751865E+02  0.36702570151E+02 -0.13306199500E+04  0.13437566154E+04  0.17204960033E+03 0.  0.
         24    2    3    3    0    0  0.61611074954E+02 -0.33807314390E+02 -0.58997045139E+03  0.59973721563E+03  0.81735764746E+02 0.  0.
         -6    2    1    2    0  502 -0.64685751865E+02 -0.36702570151E+02 -0.43376850674E+03  0.47263754625E+03  0.17233632102E+03 0.  0.
        -24    2    5    5    0    0 -0.98778091980E+02 -0.54964422417E+02 -0.26573989264E+03  0.30015134954E+03  0.81822630740E+02 0.  0.
          5    1    3    3  501    0  0.30746769102E+01  0.70509884542E+02 -0.74064949861E+03  0.74401939978E+03  0.47000000000E+01 0. -1.
        -13    1    4    4    0    0  0.10223342143E+02 -0.51532224298E+02 -0.25139912168E+03  0.25682991502E+03  0.00000000000E+00 0.  1.
         14    1    4    4    0    0  0.51387732812E+02  0.17724909908E+02 -0.33857132971E+03  0.34290730062E+03  0.00000000000E+00 0. -1.
         -5    1    5    5    0  502  0.34092340115E+02  0.18261852265E+02 -0.16802861409E+03  0.17248619671E+03  0.47000000000E+01 0.  1.
         13    1    6    6    0    0  0.57249748467E+01 -0.23431160603E+02 -0.20274947878E+02  0.31509810150E+02  0.00000000000E+00 0. -1.
        -14    1    6    6    0    0 -0.10450306683E+03 -0.31533261813E+02 -0.24546494477E+03  0.26864153939E+03  0.00000000000E+00 0.  1.
</event>
<event>
12    1  0.8356052E-002  0.2170465E+03  0.7818608E-02  0.1136746E+00
         21   -1    0    0  501  502  0.00000000000E+00  0.00000000000E+00  0.14553033311E+03  0.14553033311E+03  0.00000000000E+00 0. -1.
         21   -1    0    0  502  503 -0.00000000000E+00 -0.00000000000E+00 -0.39912409408E+03  0.39912409408E+03  0.00000000000E+00 0. -1.
         -6    2    1    2    0  503 -0.11078185270E+03  0.63735984272E+02 -0.24980816050E+03  0.33092790996E+03  0.17542596717E+03 0.  0.
        -24    2    3    3    0    0 -0.11539730907E+03  0.10020789341E+03 -0.23463068916E+03  0.29087858750E+03  0.78744088835E+02 0.  0.
          6    2    1    2  501    0  0.11078185270E+03 -0.63735984272E+02 -0.37856004716E+01  0.21372651723E+03  0.17125944884E+03 0.  0.
         24    2    5    5    0    0  0.12411128897E+03 -0.27988460595E+02  0.40549596128E+02  0.15504722806E+03  0.78793446477E+02 0.  0.
          5    1    5    5  501    0 -0.13329436262E+02 -0.35747523677E+02 -0.44335196599E+02  0.58679289171E+02  0.47000000000E+01 0. -1.
        -11    1    6    6    0    0  0.81317493894E+02  0.19121237595E+02  0.36829964723E+02  0.91294046038E+02  0.00000000000E+00 0.  1.
         12    1    6    6    0    0  0.42793795072E+02 -0.47109698191E+02  0.37196314048E+01  0.63753182023E+02  0.00000000000E+00 0. -1.
         -5    1    3    3    0  503  0.46154563672E+01 -0.36471909136E+02 -0.15177471343E+02  0.40049322465E+02  0.47000000000E+01 0.  1.
         13    1    4    4    0    0 -0.12143404772E+03  0.81399771316E+02 -0.22635899299E+03  0.26946343801E+03  0.00000000000E+00 0. -1.
        -14    1    4    4    0    0  0.60367386443E+01  0.18808122092E+02 -0.82716961663E+01  0.21415149487E+02  0.00000000000E+00 0.  1.
</event>
<event>
12    1  0.8356052E-002  0.1753213E+03  0.7818608E-02  0.1172789E+00
         21   -1    0    0  501  502  0.00000000000E+00  0.00000000000E+00  0.33735443553E+02  0.33735443553E+02  0.00000000000E+00 0. -1.
         21   -1    0    0  502  503 -0.00000000000E+00 -0.00000000000E+00 -0.91812915325E+03  0.91812915325E+03  0.00000000000E+00 0. -1.
         -6    2    1    2    0  503  0.32903819376E+02  0.12104691015E+02 -0.50079283520E+03  0.53009785713E+03  0.17023833137E+03 0.  0.
        -24    2    3    3    0    0  0.15063843290E+02  0.68718063368E+02 -0.39381109095E+03  0.40766206874E+03  0.78435293864E+02 0.  0.
          6    2    1    2  501    0 -0.32903819376E+02 -0.12104691015E+02 -0.38360087449E+03  0.42176673967E+03  0.17177999566E+03 0.  0.
         24    2    5    5    0    0 -0.22052179783E+02  0.59730154919E+02 -0.22858521450E+03  0.25050685524E+03  0.80302516740E+02 0.  0.
          5    1    5    5  501    0 -0.10851639593E+02 -0.71834845934E+02 -0.15501565999E+03  0.17125988443E+03  0.47000000000E+01 0. -1.
        -11    1    6    6    0    0  0.13524902358E+02  0.50876393584E+02 -0.69136655911E+02  0.86897684655E+02  0.00000000000E+00 0.  1.
         12    1    6    6    0    0 -0.35577082141E+02  0.88537613355E+01 -0.15944855859E+03  0.16360917059E+03  0.00000000000E+00 0. -1.
         -5    1    3    3    0  503  0.17839976086E+02 -0.56613372353E+02 -0.10698174425E+03  0.12243578839E+03  0.47000000000E+01 0.  1.
         11    1    4    4    0    0  0.44028965067E+02  0.20912804725E+02 -0.20741962419E+03  0.21306993140E+03  0.00000000000E+00 0. -1.
        -12    1    4    4    0    0 -0.28965121777E+02  0.47805258643E+02 -0.18639146676E+03  0.19459213734E+03  0.00000000000E+00 0.  1.
</event>
<event>
12    1  0.8356052E-002  0.2322653E+03  0.7818608E-02  0.1125186E+00
         21   -1    0    0  501  502  0.00000000000E+00  0.00000000000E+00  0.13962543509E+04  0.13962543509E+04  0.00000000000E+00 0. -1.
         21   -1    0    0  502  503 -0.00000000000E+00 -0.00000000000E+00 -0.10255502007E+03  0.10255502007E+03  0.00000000000E+00 0. -1.
         -6    2    1    2    0  503 -0.18983488585E+02  0.15428437725E+03  0.54251429893E+02  0.23778665878E+03  0.17156700016E+03 0.  0.
        -24    2    3    3    0    0  0.60783557420E+02  0.90028752280E+02  0.16489205586E+02  0.12851798736E+03  0.66672048748E+02 0.  0.
          6    2    1    2  501    0  0.18983488585E+02 -0.15428437725E+03  0.12394479009E+04  0.12610227122E+04  0.17257792327E+03 0.  0.
         24    2    5    5    0    0  0.56081776116E+02 -0.15515549217E+03  0.83426021404E+03  0.85411216502E+03  0.79366827719E+02 0.  0.
          5    1    5    5  501    0 -0.37098287531E+02  0.87111491792E+00  0.40518768690E+03  0.40691054716E+03  0.47000000000E+01 0. -1.
        -13    1    6    6    0    0  0.13995994886E+02 -0.55289374968E+02  0.13573618280E+03  0.14723149859E+03  0.00000000000E+00 0.  1.
         14    1    6    6    0    0  0.42085781230E+02 -0.99866117204E+02  0.69852403124E+03  0.70688066642E+03  0.00000000000E+00 0. -1.
         -5    1    3    3    0  503 -0.79767046005E+02  0.64255624974E+02  0.37762224307E+02  0.10926867142E+03  0.47000000000E+01 0.  1.
         11    1    4    4    0    0  0.32324051375E+02  0.88279023478E+02  0.27503443457E+02  0.97951363878E+02  0.00000000000E+00 0. -1.
        -12    1    4    4    0    0  0.28459506045E+02  0.17497288020E+01 -0.11014237870E+02  0.30566623482E+02  0.00000000000E+00 0.  1.
</event>
<event>
12    1  0.8356052E-002  0.5091643E+03  0.7818608E-02  0.1011423E+00
         21   -1    0    0  503  502  0.00000000000E+00  0.00000000000E+00  0.11630432785E+04  0.11630432785E+04  0.00000000000E+00 0.  1.
         21   -1    0    0  501  503 -0.00000000000E+00 -0.00000000000E+00 -0.45499050696E+03  0.45499050696E+03  0.00000000000E+00 0. -1.
          6    2    1    2  501    0  0.20141230430E+03 -0.43481775400E+03 -0.22387980457E+03  0.55607964841E+03  0.17166540993E+03 0.  0.
         24    2    3    3    0    0  0.13216014948E+03 -0.17875274848E+03 -0.58275677780E+02  0.24333060395E+03  0.79967981091E+02 0.  0.
         -6    2    1    2    0  502 -0.20141230430E+03  0.43481775400E+03  0.93193257616E+03  0.10619541371E+04  0.17208970705E+03 0.  0.
        -24    2    5    5    0    0 -0.20663394230E+03  0.43213829145E+03  0.84293337658E+03  0.97263788690E+03  0.77760482491E+02 0.  0.
          5    1    3    3  501    0  0.69252154818E+02 -0.25606500552E+03 -0.16560412679E+03  0.31274904446E+03  0.47000000000E+01 0. -1.
        -11    1    4    4    0    0 -0.49826124158E+01  0.20961119528E+01  0.53580211450E+01  0.76110776106E+01  0.00000000000E+00 0.  1.
         12    1    4    4    0    0  0.13714276190E+03 -0.18084886043E+03 -0.63633698925E+02  0.23571952634E+03  0.00000000000E+00 0. -1.
         -5    1    5    5    0  502  0.52216379988E+01  0.26794625480E+01  0.88999199585E+02  0.89316250200E+02  0.47000000000E+01 0.  1.
         13    1    6    6    0    0 -0.98031824497E+02  0.15029667121E+03  0.25714276061E+03  0.31356295592E+03  0.00000000000E+00 0. -1.
        -14    1    6    6    0    0 -0.10860211780E+03  0.28184162023E+03  0.58579061597E+03  0.65907493098E+03  0.00000000000E+00 0.  1.
</event>
<event>
12    1  0.8356052E-002  0.2010389E+03  0.7818608E-02  0.1149189E+00
         21   -1    0    0  501  502  0.00000000000E+00  0.00000000000E+00  0.52951360144E+02  0.52951360144E+02  0.00000000000E+00 0.  1.
         21   -1    0    0  502  503 -0.00000000000E+00 -0.00000000000E+00 -0.88343045802E+03  0.88343045802E+03  0.00000000000E+00 0.  1.
         -6    2    1    2    0  503  0.52656521909E+02 -0.87677146368E+02 -0.23707213666E+03  0.30984492509E+03  0.17129123833E+03 0.  0.
        -24    2    3    3    0    0  0.89779007219E+02 -0.10425277474E+03 -0.19846170921E+03  0.25358050046E+03  0.77376411211E+02 0.  0.
          6    2    1    2  501    0 -0.52656521909E+02  0.87677146368E+02 -0.59340696122E+03  0.62653689308E+03  0.17307993954E+03 0.  0.
         24    2    5    5    0    0 -0.36964745853E+02  0.12464457824E+03 -0.52634160717E+03  0.54822549819E+03  0.81320637668E+02 0.  0.
          5    1    5    5  501    0 -0.15691776056E+02 -0.36967431874E+02 -0.67065354050E+02  0.78311394886E+02  0.47000000000E+01 0. -1.
        -11    1    6    6    0    0 -0.46955151778E+02  0.39764838720E+02 -0.30091444941E+03  0.30714090340E+03  0.00000000000E+00 0.  1.
         12    1    6    6    0    0  0.99904059245E+01  0.84879739521E+02 -0.22542715776E+03  0.24108459479E+03  0.00000000000E+00 0. -1.
         -5    1    3    3    0  503 -0.37122485310E+02  0.16575628369E+02 -0.38610427456E+02  0.56264424637E+02  0.47000000000E+01 0.  1.
         13    1    4    4    0    0  0.15153638527E+02 -0.23322828986E+02 -0.10670405692E+03  0.11026941043E+03  0.00000000000E+00 0. -1.
        -14    1    4    4    0    0  0.74625368693E+02 -0.80929945751E+02 -0.91757652286E+02  0.14331109003E+03  0.00000000000E+00 0.  1.
</event>
<event>
12    1  0.8356052E-002  0.2330225E+03  0.7818608E-02  0.1124654E+00
         21   -1    0    0  501  502  0.00000000000E+00  0.00000000000E+00  0.20920509069E+03  0.20920509069E+03  0.00000000000E+00 0. -1.
         21   -1    0    0  502  503 -0.00000000000E+00 -0.00000000000E+00 -0.26786202216E+03  0.26786202216E+03  0.00000000000E+00 0.  1.
         -6    2    1    2    0  503  0.14453555381E+02  0.15640313559E+03 -0.73259115776E+02  0.24358750268E+03  0.17116403633E+03 0.  0.
        -24    2    3    3    0    0  0.22550670880E+01  0.15925851956E+02  0.52849402090E+01  0.82113266147E+02  0.80348863068E+02 0.  0.
          6    2    1    2  501    0 -0.14453555381E+02 -0.15640313559E+03  0.14602184309E+02  0.23347961016E+03  0.17212977223E+03 0.  0.
         24    2    5    5    0    0  0.30016680038E+02 -0.63883510982E+02 -0.42697964999E+02  0.11582384155E+03  0.81301549809E+02 0.  0.
          5    1    5    5  501    0 -0.44470235419E+02 -0.92519624609E+02  0.57300149308E+02  0.11765576861E+03  0.47000000000E+01 0. -1.
        -13    1    6    6    0    0  0.32857521285E+02 -0.49278505009E+02  0.10879150573E+02  0.60219130499E+02  0.00000000000E+00 0.  1.
         14    1    6    6    0    0 -0.28408412472E+01 -0.14605005973E+02 -0.53577115572E+02  0.55604711055E+02  0.00000000000E+00 0. -1.
         -5    1    3    3    0  503  0.12198488293E+02  0.14047728364E+03 -0.78544055985E+02  0.16147423654E+03  0.47000000000E+01 0.  1.
         13    1    4    4    0    0  0.39948920416E+02  0.17046701987E+02 -0.28787245028E+01  0.43529224044E+02  0.00000000000E+00 0. -1.
        -14    1    4    4    0    0 -0.37693853328E+02 -0.11208500312E+01  0.81636647118E+01  0.38584042104E+02  0.00000000000E+00 0.  1.
</event>
<event>
12    1  0.8356052E-002  0.1755604E+03  0.7818608E-02  0.1172372E+00
         21   -1    0    0  501  502  0.00000000000E+00  0.00000000000E+00  0.18151919586E+03  0.18151919586E+03  0.00000000000E+00 0. -1.
         21   -1    0    0  502  503 -0.00000000000E+00 -0.00000000000E+00 -0.44243738389E+03  0.44243738389E+03  0.00000000000E+00 0. -1.
         -6    2    1    2    0  503  0.87474889392E+01 -0.31803431262E+02 -0.37559598020E+03  0.41426050808E+03  0.17161425176E+03 0.  0.
        -24    2    3    3    0    0  0.32432273464E+02 -0.65388708115E+02 -0.34761140766E+03  0.36431888076E+03  0.81037155846E+02 0.  0.
          6    2    1    2  501    0 -0.87474889392E+01  0.31803431262E+02  0.11467779217E+03  0.20969607167E+03  0.17243395737E+03 0.  0.
         24    2    5    5    0    0 -0.53735332925E+02  0.68341633049E+02  0.79520517890E+02  0.14174704496E+03  0.78807659373E+02 0.  0.
          5    1    5    5  501    0  0.44987843986E+02 -0.36538201787E+02  0.35157274281E+02  0.67949026713E+02  0.47000000000E+01 0. -1.
        -11    1    6    6    0    0 -0.21318221751E+02  0.72822691921E+02  0.28340265808E+02  0.80998652478E+02  0.00000000000E+00 0.  1.
         12    1    6    6    0    0 -0.32417111174E+02 -0.44810588715E+01  0.51180252082E+02  0.60748392478E+02  0.00000000000E+00 0. -1.
         -5    1    3    3    0  503 -0.23684784525E+02  0.33585276853E+02 -0.27984572533E+02  0.49941627318E+02  0.47000000000E+01 0.  1.
         13    1    4    4    0    0 -0.11010840664E+02 -0.19563608837E+02 -0.22764305656E+03  0.22874731606E+03  0.00000000000E+00 0. -1.
        -14    1    4    4    0    0  0.43443114128E+02 -0.45825099278E+02 -0.11996835110E+03  0.13557156470E+03  0.00000000000E+00 0.  1.
</event>
<event>
12    1  0.8356052E-002  0.2903022E+03  0.7818608E-02  0.1090237E+00
         21   -1    0    0  503  502  0.00000000000E+00  0.00000000000E+00  0.20119157764E+03  0.20119157764E+03  0.00000000000E+00 0.  1.
         21   -1    0    0  501  503 -0.00000000000E+00 -0.00000000000E+00 -0.44386267056E+03  0.44386267056E+03  0.00000000000E+00 0. -1.
          6    2    1    2  501    0  0.20488350305E+03 -0.11199787324E+03 -0.19854852946E+03  0.35141810895E+03  0.17190810137E+03 0.  0.
         24    2    3    3    0    0  0.10875531916E+03 -0.60006784430E+01 -0.46839282888E+02  0.14281844802E+03  0.79620745334E+02 0.  0.
         -6    2    1    2    0  502 -0.20488350305E+03  0.11199787324E+03 -0.44122563466E+02  0.29363613924E+03  0.17249524118E+03 0.  0.
        -24    2    5    5    0    0 -0.96507576346E+02  0.99576206449E+02  0.30169343478E+02  0.16157169765E+03  0.77240475229E+02 0.  0.
          5    1    3    3  501    0  0.96128183894E+02 -0.10599719480E+03 -0.15170924657E+03  0.20859966093E+03  0.47000000000E+01 0. -1.
        -11    1    4    4    0    0 -0.68793439979E+01  0.12890602409E+02  0.39203840789E+01  0.15128199352E+02  0.00000000000E+00 0.  1.
         12    1    4    4    0    0  0.11563466316E+03 -0.18891280852E+02 -0.50759666967E+02  0.12769024867E+03  0.00000000000E+00 0. -1.
         -5    1    5    5    0  502 -0.10837592671E+03  0.12421666795E+02 -0.74291906943E+02  0.13206444159E+03  0.47000000000E+01 0.  1.
         13    1    6    6    0    0  0.11013602664E+02  0.16841445779E+02 -0.63021971373E+01  0.21086759550E+02  0.00000000000E+00 0. -1.
        -14    1    6    6    0    0 -0.10752117901E+03  0.82734760671E+02  0.36471540615E+02  0.14048493810E+03  0.00000000000E+00 0.  1.
</event>
<event>
12    1  0.8356052E-002  0.2489773E+03  0.7818608E-02  0.1114022E+00
         21   -1    0    0  501  502  0.00000000000E+00  0.00000000000E+00  0.19802337518E+03  0.19802337518E+03  0.00000000000E+00 0.  1.
         21   -1    0    0  502  503 -0.00000000000E+00 -0.00000000000E+00 -0.53014932287E+03  0.53014932287E+03  0.00000000000E+00 0.  1.
         -6    2    1    2    0  503  0.99059272403E+02  0.14989242630E+03 -0.39926281026E+03  0.47030247775E+03  0.17173569813E+03 0.  0.
        -24    2    3    3    0    0  0.13314156557E+02  0.12049261357E+03 -0.31512084455E+03  0.34653441130E+03  0.78033421397E+02 0.  0.
          6    2    1    2  501    0 -0.99059272403E+02 -0.14989242630E+03  0.67136862566E+02  0.25787022030E+03  0.17236360779E+03 0.  0.
         24    2    5    5    0    0 -0.10733111975E+03 -0.16824692384E+03  0.32338346605E+02  0.21739383519E+03  0.79920674862E+02 0.  0.
          5    1    5    5  501    0  0.82718473417E+01  0.18354497539E+02  0.34798515961E+02  0.40476385109E+02  0.47000000000E+01 0. -1.
        -13    1    6    6    0    0 -0.10869697653E+03 -0.13396659489E+03  0.48878197778E+02  0.17930744399E+03  0.00000000000E+00 0.  1.
         14    1    6    6    0    0  0.13658567830E+01 -0.34280328957E+02 -0.16539851173E+02  0.38086391205E+02  0.00000000000E+00 0. -1.
         -5    1    3    3    0  503  0.85745115846E+02  0.29399812730E+02 -0.84141965703E+02  0.12376806645E+03  0.47000000000E+01 0.  1.
         13    1    4    4    0    0 -0.15289073700E+02 -0.39663016487E+01 -0.46356644668E+02  0.48973725897E+02  0.00000000000E+00 0. -1.
        -14    1    4    4    0    0  0.28603230257E+02  0.12445891522E+03 -0.26876419989E+03  0.29756068541E+03  0.00000000000E+00 0.  1.
</event>
<event>
12    1  0.8356052E-002  0.2034593E+03  0.7818608E-02  0.1146970E+00
         21   -1    0    0  501  502  0.00000000000E+00  0.00000000000E+00  0.77417009390E+02  0.77417009390E+02  0.00000000000E+00 0.  1.
         21   -1    0    0  502  503 -0.00000000000E+00 -0.00000000000E+00 -0.72324531688E+03  0.72324531688E+03  0.00000000000E+00 0.  1.
         -6    2    1    2    0  503  0.95688084277E+02 -0.49162533774E+02 -0.52844599915E+03  0.56626041217E+03  0.17269196903E+03 0.  0.
        -24    2    3    3    0    0  0.65174250224E+02 -0.67027655948E+02 -0.19112451997E+03  0.22705822029E+03  0.79287222881E+02 0.  0.
          6    2    1    2  501    0 -0.95688084277E+02  0.49162533774E+02 -0.11738230834E+03  0.23440191411E+03  0.17202466923E+03 0.  0.
         24    2    5    5    0    0 -0.11223440729E+02  0.24114129056E+02 -0.11982004302E+03  0.14614246057E+03  0.79330443270E+02 0.  0.
          5    1    5    5  501    0 -0.84464643548E+02  0.25048404718E+02  0.24377346777E+01  0.88259453539E+02  0.47000000000E+01 0. -1.
        -13    1    6    6    0    0  0.20988605630E+02  0.35577106542E+02 -0.33122997871E+02  0.52947002410E+02  0.00000000000E+00 0.  1.
         14    1    6    6    0    0 -0.32212046359E+02 -0.11462977486E+02 -0.86697045150E+02  0.93195458158E+02  0.00000000000E+00 0. -1.
         -5    1    3    3    0  503  0.30513834053E+02  0.17865122174E+02 -0.33732147918E+03  0.33920219188E+03  0.47000000000E+01 0.  1.
         11    1    4    4    0    0  0.35860994013E+00 -0.50743184915E+02 -0.51689182905E+02  0.72434598403E+02  0.00000000000E+00 0. -1.
        -12    1    4    4    0    0  0.64815640284E+02 -0.16284471033E+02 -0.13943533706E+03  0.15462362188E+03  0.00000000000E+00 0.  1.
</event>
<event>
12    1  0.8356052E-002  0.2778589E+03  0.7818608E-02  0.1096988E+00
         21   -1    0    0  503  502  0.00000000000E+00  0.00000000000E+00  0.23532166000E+03  0.23532166000E+03  0.00000000000E+00 0.  1.
         21   -1    0    0  501  503 -0.00000000000E+00 -0.00000000000E+00 -0.76511461106E+03  0.76511461106E+03  0.00000000000E+00 0. -1.
          6    2    1    2  501    0 -0.20767277004E+03  0.64521081392E+02 -0.64358758980E+03  0.70100682182E+03  0.17295846073E+03 0.  0.
         24    2    3    3    0    0 -0.43263802227E+02 -0.52626486733E+01 -0.30313627235E+03  0.31652110397E+03  0.79965977712E+02 0.  0.
         -6    2    1    2    0  502  0.20767277004E+03 -0.64521081392E+02  0.11379463874E+03  0.29942944925E+03  0.17151625553E+03 0.  0.
        -24    2    5    5    0    0  0.20916806714E+03 -0.13216561317E+02  0.87743454150E+02  0.24167874439E+03  0.82363486666E+02 0.  0.
          5    1    3    3  501    0 -0.16440896781E+03  0.69783730065E+02 -0.34045131745E+03  0.38448571785E+03  0.47000000000E+01 0. -1.
        -13    1    4    4    0    0 -0.34795711098E+02 -0.40057081029E+02 -0.14561789556E+03  0.15498349189E+03  0.00000000000E+00 0.  1.
         14    1    4    4    0    0 -0.84680911286E+01  0.34794432356E+02 -0.15751837679E+03  0.16153761208E+03  0.00000000000E+00 0. -1.
         -5    1    5    5    0  502 -0.14952971078E+01 -0.51304520075E+02  0.26051184585E+02  0.57750704860E+02  0.47000000000E+01 0.  1.
         13    1    6    6    0    0  0.85991461143E+02  0.24077896575E+02  0.66266410984E+02  0.11120033146E+03  0.00000000000E+00 0. -1.
        -14    1    6    6    0    0  0.12317660600E+03 -0.37294457891E+02  0.21477043166E+02  0.13047841292E+03  0.00000000000E+00 0.  1.
</event>
<event>
12    1  0.8356052E-002  0.2514544E+03  0.7818608E-02  0.1112486E+00
         21   -1    0    0  503  502  0.00000000000E+00  0.00000000000E+00  0.24295194027E+03  0.24295194027E+03  0.00000000000E+00 0.  1.
         21   -1    0    0  501  503 -0.00000000000E+00 -0.00000000000E+00 -0.39296126662E+03  0.39296126662E+03  0.00000000000E+00 0.  1.
          6    2    1    2  501    0  0.11737971510E+02  0.18220529766E+03 -0.26016177591E+03  0.36139024353E+03  0.17199479063E+03 0.  0.
         24    2    3    3    0    0  0.64381787260E+01  0.18150242416E+03 -0.14420903472E+03  0.24521920572E+03  0.79697133200E+02 0.  0.
         -6    2    1    2    0  502 -0.11737971510E+02 -0.18220529766E+03  0.11015244957E+03  0.27452296336E+03  0.17289518442E+03 0.  0.
        -24    2    5    5    0    0 -0.18551867995E+02 -0.70155066266E+02 -0.12013015536E+02  0.10854653611E+03  0.79825640177E+02 0.  0.
          5    1    3    3  501    0  0.52997927843E+01  0.70287349957E+00 -0.11595274119E+03  0.11617103781E+03  0.47000000000E+01 0. -1.
        -13    1    4    4    0    0  0.27423133255E+02  0.15901590631E+03 -0.14101362660E+03  0.21429635924E+03  0.00000000000E+00 0.  1.
         14    1    4    4    0    0 -0.20984954530E+02  0.22486517847E+02 -0.31954081201E+01  0.30922846482E+02  0.00000000000E+00 0. -1.
         -5    1    5    5    0  502  0.68138964849E+01 -0.11205023139E+03  0.12216546510E+03  0.16597642725E+03  0.47000000000E+01 0.  1.
         11    1    6    6    0    0 -0.32114453666E+02 -0.76931124886E+02 -0.26601579490E+02  0.87506457715E+02  0.00000000000E+00 0. -1.
        -12    1    6    6    0    0  0.13562585670E+02  0.67760586200E+01  0.14588563954E+02  0.21040078392E+02  0.00000000000E+00 0.  1.
</event>
<event>
12    1  0.8356052E-002  0.1849275E+03  0.7818608E-02  0.1163484E+00
         21   -1    0    0  503  502  0.00000000000E+00  0.00000000000E+00  0.55754747743E+03  0.55754747743E+03  0.00000000000E+00 0. -1.
         21   -1    0    0  501  503 -0.00000000000E+00 -0.00000000000E+00 -0.68074152479E+02  0.68074152479E+02  0.00000000000E+00 0. -1.
          6    2    1    2  501    0  0.11537284162E+01 -0.65399396225E+02  0.34592529093E+03  0.39151862465E+03  0.17130123883E+03 0.  0.
         24    2    3    3    0    0  0.11610254310E+02 -0.49216285216E+01  0.63794633217E+02  0.10275107567E+03  0.79555062013E+02 0.  0.
         -6    2    1    2    0  502 -0.11537284162E+01  0.65399396225E+02  0.14354803402E+03  0.23410300526E+03  0.17297331264E+03 0.  0.
        -24    2    5    5    0    0 -0.23235623481E+02  0.71183583720E+02  0.16747010725E+03  0.20070506367E+03  0.81420445638E+02 0.  0.
          5    1    3    3  501    0 -0.10456525894E+02 -0.60477767703E+02  0.28213065771E+03  0.28876754897E+03  0.47000000000E+01 0. -1.
        -13    1    4    4    0    0 -0.12253794807E+02 -0.18641433325E+02 -0.96585648565E+01  0.24309389105E+02  0.00000000000E+00 0.  1.
         14    1    4    4    0    0  0.23864049118E+02  0.13719804803E+02  0.73453198074E+02  0.78441686567E+02  0.00000000000E+00 0. -1.
         -5    1    5    5    0  502  0.22081895065E+02 -0.57841874955E+01 -0.23922073236E+02  0.33397941591E+02  0.47000000000E+01 0.  1.
         11    1    6    6    0    0 -0.25851946189E+02  0.53109472100E+01  0.71250505265E+01  0.27336708416E+02  0.00000000000E+00 0. -1.
        -12    1    6    6    0    0  0.26163227079E+01  0.65872636510E+02  0.16034505673E+03  0.17336835525E+03  0.00000000000E+00 0.  1.
</event>
<event>
12    1  0.8356052E-002  0.1999625E+03  0.7818608E-02  0.1149835E+00
         21   -1    0    0  501  502  0.00000000000E+00  0.00000000000E+00  0.17861379291E+03  0.17861379291E+03  0.00000000000E+00 0.  1.
         21   -1    0    0  502  503 -0.00000000000E+00 -0.00000000000E+00 -0.17135464006E+04  0.17135464006E+04  0.00000000000E+00 0.  1.
         -6    2    1    2    0  503 -0.53561767157E+02 -0.85690431121E+02 -0.16497616684E+04  0.16618359011E+04  0.17254937431E+03 0.  0.
        -24    2    3    3    0    0 -0.24845702411E+01 -0.36829541817E+02 -0.13860889382E+04  0.13888127057E+04  0.78712125157E+02 0.  0.
          6    2    1    2  501    0  0.53561767157E+02  0.85690431121E+02  0.11482906080E+03  0.23032429239E+03  0.17219713579E+03 0.  0.
         24    2    5    5    0    0  0.19828037949E+02  0.21127472759E+02  0.13034375115E+03  0.15569765040E+03  0.80079608403E+02 0.  0.
          5    1    5    5  501    0  0.33733729208E+02  0.64562958362E+02 -0.15514690350E+02  0.74626641995E+02  0.47000000000E+01 0. -1.
        -13    1    6    6    0    0  0.16543825521E+02 -0.19141493059E+02  0.10499764395E+03  0.10800277846E+03  0.00000000000E+00 0.  1.
         14    1    6    6    0    0  0.32842124281E+01  0.40268965818E+02  0.25346107197E+02  0.47694871940E+02  0.00000000000E+00 0. -1.
         -5    1    3    3    0  503 -0.51077196916E+02 -0.48860889303E+02 -0.26367273025E+03  0.27302319540E+03  0.47000000000E+01 0.  1.
         13    1    4    4    0    0  0.71357773401E+01  0.23638149121E+02 -0.50133574582E+03  0.50194343452E+03  0.00000000000E+00 0. -1.
        -14    1    4    4    0    0 -0.96203475813E+01 -0.60467690938E+02 -0.88475319236E+03  0.88686927116E+03  0.00000000000E+00 0.  1.
</event>
<event>
12    1  0.8356052E-002  0.2249976E+03  0.7818608E-02  0.1130296E+00
         21   -1    0    0  503  502  0.00000000000E+00  0.00000000000E+00  0.67323679397E+03  0.67323679397E+03  0.00000000000E+00 0. -1.
         21   -1    0    0  501  503 -0.00000000000E+00 -0.00000000000E+00 -0.78953985777E+02  0.78953985777E+02  0.00000000000E+00 0. -1.
          6    2    1    2  501    0  0.13460717445E+03 -0.52630204898E+02  0.21308592606E+03  0.30954536672E+03  0.17182459745E+03 0.  0.
         24    2    3    3    0    0  0.14040607600E+03 -0.83237759744E+02  0.20948972693E+03  0.27783618317E+03  0.81637051430E+02 0.  0.
         -6    2    1    2    0  502 -0.13460717445E+03  0.52630204898E+02  0.38119688213E+03  0.44264541303E+03  0.17243801452E+03 0.  0.
        -24    2    5    5    0    0 -0.42841456936E+02 -0.31443216317E+02  0.21055466671E+03  0.23138693924E+03  0.79891061406E+02 0.  0.
          5    1    3    3  501    0 -0.57989015498E+01  0.30607554846E+02  0.35961991345E+01  0.31709183544E+02  0.47000000000E+01 0. -1.
        -13    1    4    4    0    0  0.29000533916E+02 -0.30963002128E+02  0.11532940951E+03  0.12288454405E+03  0.00000000000E+00 0.  1.
         14    1    4    4    0    0  0.11140554208E+03 -0.52274757616E+02  0.94160317419E+02  0.15495163912E+03  0.00000000000E+00 0. -1.
         -5    1    5    5    0  502 -0.91765717512E+02  0.84073421215E+02  0.17064221541E+03  0.21125847379E+03  0.47000000000E+01 0.  1.
         11    1    6    6    0    0 -0.65745542400E+02 -0.31152303013E+02  0.16751821122E+03  0.18263431610E+03  0.00000000000E+00 0. -1.
        -12    1    6    6    0    0  0.22904085464E+02 -0.29091330409E+00  0.43036455494E+02  0.48752623140E+02  0.00000000000E+00 0.  1.
</event>
<event>
12    1  0.8356052E-002  0.2158653E+03  0.7818608E-02  0.1137099E+00
         21   -1    0    0  501  502  0.00000000000E+00  0.00000000000E+00  0.76745390663E+03  0.76745390663E+03  0.00000000000E+00 0.  1.
         21   -1    0    0  502  503 -0.00000000000E+00 -0.00000000000E+00 -0.60703183980E+02  0.60703183980E+02  0.00000000000E+00 0.  1.
         -6    2    1    2    0  503  0.22909224903E+02 -0.12730495102E+03  0.37179856648E+03  0.42967149845E+03  0.17219767537E+03 0.  0.
        -24    2    3    3    0    0 -0.22908943912E+01 -0.29313350306E+01  0.20495693178E+03  0.22000017605E+03  0.79867970140E+02 0.  0.
          6    2    1    2  501    0 -0.22909224903E+02  0.12730495102E+03  0.33495215618E+03  0.39848559217E+03  0.17281908777E+03 0.  0.
         24    2    5    5    0    0 -0.60501914368E+01  0.13313226231E+02  0.62646785802E+02  0.10276503985E+03  0.80138547742E+02 0.  0.
          5    1    5    5  501    0 -0.16859033466E+02  0.11399172479E+03  0.27230537037E+03  0.29572055232E+03  0.47000000000E+01 0. -1.
        -13    1    6    6    0    0  0.25519461034E+02  0.33538461813E+02  0.43871268489E+02  0.60833868125E+02  0.00000000000E+00 0.  1.
         14    1    6    6    0    0 -0.31569652471E+02 -0.20225235582E+02  0.18775517313E+02  0.41931171721E+02  0.00000000000E+00 0. -1.
         -5    1    3    3    0  503  0.25200119294E+02 -0.12437361599E+03  0.16684163470E+03  0.20967132240E+03  0.47000000000E+01 0.  1.
         11    1    4    4    0    0 -0.29582024898E+02 -0.16360038253E+02  0.40499648017E+02  0.52753848563E+02  0.00000000000E+00 0. -1.
        -12    1    4    4    0    0  0.27291130507E+02  0.13428703222E+02  0.16445728376E+03  0.16724632749E+03  0.00000000000E+00 0.  1.
</event>
<event>
12    1  0.8356052E-002  0.2416497E+03  0.7818608E-02  0.1118771E+00
         21   -1    0    0  501  502  0.00000000000E+00  0.00000000000E+00  0.59768693657E+03  0.59768693657E+03  0.00000000000E+00 0. -1.
         21   -1    0    0  502  503 -0.00000000000E+00 -0.00000000000E+00 -0.10588313708E+03  0.10588313708E+03  0.00000000000E+00 0.  1.
         -6    2    1    2    0  503 -0.15933679873E+03  0.57659509224E+02  0.14685782033E+03  0.28240227914E+03  0.17167117823E+03 0.  0.
        -24    2    3    3    0    0 -0.11568912401E+03  0.10562029602E+03  0.10561730734E+03  0.20540730209E+03  0.80607219251E+02 0.  0.
          6    2    1    2  501    0  0.15933679873E+03 -0.57659509224E+02  0.34494597915E+03  0.42116779451E+03  0.17228391732E+03 0.  0.
         24    2    5    5    0    0  0.16021264321E+03 -0.98629898653E+02  0.29598080345E+03  0.35714421803E+03  0.67464127574E+02 0.  0.
          5    1    5    5  501    0 -0.87584448124E+00  0.40970389429E+02  0.48965175703E+02  0.64023576479E+02  0.47000000000E+01 0. -1.
        -13    1    6    6    0    0  0.70196240900E+02 -0.70195682165E+02  0.10738122291E+03  0.14623841172E+03  0.00000000000E+00 0.  1.
         14    1    6    6    0    0  0.90016402314E+02 -0.28434216488E+02  0.18859958054E+03  0.21090580631E+03  0.00000000000E+00 0. -1.
         -5    1    3    3    0  503 -0.43647674719E+02 -0.47960786801E+02  0.41240512992E+02  0.76994977049E+02  0.47000000000E+01 0.  1.
         13    1    4    4    0    0 -0.92541204319E+02  0.71005493258E+02  0.11381019887E+03  0.16296753032E+03  0.00000000000E+00 0. -1.
        -14    1    4    4    0    0 -0.23147919694E+02  0.34614802766E+02 -0.81928915325E+01  0.42439771776E+02  0.00000000000E+00 0.  1.
</event>
<event>
12    1  0.8356052E-002  0.1809989E+03  0.7818608E-02  0.1167369E+00
         21   -1    0    0  501  502  0.00000000000E+00  0.00000000000E+00  0.41165602646E+03  0.41165602646E+03  0.00000000000E+00 0.  1.
         21   -1    0    0  502  503 -0.00000000000E+00 -0.00000000000E+00 -0.80817602716E+02  0.80817602716E+02  0.00000000000E+00 0. -1.
         -6    2    1    2    0  503 -0.35080231965E+02 -0.41228834107E+02  0.20697837975E+03  0.27495571153E+03  0.17271408218E+03 0.  0.
        -24    2    3    3    0    0  0.32076864586E+02 -0.64409118189E+02  0.11311659425E+03  0.15714431155E+03  0.81984821835E+02 0.  0.
          6    2    1    2  501    0  0.35080231965E+02  0.41228834107E+02  0.12386004399E+03  0.21751791765E+03  0.17041799953E+03 0.  0.
         24    2    5    5    0    0  0.63399640798E+02 -0.75713964921E+01  0.34123416017E+02  0.11141323432E+03  0.84685658543E+02 0.  0.
          5    1    5    5  501    0 -0.28319408833E+02  0.48800230599E+02  0.89736627976E+02  0.10610468333E+03  0.47000000000E+01 0. -1.
        -13    1    6    6    0    0  0.50160156897E+02 -0.37400005205E+02  0.44937220318E+02  0.77033469993E+02  0.00000000000E+00 0.  1.
         14    1    6    6    0    0  0.13239483900E+02  0.29828608713E+02 -0.10813804301E+02  0.34379764327E+02  0.00000000000E+00 0. -1.
         -5    1    3    3    0  503 -0.67157096551E+02  0.23180284082E+02  0.93861785505E+02  0.11781139998E+03  0.47000000000E+01 0.  1.
         13    1    4    4    0    0 -0.39442258030E+01 -0.67481558287E+02  0.48826320956E+02  0.83386613099E+02  0.00000000000E+00 0. -1.
        -14    1    4    4    0    0  0.36021090389E+02  0.30724400987E+01  0.64290273294E+02  0.73757698454E+02  0.00000000000E+00 0.  1.
</event>
<event>
12    1  0.8356052E-002  0.2069288E+03  0.7818608E-02  0.1144039E+00
         21   -1    0    0  501  502  0.00000000000E+00  0.00000000000E+00  0.49537088885E+02  0.49537088885E+02  0.00000000000E+00 0.  1.
         21   -1    0    0  502  503 -0.00000000000E+00 -0.00000000000E+00 -0.19238204057E+04  0.19238204057E+04  0.00000000000E+00 0. -1.
         -6    2    1    2    0  503 -0.11043860884E+03  0.20115082243E+02 -0.16695558612E+04  0.16823306175E+04  0.17383391544E+03 0.  0.
        -24    2    3    3    0    0 -0.11599511077E+03  0.52715153526E+02 -0.92245015541E+03  0.93447858337E+03  0.78116454367E+02 0.  0.
          6    2    1    2  501    0  0.11043860884E+03 -0.20115082243E+02 -0.20472745561E+03  0.29102687705E+03  0.17372970163E+03 0.  0.
         24    2    5    5    0    0  0.61427601679E+02  0.24181000605E+02 -0.19923064493E+03  0.22456992326E+03  0.79879468692E+02 0.  0.
          5    1    5    5  501    0  0.49011007160E+02 -0.44296082848E+02 -0.54968106814E+01  0.66456953783E+02  0.47000000000E+01 0. -1.
        -11    1    6    6    0    0  0.72871413198E+02  0.36125864254E+02 -0.18723003983E+03  0.20413331121E+03  0.00000000000E+00 0.  1.
         12    1    6    6    0    0 -0.11443811519E+02 -0.11944863649E+02 -0.12000605095E+02  0.20436612056E+02  0.00000000000E+00 0. -1.
         -5    1    3    3    0  503  0.55565019331E+01 -0.32600071283E+02 -0.74710570575E+03  0.74785203411E+03  0.47000000000E+01 0.  1.
         13    1    4    4    0    0 -0.10236107408E+03  0.60801938977E+02 -0.89414763900E+03  0.90203917077E+03  0.00000000000E+00 0. -1.
        -14    1    4    4    0    0 -0.13634036688E+02 -0.80867854508E+01 -0.28302516407E+02  0.32439412607E+02  0.00000000000E+00 0.  1.
</event>
<event>
12    1  0.8356052E-002  0.1930182E+03  0.7818608E-02  0.1155797E+00
         21   -1    0    0  503  502  0.00000000000E+00  0.00000000000E+00  0.32173239278E+03  0.32173239278E+03  0.00000000000E+00 0.  1.
         21   -1    0    0  501  503 -0.00000000000E+00 -0.00000000000E+00 -0.11947959654E+03  0.11947959654E+03  0.00000000000E+00 0.  1.
          6    2    1    2  501    0 -0.65386619700E+01  0.86141951997E+02  0.14030654078E+03  0.23862512493E+03  0.17260601052E+03 0.  0.
         24    2    3    3    0    0  0.12785084770E+02  0.51949587183E+01  0.12580308161E+03  0.15401860487E+03  0.87777384984E+02 0.  0.
         -6    2    1    2    0  502  0.65386619700E+01 -0.86141951997E+02  0.61946255462E+02  0.20258686438E+03  0.17245552778E+03 0.  0.
        -24    2    5    5    0    0 -0.12330377028E+01 -0.11400226773E+03  0.85371754152E+02  0.16507099445E+03  0.83438955962E+02 0.  0.
          5    1    3    3  501    0 -0.19323746740E+02  0.80946993279E+02  0.14503459167E+02  0.84606520061E+02  0.47000000000E+01 0. -1.
        -13    1    4    4    0    0  0.46423535868E+02  0.55399154139E+01  0.10374059205E+03  0.11378904070E+03  0.00000000000E+00 0.  1.
         14    1    4    4    0    0 -0.33638451098E+02 -0.34495669555E+00  0.22062489560E+02  0.40229564166E+02  0.00000000000E+00 0. -1.
         -5    1    5    5    0  502  0.77716996728E+01  0.27860315729E+02 -0.23425498690E+02  0.37515869937E+02  0.47000000000E+01 0.  1.
         13    1    6    6    0    0  0.70479767330E+01 -0.18388777614E+02  0.63711458938E+02  0.66685614028E+02  0.00000000000E+00 0. -1.
        -14    1    6    6    0    0 -0.82810144358E+01 -0.95613490112E+02  0.21660295213E+02  0.98385380419E+02  0.00000000000E+00 0.  1.
</event>
<event>
12    1  0.8356052E-002  0.2219145E+03  0.7818608E-02  0.1132825E+00
         21   -1    0    0  503  502  0.00000000000E+00  0.00000000000E+00  0.11120010002E+04  0.11120010002E+04  0.00000000000E+00 0. -1.
         21   -1    0    0  501  503 -0.00000000000E+00 -0.00000000000E+00 -0.49148957943E+02  0.49148957943E+02  0.00000000000E+00 0. -1.
          6    2    1    2  501    0  0.39459490509E+00  0.13770652055E+03  0.33956375130E+03  0.40458403362E+03  0.17152684208E+03 0.  0.
         24    2    3    3    0    0  0.10098041286E+02  0.14655065916E+01  0.87577989129E+02  0.11792276122E+03  0.78305525262E+02 0.  0.
         -6    2    1    2    0  502 -0.39459490509E+00 -0.13770652055E+03  0.72328829097E+03  0.75656592454E+03  0.17401955297E+03 0.  0.
        -24    2    5    5    0    0  0.23087455008E+02 -0.10567859486E+03  0.69358484012E+03  0.70675046826E+03  0.82068861016E+02 0.  0.
          5    1    3    3  501    0 -0.97034463808E+01  0.13624101395E+03  0.25198576217E+03  0.28666127240E+03  0.47000000000E+01 0. -1.
        -11    1    4    4    0    0  0.18602168861E+02  0.22439085787E+02  0.90523091233E+02  0.95099859641E+02  0.00000000000E+00 0.  1.
         12    1    4    4    0    0 -0.85041275749E+01 -0.20973579196E+02 -0.29451021043E+01  0.22822901579E+02  0.00000000000E+00 0. -1.
         -5    1    5    5    0  502 -0.23482049913E+02 -0.32027925688E+02  0.29703450845E+02  0.49815456277E+02  0.47000000000E+01 0.  1.
         13    1    6    6    0    0  0.36282990541E+02 -0.93060701895E+02  0.38899949960E+03  0.40161842628E+03  0.00000000000E+00 0. -1.
        -14    1    6    6    0    0 -0.13195535533E+02 -0.12617892963E+02  0.30458534053E+03  0.30513204198E+03  0.00000000000E+00 0.  1.
</event>
<event>
12    1  0.8356052E-002  0.1955042E+03  0.7818608E-02  0.1153623E+00
         21   -1    0    0  503  502  0.00000000000E+00  0.00000000000E+00  0.10455727849E+03  0.10455727849E+03  0.00000000000E+00 0.  1.
         21   -1    0    0  501  503 -0.00000000000E+00 -0.00000000000E+00 -0.89939080652E+03  0.89939080652E+03  0.00000000000E+00 0.  1.
          6    2    1    2  501    0  0.86101518122E+02  0.35434371526E+02 -0.78418916985E+03  0.80815435900E+03  0.17173161551E+03 0.  0.
         24    2    3    3    0    0  0.60822145467E+02  0.88741825617E+02 -0.61393726976E+03  0.62790860780E+03  0.75998707610E+02 0.  0.
         -6    2    1    2    0  502 -0.86101518122E+02 -0.35434371526E+02 -0.10644358180E+02  0.19579372601E+03  0.17190932108E+03 0.  0.
        -24    2    5    5    0    0 -0.56777373796E+02  0.46168155197E+02 -0.13258607349E+02  0.10891563840E+03  0.79571709104E+02 0.  0.
          5    1    3    3  501    0  0.25279372655E+02 -0.53307454092E+02 -0.17025190008E+03  0.18024575120E+03  0.47000000000E+01 0. -1.
        -11    1    4    4    0    0  0.22160317771E+02  0.61116825891E+02 -0.50354212166E+03  0.50772139444E+03  0.00000000000E+00 0.  1.
         12    1    4    4    0    0  0.38661827696E+02  0.27624999727E+02 -0.11039514810E+03  0.12018721336E+03  0.00000000000E+00 0. -1.
         -5    1    5    5    0  502 -0.29324144325E+02 -0.81602526723E+02  0.26142491693E+01  0.86878087610E+02  0.47000000000E+01 0.  1.
         13    1    6    6    0    0  0.18700220338E+02  0.12809382518E+02 -0.13523642435E+02  0.26394458242E+02  0.00000000000E+00 0. -1.
        -14    1    6    6    0    0 -0.75477594135E+02  0.33358772679E+02  0.26503508518E+00  0.82521180158E+02  0.00000000000E+00 0.  1.
</event>
<event>
12    1  0.8356052E-002  0.2088272E+03  0.7818608E-02  0.1142596E+00
         21   -1    0    0  503  502  0.00000000000E+00  0.00000000000E+00  0.19914127485E+04  0.19914127485E+04  0.00000000000E+00 0. -1.
         21   -1    0    0  501  503 -0.00000000000E+00 -0.00000000000E+00 -0.40112901362E+02  0.40112901362E+02  0.00000000000E+00 0. -1.
          6    2    1    2  501    0  0.34070858064E+02 -0.11448368675E+03  0.29083317104E+03  0.35804012612E+03  0.17129349267E+03 0.  0.
         24    2    3    3    0    0  0.54437703411E+02 -0.17839927696E+02  0.85357394106E+02  0.13001115984E+03  0.79594537384E+02 0.  0.
         -6    2    1    2    0  502 -0.34070858064E+02  0.11448368675E+03  0.16604666761E+04  0.16734855237E+04  0.17069527777E+03 0.  0.
        -24    2    5    5    0    0 -0.35021864192E+02  0.14891801163E+03  0.14444607269E+04  0.14546995845E+04  0.79252661136E+02 0.  0.
          5    1    3    3  501    0 -0.20366845346E+02 -0.96643759059E+02  0.20547577693E+03  0.22802896628E+03  0.47000000000E+01 0. -1.
        -13    1    4    4    0    0  0.48706379887E+02  0.17558897934E+02  0.77656844182E+02  0.93333872665E+02  0.00000000000E+00 0.  1.
         14    1    4    4    0    0  0.57313235231E+01 -0.35398825630E+02  0.77005499245E+01  0.36677287175E+02  0.00000000000E+00 0. -1.
         -5    1    5    5    0  502  0.95100612802E+00 -0.34434324878E+02  0.21600594916E+03  0.21878593925E+03  0.47000000000E+01 0.  1.
         11    1    6    6    0    0 -0.11003382450E+02  0.97456627532E+02  0.56833804000E+03  0.57673823905E+03  0.00000000000E+00 0. -1.
        -12    1    6    6    0    0 -0.24018481742E+02  0.51461384101E+02  0.87612268692E+03  0.87796134542E+03  0.00000000000E+00 0.  1.
</event>
<event>
12    1  0.8356052E-002  0.1859543E+03  0.7818608E-02  0.1162566E+00
         21   -1    0    0  503  502  0.00000000000E+00  0.00000000000E+00  0.30394568472E+03  0.30394568472E+03  0.00000000000E+00 0.  1.
         21   -1    0    0  501  503 -0.00000000000E+00 -0.00000000000E+00 -0.13780973949E+03  0.13780973949E+03  0.00000000000E+00 0.  1.
          6    2    1    2  501    0  0.48597549055E+02 -0.42907902086E+02 -0.10881559973E+02  0.18627242433E+03  0.17428768712E+03 0.  0.
         24    2    3    3    0    0  0.75620381315E+02 -0.24395995849E+01  0.38756485873E+02  0.11660218272E+03  0.79809837117E+02 0.  0.
         -6    2    1    2    0  502 -0.48597549055E+02  0.42907902086E+02  0.17701750520E+03  0.25548299989E+03  0.17243420847E+03 0.  0.
        -24    2    5    5    0    0  0.39889888475E+02  0.19165658585E+02  0.10264388718E+03  0.13738454188E+03  0.79876273701E+02 0.  0.
          5    1    3    3  501    0 -0.27022832260E+02 -0.40468302501E+02 -0.49638045846E+02  0.69670241610E+02  0.47000000000E+01 0. -1.
        -11    1    4    4    0    0  0.89119413832E+01 -0.35411717573E+01 -0.23480035537E+02  0.25362859962E+02  0.00000000000E+00 0.  1.
         12    1    4    4    0    0  0.66708439932E+02  0.11015721724E+01  0.62236521411E+02  0.91239322755E+02  0.00000000000E+00 0. -1.
         -5    1    5    5    0  502 -0.88487437531E+02  0.23742243501E+02  0.74373618021E+02  0.11809845801E+03  0.47000000000E+01 0.  1.
         11    1    6    6    0    0  0.17617072488E+02  0.84654751107E+01 -0.10074796181E+02  0.21989248054E+02  0.00000000000E+00 0. -1.
        -12    1    6    6    0    0  0.22272815988E+02  0.10700183474E+02  0.11271868336E+03  0.11539529383E+03  0.00000000000E+00 0.  1.
</event>
<event>
12    1  0.8356052E-002  0.2084445E+03  0.7818608E-02  0.1144293E+00
         21   -1    0    0  503  502  0.00000000000E+00  0.00000000000E+00  0.14188283512E+04  0.14188283512E+04  0.00000000000E+00 0.  1.
         21   -1    0    0  501  503 -0.00000000000E+00 -0.00000000000E+00 -0.32242725323E+02  0.32242725323E+02  0.00000000000E+00 0. -1.
          6    2    1    2  501    0 -0.38610615961E+02 -0.10999175574E+03  0.47264533430E+03  0.51366188869E+03  0.16390838253E+03 0.  0.
         24    2    3    3    0    0  0.90745193656E+01 -0.53333784968E+02  0.39525785030E+03  0.40644756846E+03  0.77743283710E+02 0.  0.
         -6    2    1    2    0  502  0.38610615961E+02  0.10999175574E+03  0.91394029156E+03  0.93740918781E+03  0.17280093423E+03 0.  0.
        -24    2    5    5    0    0  0.57599458389E+02  0.14625682756E+02  0.62067612885E+03  0.62840882674E+03  0.78276359157E+02 0.  0.
          5    1    3    3  501    0 -0.47685135326E+02 -0.56657970769E+02  0.77387483998E+02  0.10721432023E+03  0.47000000000E+01 0. -1.
        -13    1    4    4    0    0 -0.21430441295E+02  0.60239393029E+01  0.49038159292E+02  0.53854365892E+02  0.00000000000E+00 0.  1.
         14    1    4    4    0    0  0.30504960660E+02 -0.59357724271E+02  0.34621969101E+03  0.35259320257E+03  0.00000000000E+00 0. -1.
         -5    1    5    5    0  502 -0.18988842429E+02  0.95366072981E+02  0.29326416271E+03  0.30900036107E+03  0.47000000000E+01 0.  1.
         13    1    6    6    0    0 -0.16865928517E+02 -0.88677514038E+01  0.16426804874E+03  0.16536955099E+03  0.00000000000E+00 0. -1.
        -14    1    6    6    0    0  0.74465386906E+02  0.23493434160E+02  0.45640808011E+03  0.46303927575E+03  0.00000000000E+00 0.  1.
</event>
<event>
12    1  0.8356052E-002  0.1756624E+03  0.7818608E-02  0.1172354E+00
         21   -1    0    0  503  502  0.00000000000E+00  0.00000000000E+00  0.14629857185E+03  0.14629857185E+03  0.00000000000E+00 0. -1.
         21   -1    0    0  501  503 -0.00000000000E+00 -0.00000000000E+00 -0.24176457200E+03  0.24176457200E+03  0.00000000000E+00 0. -1.
          6    2    1    2  501    0  0.17719631372E+02 -0.22585553273E+02 -0.11842083269E+03  0.21090723807E+03  0.17214609175E+03 0.  0.
         24    2    3    3    0    0  0.19793630356E+01  0.44616203038E+02 -0.10723003617E+03  0.14082759748E+03  0.79621656000E+02 0.  0.
         -6    2    1    2    0  502 -0.17719631372E+02  0.22585553273E+02  0.22954832539E+02  0.17715590578E+03  0.17330088881E+03 0.  0.
        -24    2    5    5    0    0  0.16280694105E+02 -0.42542536037E+02  0.42578248958E+02  0.10096628298E+03  0.79412559722E+02 0.  0.
          5    1    3    3  501    0  0.15740268336E+02 -0.67201756311E+02 -0.11190796523E+02  0.70079640591E+02  0.47000000000E+01 0. -1.
        -13    1    4    4    0    0 -0.38520622775E+02  0.22352720494E+02 -0.60275088338E+02  0.74943770699E+02  0.00000000000E+00 0.  1.
         14    1    4    4    0    0  0.40499985811E+02  0.22263482544E+02 -0.46954947828E+02  0.65883826780E+02  0.00000000000E+00 0. -1.
         -5    1    5    5    0  502 -0.34000325477E+02  0.65128089310E+02 -0.19623416419E+02  0.76189622795E+02  0.47000000000E+01 0.  1.
         11    1    6    6    0    0  0.18944164104E+02  0.20271962548E+02  0.19841342335E+02  0.34110301740E+02  0.00000000000E+00 0. -1.
        -12    1    6    6    0    0 -0.26634699990E+01 -0.62814498585E+02  0.22736906623E+02  0.66855981241E+02  0.00000000000E+00 0.  1.
</event>
<event>
12    1  0.8356052E-002  0.1786311E+03  0.7818608E-02  0.1169301E+00
         21   -1    0    0  503  502  0.00000000000E+00  0.00000000000E+00  0.87609401185E+02  0.87609401185E+02  0.00000000000E+00 0.  1.
         21   -1    0    0  501  503 -0.00000000000E+00 -0.00000000000E+00 -0.39960776656E+03  0.39960776656E+03  0.00000000000E+00 0.  1.
          6    2    1    2  501    0 -0.23528556606E+02  0.38033336020E+02 -0.82371618777E+02  0.19670825381E+03  0.17294197267E+03 0.  0.
         24    2    3    3    0    0  0.86209289689E+01  0.38682113896E+02  0.18488909357E+02  0.90741530392E+02  0.79508233642E+02 0.  0.
         -6    2    1    2    0  502  0.23528556606E+02 -0.38033336020E+02 -0.22962674660E+03  0.29050891394E+03  0.17224069990E+03 0.  0.
        -24    2    5    5    0    0 -0.39000321345E+01  0.27956567733E+02 -0.19174503855E+03  0.20948972681E+03  0.79517330831E+02 0.  0.
          5    1    3    3  501    0 -0.32149485575E+02 -0.64877787541E+00 -0.10086052813E+03  0.10596672341E+03  0.47000000000E+01 0. -1.
        -13    1    4    4    0    0 -0.25504812281E+02  0.41166117496E+01  0.31224464353E+02  0.40526646985E+02  0.00000000000E+00 0.  1.
         14    1    4    4    0    0  0.34125741250E+02  0.34565502146E+02 -0.12735554996E+02  0.50214883406E+02  0.00000000000E+00 0. -1.
         -5    1    5    5    0  502  0.27428588741E+02 -0.65989903753E+02 -0.37881708047E+02  0.81019187124E+02  0.47000000000E+01 0.  1.
         11    1    6    6    0    0 -0.25658789428E+02  0.41975692745E+02 -0.73503697423E+02  0.88448435776E+02  0.00000000000E+00 0. -1.
        -12    1    6    6    0    0  0.21758757293E+02 -0.14019125012E+02 -0.11824134113E+03  0.12104129104E+03  0.00000000000E+00 0.  1.
</event>
<event>
12    1  0.8356052E-002  0.1933228E+03  0.7818608E-02  0.1155758E+00
         21   -1    0    0  501  502  0.00000000000E+00  0.00000000000E+00  0.29536962962E+02  0.29536962962E+02  0.00000000000E+00 0. -1.
         21   -1    0    0  502  503 -0.00000000000E+00 -0.00000000000E+00 -0.14305680499E+04  0.14305680499E+04  0.00000000000E+00 0. -1.
         -6    2    1    2    0  503 -0.57589982540E+02 -0.57037500532E+02 -0.95246452741E+03  0.97165269933E+03  0.17421368941E+03 0.  0.
        -24    2    3    3    0    0  0.22634596297E+02 -0.17536287983E+02 -0.67009274354E+03  0.67542264823E+03  0.79697066831E+02 0.  0.
          6    2    1    2  501    0  0.57589982540E+02  0.57037500532E+02 -0.44856655953E+03  0.48845231354E+03  0.17551017553E+03 0.  0.
         24    2    5    5    0    0  0.76724926736E+02 -0.21608143003E+02 -0.25189608669E+03  0.27572561511E+03  0.78862856348E+02 0.  0.
          5    1    5    5  501    0 -0.19134944196E+02  0.78645643535E+02 -0.19667047284E+03  0.21272669843E+03  0.47000000000E+01 0. -1.
        -11    1    6    6    0    0  0.88319770921E+01 -0.35445125494E+02 -0.47610540877E+02  0.60009368796E+02  0.00000000000E+00 0.  1.
         12    1    6    6    0    0  0.67892949644E+02  0.13836982491E+02 -0.20428554581E+03  0.21571624631E+03  0.00000000000E+00 0. -1.
         -5    1    3    3    0  503 -0.80224578837E+02 -0.39501212549E+02 -0.28237178388E+03  0.29623005110E+03  0.47000000000E+01 0.  1.
         11    1    4    4    0    0  0.14358085066E+02 -0.49486626715E+02 -0.42794093340E+03  0.43103192841E+03  0.00000000000E+00 0. -1.
        -12    1    4    4    0    0  0.82765112312E+01  0.31950338732E+02 -0.24215181014E+03  0.24439071982E+03  0.00000000000E+00 0.  1.
</event>
<event>
12    1  0.8356052E-002  0.3866923E+03  0.7818608E-02  0.1048608E+00
         21   -1    0    0  501  502  0.00000000000E+00  0.00000000000E+00  0.93033149728E+03  0.93033149728E+03  0.00000000000E+00 0.  1.
         21   -1    0    0  502  503 -0.00000000000E+00 -0.00000000000E+00 -0.26735760009E+03  0.26735760009E+03  0.00000000000E+00 0. -1.
         -6    2    1    2    0  503  0.26380811470E+02 -0.34379858179E+03 -0.47337115897E+02  0.38957888920E+03  0.17503570011E+03 0.  0.
        -24    2    3    3    0    0 -0.50426181574E+02 -0.18555328820E+03 -0.45220441411E+02  0.21360315953E+03  0.81293289315E+02 0.  0.
          6    2    1    2  501    0 -0.26380811470E+02  0.34379858179E+03  0.71031101309E+03  0.80811020816E+03  0.17206673466E+03 0.  0.
         24    2    5    5    0    0 -0.92348761274E+01  0.29678332031E+03  0.46461905366E+03  0.55732933402E+03  0.81114113335E+02 0.  0.
          5    1    5    5  501    0 -0.17145935342E+02  0.47015261473E+02  0.24569195942E+03  0.25078087414E+03  0.47000000000E+01 0. -1.
        -13    1    6    6    0    0  0.22955986930E+02  0.16518700490E+03  0.30793927243E+03  0.35020039896E+03  0.00000000000E+00 0.  1.
         14    1    6    6    0    0 -0.32190863058E+02  0.13159631542E+03  0.15667978123E+03  0.20712893507E+03  0.00000000000E+00 0. -1.
         -5    1    3    3    0  503  0.76806993044E+02 -0.15824529358E+03 -0.21166744867E+01  0.17597572967E+03  0.47000000000E+01 0.  1.
         11    1    4    4    0    0  0.27022129837E+01 -0.10081890086E+03  0.63932555264E+01  0.10105754025E+03  0.00000000000E+00 0. -1.
        -12    1    4    4    0    0 -0.53128394558E+02 -0.84734387346E+02 -0.51613696937E+02  0.11254561928E+03  0.00000000000E+00 0.  1.
</event>
<event>
12    1  0.8356052E-002  0.2157542E+03  0.7818608E-02  0.1137723E+00
         21   -1    0    0  501  502  0.00000000000E+00  0.00000000000E+00  0.30385312794E+03  0.30385312794E+03  0.00000000000E+00 0.  1.
         21   -1    0    0  502  503 -0.00000000000E+00 -0.00000000000E+00 -0.15943229653E+03  0.15943229653E+03  0.00000000000E+00 0. -1.
         -6    2    1    2    0  503  0.93159598042E+02  0.94866693891E+02  0.12641896117E+03  0.25006326949E+03  0.16991611074E+03 0.  0.
        -24    2    3    3    0    0  0.97527227215E+01  0.76302288145E+00  0.19818609591E+02  0.85145311997E+02  0.82226814754E+02 0.  0.
          6    2    1    2  501    0 -0.93159598042E+02 -0.94866693891E+02  0.18001870242E+02  0.21322215498E+03  0.16571427134E+03 0.  0.
         24    2    5    5    0    0 -0.12505008527E+03 -0.99557571106E+02  0.10119562220E+02  0.17970755691E+03  0.81505623616E+02 0.  0.
          5    1    5    5  501    0  0.31890487224E+02  0.46908772149E+01  0.78823080226E+01  0.33514598076E+02  0.47000000000E+01 0. -1.
        -11    1    6    6    0    0 -0.11588852581E+03 -0.53320483197E+02  0.25569899996E+02  0.13010397430E+03  0.00000000000E+00 0.  1.
         12    1    6    6    0    0 -0.91615594519E+01 -0.46237087909E+02 -0.15450337776E+02  0.49603582606E+02  0.00000000000E+00 0. -1.
         -5    1    3    3    0  503  0.83406875320E+02  0.94103671010E+02  0.10660035158E+03  0.16491795750E+03  0.47000000000E+01 0.  1.
         11    1    4    4    0    0  0.31835394948E+01 -0.38728624124E+02 -0.31558965964E+01  0.38987189353E+02  0.00000000000E+00 0. -1.
        -12    1    4    4    0    0  0.65691832267E+01  0.39491647006E+02  0.22974506187E+02  0.46158122644E+02  0.00000000000E+00 0.  1.
</event>
<event>
12    1  0.8356052E-002  0.1727352E+03  0.7818608E-02  0.1175055E+00
         21   -1    0    0  503  502  0.00000000000E+00  0.00000000000E+00  0.24968006133E+03  0.24968006133E+03  0.00000000000E+00 0.  1.
         21   -1    0    0  501  503 -0.00000000000E+00 -0.00000000000E+00 -0.16816833414E+03  0.16816833414E+03  0.00000000000E+00 0.  1.
          6    2    1    2  501    0 -0.12760092938E+02 -0.14352584880E+02 -0.71716851221E+02  0.18703139545E+03  0.17166426382E+03 0.  0.
         24    2    3    3    0    0 -0.68688887308E+02  0.18751042226E+02 -0.36217802864E+02  0.11282794135E+03  0.79678417907E+02 0.  0.
         -6    2    1    2    0  502  0.12760092938E+02  0.14352584880E+02  0.15322857841E+03  0.23081700001E+03  0.17154787550E+03 0.  0.
        -24    2    5    5    0    0  0.71340204350E+02  0.32616065139E+01  0.71474374558E+02  0.12952297698E+03  0.81040437524E+02 0.  0.
          5    1    3    3  501    0  0.55928794370E+02 -0.33103627106E+02 -0.35499048357E+02  0.74203454107E+02  0.47000000000E+01 0. -1.
        -13    1    4    4    0    0  0.18218089586E+02  0.22000410106E+01 -0.51014793531E+01  0.19046366062E+02  0.00000000000E+00 0.  1.
         14    1    4    4    0    0 -0.86906976893E+02  0.16551001216E+02 -0.31116323511E+02  0.93781575284E+02  0.00000000000E+00 0. -1.
         -5    1    5    5    0  502 -0.58580111412E+02  0.11090978366E+02  0.81754203853E+02  0.10129402303E+03  0.47000000000E+01 0.  1.
         11    1    6    6    0    0  0.56606987274E+02 -0.13996677201E+02  0.41293746839E+01  0.58457760102E+02  0.00000000000E+00 0. -1.
        -12    1    6    6    0    0  0.14733217077E+02  0.17258283715E+02  0.67344999874E+02  0.71065216880E+02  0.00000000000E+00 0.  1.
</event>
<event>
12    1  0.8356052E-002  0.1913215E+03  0.7818608E-02  0.1157416E+00
         21   -1    0    0  503  502  0.00000000000E+00  0.00000000000E+00  0.33943766975E+02  0.33943766975E+02  0.00000000000E+00 0. -1.
         21   -1    0    0  501  503 -0.00000000000E+00 -0.00000000000E+00 -0.13688937033E+04  0.13688937033E+04  0.00000000000E+00 0. -1.
          6    2    1    2  501    0 -0.14622141834E+02  0.81383886911E+02 -0.99344381904E+03  0.10116988307E+04  0.17253045641E+03 0.  0.
         24    2    3    3    0    0 -0.33761534427E+02  0.10984305050E+03 -0.57301101147E+03  0.58984331513E+03  0.79800878391E+02 0.  0.
         -6    2    1    2    0  502  0.14622141834E+02 -0.81383886911E+02 -0.34150611729E+03  0.39113863957E+03  0.17183091438E+03 0.  0.
        -24    2    5    5    0    0 -0.47963305149E+02 -0.86666767389E+02 -0.22063781215E+03  0.25484453042E+03  0.80331085681E+02 0.  0.
          5    1    3    3  501    0  0.19139392594E+02 -0.28459163584E+02 -0.42043280758E+03  0.42185551558E+03  0.47000000000E+01 0. -1.
        -13    1    4    4    0    0 -0.46851208857E+02  0.29631540387E+02 -0.17318873559E+03  0.18184444477E+03  0.00000000000E+00 0.  1.
         14    1    4    4    0    0  0.13089674430E+02  0.80211510108E+02 -0.39982227588E+03  0.40799887036E+03  0.00000000000E+00 0. -1.
         -5    1    5    5    0  502  0.62585446983E+02  0.52828804782E+01 -0.12086830514E+03  0.13629410914E+03  0.47000000000E+01 0.  1.
         11    1    6    6    0    0 -0.16386810435E+02 -0.78375433806E+02 -0.20191095094E+03  0.21720789187E+03  0.00000000000E+00 0. -1.
        -12    1    6    6    0    0 -0.31576494714E+02 -0.82913335831E+01 -0.18726861209E+02  0.37636638556E+02  0.00000000000E+00 0.  1.
</event>
<event>
12    1  0.8356052E-002  0.2555002E+03  0.7818608E-02  0.1109965E+00
         21   -1    0    0  501  502  0.00000000000E+00  0.00000000000E+00  0.11634806714E+03  0.11634806714E+03  0.00000000000E+00 0.  1.
         21   -1    0    0  502  503 -0.00000000000E+00 -0.00000000000E+00 -0.77451702543E+03  0.77451702543E+03  0.00000000000E+00 0. -1.
         -6    2    1    2    0  503 -0.43715072177E+02 -0.18311730783E+03 -0.56333510491E+03  0.61833289123E+03  0.17188998806E+03 0.  0.
        -24    2    3    3    0    0 -0.44513486073E+02 -0.54687377453E+02 -0.37720708917E+03  0.39214577240E+03  0.80752455068E+02 0.  0.
          6    2    1    2  501    0  0.43715072177E+02  0.18311730783E+03 -0.94833853383E+02  0.27253220134E+03  0.17273501399E+03 0.  0.
         24    2    5    5    0    0 -0.32416048293E+02  0.13055283013E+03 -0.86928837133E+02  0.17956150111E+03  0.81184162946E+02 0.  0.
          5    1    5    5  501    0  0.76131120470E+02  0.52564477696E+02 -0.79050162502E+01  0.92970700231E+02  0.47000000000E+01 0. -1.
        -11    1    6    6    0    0 -0.25595213984E+02  0.70813398701E+02 -0.17737578652E+01  0.75317983453E+02  0.00000000000E+00 0.  1.
         12    1    6    6    0    0 -0.68208343092E+01  0.59739431428E+02 -0.85155079268E+02  0.10424351766E+03  0.00000000000E+00 0. -1.
         -5    1    3    3    0  503  0.79841389632E+00 -0.12842993037E+03 -0.18612801574E+03  0.22618711883E+03  0.47000000000E+01 0.  1.
         11    1    4    4    0    0 -0.22451215421E+02  0.85283647491E+01 -0.29447282700E+02  0.37999112326E+02  0.00000000000E+00 0. -1.
        -12    1    4    4    0    0 -0.22062270652E+02 -0.63215742202E+02 -0.34775980647E+03  0.35414666008E+03  0.00000000000E+00 0.  1.
</event>
<event>
12    1  0.8356052E-002  0.1982184E+03  0.7818608E-02  0.1153005E+00
         21   -1    0    0  501  502  0.00000000000E+00  0.00000000000E+00  0.37508674405E+03  0.37508674405E+03  0.00000000000E+00 0. -1.
         21   -1    0    0  502  503 -0.00000000000E+00 -0.00000000000E+00 -0.24998039188E+03  0.24998039188E+03  0.00000000000E+00 0.  1.
         -6    2    1    2    0  503 -0.19103910464E+02  0.81462087563E+02 -0.17854620878E+03  0.26677569500E+03  0.17969277021E+03 0.  0.
        -24    2    3    3    0    0 -0.24104960873E+02 -0.49158124043E+01 -0.17614462126E+02  0.83999139636E+02  0.78360524713E+02 0.  0.
          6    2    1    2  501    0  0.19103910464E+02 -0.81462087563E+02  0.30365256095E+03  0.35829144094E+03  0.17078304298E+03 0.  0.
         24    2    5    5    0    0  0.73182181234E+02 -0.68968956203E+02  0.24863233685E+03  0.27999806471E+03  0.80427164219E+02 0.  0.
          5    1    5    5  501    0 -0.54078270770E+02 -0.12493131360E+02  0.55020224102E+02  0.78293376226E+02  0.47000000000E+01 0. -1.
        -11    1    6    6    0    0  0.15912452737E+02 -0.46530958566E+02  0.42870931910E+02  0.65239965205E+02  0.00000000000E+00 0.  1.
         12    1    6    6    0    0  0.57269728497E+02 -0.22437997637E+02  0.20576140494E+03  0.21475809951E+03  0.00000000000E+00 0. -1.
         -5    1    3    3    0  503  0.50010504094E+01  0.86377899967E+02 -0.16093174666E+03  0.18277655536E+03  0.47000000000E+01 0.  1.
         13    1    4    4    0    0 -0.42353034062E+02 -0.81034092033E+01 -0.37265958468E+02  0.56992950402E+02  0.00000000000E+00 0. -1.
        -14    1    4    4    0    0  0.18248073189E+02  0.31875967989E+01  0.19651496342E+02  0.27006189234E+02  0.00000000000E+00 0.  1.
</event>
<event>
12    1  0.8356052E-002  0.1844708E+03  0.7818608E-02  0.1165643E+00
         21   -1    0    0  501  502  0.00000000000E+00  0.00000000000E+00  0.13963705703E+03  0.13963705703E+03  0.00000000000E+00 0. -1.
         21   -1    0    0  502  503 -0.00000000000E+00 -0.00000000000E+00 -0.44890566522E+03  0.44890566522E+03  0.00000000000E+00 0. -1.
         -6    2    1    2    0  503 -0.54164331293E+02  0.45739958135E+01 -0.36094865905E+03  0.40535588392E+03  0.17628035042E+03 0.  0.
        -24    2    3    3    0    0  0.43304456518E+02  0.47010838332E+01 -0.17744775352E+03  0.19752216895E+03  0.75032831857E+02 0.  0.
          6    2    1    2  501    0  0.54164331293E+02 -0.45739958135E+01  0.51680050852E+02  0.18318683832E+03  0.16712837538E+03 0.  0.
         24    2    5    5    0    0 -0.21176350811E+02  0.33809147781E+02  0.30091807358E+01  0.85511725374E+02  0.75575814255E+02 0.  0.
          5    1    5    5  501    0  0.75340682103E+02 -0.38383143595E+02  0.48670870116E+02  0.97675112950E+02  0.47000000000E+01 0. -1.
        -13    1    6    6    0    0 -0.34404336518E+02 -0.33588979505E+01 -0.19904019352E+02  0.39888727142E+02  0.00000000000E+00 0.  1.
         14    1    6    6    0    0  0.13227985707E+02  0.37168045732E+02  0.22913200088E+02  0.45622998231E+02  0.00000000000E+00 0. -1.
         -5    1    3    3    0  503 -0.97468787811E+02 -0.12708801962E+00 -0.18350090553E+03  0.20783371497E+03  0.47000000000E+01 0.  1.
         11    1    4    4    0    0  0.57274637505E+02  0.65449991218E+01 -0.77517214452E+02  0.96603000218E+02  0.00000000000E+00 0. -1.
        -12    1    4    4    0    0 -0.13970180987E+02 -0.18439152887E+01 -0.99930539065E+02  0.10091916874E+03  0.00000000000E+00 0.  1.
</event>
<event>
12    1  0.8356052E-002  0.2163868E+03  0.7818608E-02  0.1136769E+00
         21   -1    0    0  503  502  0.00000000000E+00  0.00000000000E+00  0.22090854830E+03  0.22090854830E+03  0.00000000000E+00 0.  1.
         21   -1    0    0  501  503 -0.00000000000E+00 -0.00000000000E+00 -0.21218461690E+03  0.21218461690E+03  0.00000000000E+00 0. -1.
          6    2    1    2  501    0 -0.74715025513E+02  0.10679570191E+03 -0.10951911872E+02  0.21666381000E+03  0.17272986194E+03 0.  0.
         24    2    3    3    0    0 -0.16773224910E+02  0.72917385341E+02  0.55420135596E+02  0.12215279860E+03  0.79067241117E+02 0.  0.
         -6    2    1    2    0  502  0.74715025513E+02 -0.10679570191E+03  0.19675843270E+02  0.21642935519E+03  0.17165916812E+03 0.  0.
        -24    2    5    5    0    0 -0.18057472257E+02 -0.87074849530E+02  0.17232614389E+02  0.12143615687E+03  0.80880624819E+02 0.  0.
          5    1    3    3  501    0 -0.57941800603E+02  0.33878316566E+02 -0.66372047468E+02  0.94511011399E+02  0.47000000000E+01 0. -1.
        -13    1    4    4    0    0  0.25946143521E+02  0.51949176591E+02  0.15665022360E+02  0.60144095617E+02  0.00000000000E+00 0.  1.
         14    1    4    4    0    0 -0.42719368431E+02  0.20968208750E+02  0.39755113237E+02  0.62008702985E+02  0.00000000000E+00 0. -1.
         -5    1    5    5    0  502  0.92772497770E+02 -0.19720852377E+02  0.24432288813E+01  0.94993198327E+02  0.47000000000E+01 0.  1.
         11    1    6    6    0    0 -0.22615302929E+02 -0.12969505801E+01 -0.17657914811E+02  0.28721698467E+02  0.00000000000E+00 0. -1.
        -12    1    6    6    0    0  0.45578306716E+01 -0.85777898950E+02  0.34890529200E+02  0.92714458401E+02  0.00000000000E+00 0.  1.
</event>
<event>
12    1  0.8356052E-002  0.2040363E+03  0.7818608E-02  0.1147087E+00
         21   -1    0    0  503  502  0.00000000000E+00  0.00000000000E+00  0.20064478241E+02  0.20064478241E+02  0.00000000000E+00 0.  1.
         21   -1    0    0  501  503 -0.00000000000E+00 -0.00000000000E+00 -0.20670860845E+04  0.20670860845E+04  0.00000000000E+00 0.  1.
          6    2    1    2  501    0  0.10282466541E+03  0.12611407180E+02 -0.11339177574E+04  0.11515280596E+04  0.17180055936E+03 0.  0.
         24    2    3    3    0    0  0.13422886092E+03 -0.16990911056E+02 -0.89778590413E+03  0.91143877860E+03  0.79968989812E+02 0.  0.
         -6    2    1    2    0  502 -0.10282466541E+03 -0.12611407180E+02 -0.91310384893E+03  0.93562250317E+03  0.17578074438E+03 0.  0.
        -24    2    5    5    0    0 -0.50879193254E+02 -0.70335293121E+02 -0.67554178562E+03  0.68564609826E+03  0.78855070718E+02 0.  0.
          5    1    3    3  501    0 -0.31404195510E+02  0.29602318236E+02 -0.23613185325E+03  0.24008928102E+03  0.47000000000E+01 0. -1.
        -13    1    4    4    0    0  0.10147735850E+03  0.20956950743E+02 -0.68726085012E+03  0.69502829020E+03  0.00000000000E+00 0.  1.
         14    1    4    4    0    0  0.32751502424E+02 -0.37947861800E+02 -0.21052505400E+03  0.21641048840E+03  0.00000000000E+00 0. -1.
         -5    1    5    5    0  502 -0.51945472157E+02  0.57723885941E+02 -0.23756206332E+03  0.24997640491E+03  0.47000000000E+01 0.  1.
         11    1    6    6    0    0  0.12768002015E+02 -0.36099570680E+01 -0.24407869093E+03  0.24443907427E+03  0.00000000000E+00 0. -1.
        -12    1    6    6    0    0 -0.63647195269E+02 -0.66725336053E+02 -0.43146309468E+03  0.44120702398E+03  0.00000000000E+00 0.  1.
</event>
<event>
12    1  0.8356052E-002  0.2034272E+03  0.7818608E-02  0.1148665E+00
         21   -1    0    0  503  502  0.00000000000E+00  0.00000000000E+00  0.87030421379E+02  0.87030421379E+02  0.00000000000E+00 0. -1.
         21   -1    0    0  501  503 -0.00000000000E+00 -0.00000000000E+00 -0.15212273695E+04  0.15212273695E+04  0.00000000000E+00 0. -1.
          6    2    1    2  501    0  0.28071522793E+02  0.86903348019E+02 -0.13854109894E+04  0.13990624225E+04  0.17225518883E+03 0.  0.
         24    2    3    3    0    0  0.67950880256E+02  0.99083073032E+02 -0.12167299866E+04  0.12252404458E+04  0.79671276532E+02 0.  0.
         -6    2    1    2    0  502 -0.28071522793E+02 -0.86903348019E+02 -0.48785958707E+02  0.20919536841E+03  0.18177576876E+03 0.  0.
        -24    2    5    5    0    0 -0.90267313188E+01  0.37546932992E+02 -0.45789290417E+01  0.75677848971E+02  0.64922385802E+02 0.  0.
          5    1    3    3  501    0 -0.39879357464E+02 -0.12179725013E+02 -0.16868100282E+03  0.17382197665E+03  0.47000000000E+01 0. -1.
        -13    1    4    4    0    0  0.24557507517E+02  0.72139933188E+02 -0.41875792894E+03  0.42563534180E+03  0.00000000000E+00 0.  1.
         14    1    4    4    0    0  0.43393372740E+02  0.26943139844E+02 -0.79797205768E+03  0.79960510405E+03  0.00000000000E+00 0. -1.
         -5    1    5    5    0  502 -0.19044791474E+02 -0.12445028101E+03 -0.44207029665E+02  0.13351751944E+03  0.47000000000E+01 0.  1.
         13    1    6    6    0    0 -0.25352903873E+02 -0.80308400282E+01 -0.59212067778E+01  0.27245638477E+02  0.00000000000E+00 0. -1.
        -14    1    6    6    0    0  0.16326172554E+02  0.45577773020E+02  0.13422777361E+01  0.48432210494E+02  0.00000000000E+00 0.  1.
</event>
<event>
12    1  0.8356052E-002  0.1767158E+03  0.7818608E-02  0.1171519E+00
         21   -1    0    0  501  502  0.00000000000E+00  0.00000000000E+00  0.56982945857E+03  0.56982945857E+03  0.00000000000E+00 0. -1.
         21   -1    0    0  502  503 -0.00000000000E+00 -0.00000000000E+00 -0.13851900558E+03  0.13851900558E+03  0.00000000000E+00 0. -1.
         -6    2    1    2    0  503  0.33853838995E+02  0.19849069922E+02 -0.61177786844E+02  0.18511510401E+03  0.17024926472E+03 0.  0.
        -24    2    3    3    0    0  0.13067270873E+02  0.57948022256E+02 -0.88858243544E+02  0.13342458973E+03  0.79859920154E+02 0.  0.
          6    2    1    2  501    0 -0.33853838995E+02 -0.19849069922E+02  0.49248823984E+03  0.52323336014E+03  0.17230326402E+03 0.  0.
         24    2    5    5    0    0 -0.12815558322E+02 -0.75703466854E+02  0.32874911259E+03  0.34889198610E+03  0.88058988791E+02 0.  0.
          5    1    5    5  501    0 -0.21038280672E+02  0.55854396932E+02  0.16373912725E+03  0.17434137404E+03  0.47000000000E+01 0. -1.
        -13    1    6    6    0    0 -0.28515496820E+02 -0.10845022023E+02  0.30023929083E+02  0.42804022932E+02  0.00000000000E+00 0.  1.
         14    1    6    6    0    0  0.15699938497E+02 -0.64858444831E+02  0.29872518351E+03  0.30608796317E+03  0.00000000000E+00 0. -1.
         -5    1    3    3    0  503  0.20786568122E+02 -0.38098952335E+02  0.27680456700E+02  0.51690514279E+02  0.47000000000E+01 0.  1.
         11    1    4    4    0    0 -0.51420325031E+01 -0.19384048687E+02 -0.19218826816E+02  0.27776701495E+02  0.00000000000E+00 0. -1.
        -12    1    4    4    0    0  0.18209303376E+02  0.77332070944E+02 -0.69639416729E+02  0.10564788823E+03  0.00000000000E+00 0.  1.
</event>
<event>
12    1  0.8356052E-002  0.1989605E+03  0.7818608E-02  0.1151197E+00
         21   -1    0    0  501  502  0.00000000000E+00  0.00000000000E+00  0.12843803358E+03  0.12843803358E+03  0.00000000000E+00 0. -1.
         21   -1    0    0  502  503 -0.00000000000E+00 -0.00000000000E+00 -0.52484477413E+03  0.52484477413E+03  0.00000000000E+00 0.  1.
         -6    2    1    2    0  503  0.23026183406E+02  0.93459520266E+02 -0.41085157701E+03  0.45649130837E+03  0.17412756599E+03 0.  0.
        -24    2    3    3    0    0  0.32860498578E+01 -0.79607735780E+01 -0.99172075938E+02  0.12809832692E+03  0.80622011108E+02 0.  0.
          6    2    1    2  501    0 -0.23026183406E+02 -0.93459520266E+02  0.14444836466E+02  0.19679149934E+03  0.17103611858E+03 0.  0.
         24    2    5    5    0    0 -0.26924448185E+02 -0.13025176896E+03  0.27985137454E+02  0.15711410296E+03  0.78811320275E+02 0.  0.
          5    1    5    5  501    0  0.38982647793E+01  0.36792248695E+02 -0.13540300988E+02  0.39677396376E+02  0.47000000000E+01 0. -1.
        -13    1    6    6    0    0 -0.33685748637E+02 -0.11407403514E+02  0.63144763494E+01  0.36121062107E+02  0.00000000000E+00 0.  1.
         14    1    6    6    0    0  0.67613004524E+01 -0.11884436545E+03  0.21670661105E+02  0.12099304085E+03  0.00000000000E+00 0. -1.
         -5    1    3    3    0  503  0.19740133548E+02  0.10142029384E+03 -0.31167950107E+03  0.32839298145E+03  0.47000000000E+01 0.  1.
         13    1    4    4    0    0 -0.17694004720E+02 -0.16189751517E+02  0.23566258637E+01  0.24098538185E+02  0.00000000000E+00 0. -1.
        -14    1    4    4    0    0  0.20980054578E+02  0.82289779385E+01 -0.10152870180E+03  0.10399978874E+03  0.00000000000E+00 0.  1.
</event>
<event>
12    1  0.8356052E-002  0.2798219E+03  0.7818608E-02  0.1095900E+00
         21   -1    0    0  503  502  0.00000000000E+00  0.00000000000E+00  0.49629613495E+03  0.49629613495E+03  0.00000000000E+00 0.  1.
         21   -1    0    0  501  503 -0.00000000000E+00 -0.00000000000E+00 -0.68932991260E+03  0.68932991260E+03  0.00000000000E+00 0.  1.
          6    2    1    2  501    0 -0.13024971891E+03  0.17827519233E+03 -0.61734992525E+03  0.67780617767E+03  0.17191058957E+03 0.  0.
         24    2    3    3    0    0 -0.14165464647E+03  0.95004277981E+02 -0.49171092408E+03  0.52657335662E+03  0.80050080191E+02 0.  0.
         -6    2    1    2    0  502  0.13024971891E+03 -0.17827519233E+03  0.42431614761E+03  0.50781986988E+03  0.17055730311E+03 0.  0.
        -24    2    5    5    0    0  0.29320903048E+02 -0.26332077336E+02  0.79951011621E+02  0.11809846560E+03  0.77472509099E+02 0.  0.
          5    1    3    3  501    0  0.11404927558E+02  0.83270914345E+02 -0.12563900118E+03  0.15123282106E+03  0.47000000000E+01 0. -1.
        -11    1    4    4    0    0 -0.88765168904E+02  0.39098639456E+02 -0.16941350736E+03  0.19521499761E+03  0.00000000000E+00 0.  1.
         12    1    4    4    0    0 -0.52889477566E+02  0.55905638526E+02 -0.32229741672E+03  0.33135835901E+03  0.00000000000E+00 0. -1.
         -5    1    5    5    0  502  0.10092881586E+03 -0.15194311499E+03  0.34436513599E+03  0.38972140427E+03  0.47000000000E+01 0.  1.
         11    1    6    6    0    0  0.92344737168E+01 -0.23779777345E+02  0.91361945299E+02  0.94856514611E+02  0.00000000000E+00 0. -1.
        -12    1    6    6    0    0  0.20086429331E+02 -0.25522999911E+01 -0.11410933677E+02  0.23241950992E+02  0.00000000000E+00 0.  1.
</event>
<event>
12    1  0.8356052E-002  0.2049388E+03  0.7818608E-02  0.1145690E+00
         21   -1    0    0  503  502  0.00000000000E+00  0.00000000000E+00  0.49445212722E+03  0.49445212722E+03  0.00000000000E+00 0. -1.
         21   -1    0    0  501  503 -0.00000000000E+00 -0.00000000000E+00 -0.86251446091E+02  0.86251446091E+02  0.00000000000E+00 0. -1.
          6    2    1    2  501    0  0.88360483027E+02 -0.66205537510E+02  0.16677768296E+03  0.26402557065E+03  0.17234836311E+03 0.  0.
         24    2    3    3    0    0  0.50980872571E+01  0.12874095335E+02  0.10481964350E+03  0.13346101369E+03  0.81442935162E+02 0.  0.
         -6    2    1    2    0  502 -0.88360483027E+02  0.66205537510E+02  0.24142299817E+03  0.31667800266E+03  0.17265325125E+03 0.  0.
        -24    2    5    5    0    0 -0.88559164764E+02 -0.92263181115E+01  0.10013424408E+03  0.15644502744E+03  0.80748555176E+02 0.  0.
          5    1    3    3  501    0  0.83262395770E+02 -0.79079632845E+02  0.61958039464E+02  0.13056455696E+03  0.47000000000E+01 0. -1.
        -13    1    4    4    0    0  0.97449739425E+01 -0.32070361143E+02  0.65440721330E+02  0.73525237770E+02  0.00000000000E+00 0.  1.
         14    1    4    4    0    0 -0.46468866854E+01  0.44944456479E+02  0.39378922166E+02  0.59935775919E+02  0.00000000000E+00 0. -1.
         -5    1    5    5    0  502  0.19868173688E+00  0.75431855621E+02  0.14128875409E+03  0.16023297523E+03  0.47000000000E+01 0.  1.
         11    1    6    6    0    0 -0.60814884211E+02 -0.37364383379E+02  0.91413621305E+02  0.11597843527E+03  0.00000000000E+00 0. -1.
        -12    1    6    6    0    0 -0.27744280553E+02  0.28138065267E+02  0.87206227758E+01  0.40466592172E+02  0.00000000000E+00 0.  1.
</event>
<event>
12    1  0.8356052E-002  0.1966314E+03  0.7818608E-02  0.1153037E+00
         21   -1    0    0  503  502  0.00000000000E+00  0.00000000000E+00  0.35619867746E+03  0.35619867746E+03  0.00000000000E+00 0. -1.
         21   -1    0    0  501  503 -0.00000000000E+00 -0.00000000000E+00 -0.17318386776E+03  0.17318386776E+03  0.00000000000E+00 0. -1.
          6    2    1    2  501    0 -0.41184740399E+02 -0.81444566367E+02 -0.71827369298E+02  0.20749987013E+03  0.17195239136E+03 0.  0.
         24    2    3    3    0    0 -0.41749547076E+01 -0.60971945986E+02  0.24516128563E+02  0.10217650140E+03  0.78128025918E+02 0.  0.
         -6    2    1    2    0  502  0.41184740399E+02  0.81444566367E+02  0.25484217900E+03  0.32188267509E+03  0.17416808002E+03 0.  0.
        -24    2    5    5    0    0  0.65908179947E+02  0.60656374468E+02  0.81349829927E+02  0.14534632594E+03  0.80527484058E+02 0.  0.
          5    1    3    3  501    0 -0.37009785691E+02 -0.20472620381E+02 -0.96343497861E+02  0.10532336874E+03  0.47000000000E+01 0. -1.
        -13    1    4    4    0    0  0.10121727600E+02  0.24241361579E+01  0.34850811955E+02  0.36371759645E+02  0.00000000000E+00 0.  1.
         14    1    4    4    0    0 -0.14296682307E+02 -0.63396082144E+02 -0.10334683392E+02  0.65804741752E+02  0.00000000000E+00 0. -1.
         -5    1    5    5    0  502 -0.24723439548E+02  0.20788191899E+02  0.17349234907E+03  0.17653634915E+03  0.47000000000E+01 0.  1.
         11    1    6    6    0    0 -0.91242964011E+01  0.10882739238E+02  0.46795688578E+02  0.48903203041E+02  0.00000000000E+00 0. -1.
        -12    1    6    6    0    0  0.75032476348E+02  0.49773635231E+02  0.34554141349E+02  0.96443122904E+02  0.00000000000E+00 0.  1.
</event>
<event>
12    1  0.8356052E-002  0.2256024E+03  0.7818608E-02  0.1129873E+00
         21   -1    0    0  501  502  0.00000000000E+00  0.00000000000E+00  0.12945037259E+03  0.12945037259E+03  0.00000000000E+00 0. -1.
         21   -1    0    0  502  503 -0.00000000000E+00 -0.00000000000E+00 -0.41345542880E+03  0.41345542880E+03  0.00000000000E+00 0. -1.
         -6    2    1    2    0  503  0.14649146896E+03 -0.31679182231E+01 -0.80637819662E+02  0.23958064331E+03  0.17154194969E+03 0.  0.
        -24    2    3    3    0    0  0.87176656137E+02 -0.39257593301E+02 -0.10829497515E+03  0.16469593247E+03  0.79095009477E+02 0.  0.
          6    2    1    2  501    0 -0.14649146896E+03  0.31679182231E+01 -0.20336723655E+03  0.30332515807E+03  0.17081607780E+03 0.  0.
         24    2    5    5    0    0 -0.61878792631E+02  0.10534243936E+02 -0.19247032308E+03  0.21756735683E+03  0.79691744991E+02 0.  0.
          5    1    5    5  501    0 -0.84612676330E+02 -0.73663257132E+01 -0.10896913469E+02  0.85757801240E+02  0.47000000000E+01 0. -1.
        -13    1    6    6    0    0 -0.28062231363E+02 -0.19756489683E+02 -0.15484726559E+03  0.15860480249E+03  0.00000000000E+00 0.  1.
         14    1    6    6    0    0 -0.33816561268E+02  0.30290733619E+02 -0.37623057492E+02  0.58962554339E+02  0.00000000000E+00 0. -1.
         -5    1    3    3    0  503  0.59314812824E+02  0.36089675078E+02  0.27657155485E+02  0.74884710837E+02  0.47000000000E+01 0.  1.
         11    1    4    4    0    0  0.95416143833E+02 -0.46875589485E+02 -0.76482552026E+02  0.13096236924E+03  0.00000000000E+00 0. -1.
        -12    1    4    4    0    0 -0.82394876959E+01  0.76179961836E+01 -0.31812423122E+02  0.33733563230E+02  0.00000000000E+00 0.  1.
</event>
<event>
12    1  0.8356052E-002  0.2244492E+03  0.7818608E-02  0.1130916E+00
         21   -1    0    0  501  502  0.00000000000E+00  0.00000000000E+00  0.43733027013E+03  0.43733027013E+03  0.00000000000E+00 0. -1.
         21   -1    0    0  502  503 -0.00000000000E+00 -0.00000000000E+00 -0.11738477755E+03  0.11738477755E+03  0.00000000000E+00 0. -1.
         -6    2    1    2    0  503  0.76379015813E+02  0.12361859752E+03  0.20413574256E+03  0.30214948723E+03  0.16884193654E+03 0.  0.
        -24    2    3    3    0    0  0.45649039078E+02  0.14546248100E+03  0.19996103900E+03  0.26392639387E+03  0.80184512938E+02 0.  0.
          6    2    1    2  501    0 -0.76379015813E+02 -0.12361859752E+03  0.11580975002E+03  0.25256556045E+03  0.17106183799E+03 0.  0.
         24    2    5    5    0    0 -0.60657355750E+02 -0.11660334336E+02  0.17175021425E+02  0.10245652350E+03  0.79919206971E+02 0.  0.
          5    1    5    5  501    0 -0.15721660064E+02 -0.11195826318E+03  0.98634728597E+02  0.15010903695E+03  0.47000000000E+01 0. -1.
        -13    1    6    6    0    0 -0.24158993605E+02  0.30260974702E+02  0.25340258641E+02  0.46276476421E+02  0.00000000000E+00 0.  1.
         14    1    6    6    0    0 -0.36498362145E+02 -0.41921309038E+02 -0.81652372160E+01  0.56180047077E+02  0.00000000000E+00 0. -1.
         -5    1    3    3    0  503  0.30729976736E+02 -0.21843883485E+02  0.41747035520E+01  0.38223093355E+02  0.47000000000E+01 0.  1.
         13    1    4    4    0    0  0.58137824072E+02  0.74999687300E+02  0.79418712925E+02  0.12374284483E+03  0.00000000000E+00 0. -1.
        -14    1    4    4    0    0 -0.12488784994E+02  0.70462793703E+02  0.12054232608E+03  0.14018354905E+03  0.00000000000E+00 0.  1.
</event>
<event>
12    1  0.8356052E-002  0.3461604E+03  0.7818608E-02  0.1064244E+00
         21   -1    0    0  501  502  0.00000000000E+00  0.00000000000E+00  0.19179089880E+03  0.19179089880E+03  0.00000000000E+00 0.  1.
         21   -1    0    0  502  503 -0.00000000000E+00 -0.00000000000E+00 -0.65922846347E+03  0.65922846347E+03  0.00000000000E+00 0. -1.
         -6    2    1    2    0  503  0.24355088228E+03  0.17559302903E+03 -0.33187690180E+03  0.47926175272E+03  0.17146313181E+03 0.  0.
        -24    2    3    3    0    0  0.22252293353E+03  0.20161204463E+03 -0.31258641821E+03  0.44035961192E+03  0.77733174853E+02 0.  0.
          6    2    1    2  501    0 -0.24355088228E+03 -0.17559302903E+03 -0.13556066286E+03  0.37175760954E+03  0.17227037712E+03 0.  0.
         24    2    5    5    0    0 -0.19199632910E+03 -0.84501655255E+02 -0.14355265070E+03  0.26667919977E+03  0.80667911482E+02 0.  0.
          5    1    5    5  501    0 -0.51554553181E+02 -0.91091373774E+02  0.79919878306E+01  0.10507840977E+03  0.47000000000E+01 0. -1.
        -11    1    6    6    0    0 -0.12095372329E+03 -0.93589369793E+02 -0.10283165229E+03  0.18429086258E+03  0.00000000000E+00 0.  1.
         12    1    6    6    0    0 -0.71042605804E+02  0.90877145382E+01 -0.40720998406E+02  0.82388337197E+02  0.00000000000E+00 0. -1.
         -5    1    3    3    0  503  0.21027948747E+02 -0.26019015605E+02 -0.19290483591E+02  0.38902140799E+02  0.47000000000E+01 0.  1.
         13    1    4    4    0    0  0.44785393243E+02  0.67182458924E+01 -0.59841044672E+02  0.75045432261E+02  0.00000000000E+00 0. -1.
        -14    1    4    4    0    0  0.17773754029E+03  0.19489379874E+03 -0.25274537354E+03  0.36531417966E+03  0.00000000000E+00 0.  1.
</event>
<event>
12    1  0.8356052E-002  0.2995130E+03  0.7818608E-02  0.1085550E+00
         21   -1    0    0  503  502  0.00000000000E+00  0.00000000000E+00  0.21384344919E+03  0.21384344919E+03  0.00000000000E+00 0.  1.
         21   -1    0    0  501  503 -0.00000000000E+00 -0.00000000000E+00 -0.47904771407E+03  0.47904771407E+03  0.00000000000E+00 0.  1.
          6    2    1    2  501    0  0.19708726370E+03  0.14563066152E+03 -0.25560215874E+03  0.39375181872E+03  0.17221019746E+03 0.  0.
         24    2    3    3    0    0  0.16379249781E+03  0.10017008617E+03 -0.26418731374E+03  0.33655915981E+03  0.81333282282E+02 0.  0.
         -6    2    1    2    0  502 -0.19708726370E+03 -0.14563066152E+03 -0.96021061438E+01  0.29913934454E+03  0.17129059495E+03 0.  0.
        -24    2    5    5    0    0 -0.26138358870E+02 -0.47752302322E+02 -0.28474999737E+02  0.10119496504E+03  0.80412058534E+02 0.  0.
          5    1    3    3  501    0  0.33294765887E+02  0.45460575355E+02  0.85851550050E+01  0.57192658913E+02  0.47000000000E+01 0. -1.
        -13    1    4    4    0    0  0.13007159633E+03  0.34779798845E+02 -0.16213383524E+03  0.21075017226E+03  0.00000000000E+00 0.  1.
         14    1    4    4    0    0  0.33720901483E+02  0.65390287323E+02 -0.10205347851E+03  0.12580898755E+03  0.00000000000E+00 0. -1.
         -5    1    5    5    0  502 -0.17094890483E+03 -0.97878359202E+02  0.18872893594E+02  0.19794437950E+03  0.47000000000E+01 0.  1.
         13    1    6    6    0    0 -0.52821348662E+02 -0.42775305006E+02 -0.10845626605E+02  0.68829130529E+02  0.00000000000E+00 0. -1.
        -14    1    6    6    0    0  0.26682989792E+02 -0.49769973159E+01 -0.17629373133E+02  0.32365834511E+02  0.00000000000E+00 0.  1.
</event>
<event>
12    1  0.8356052E-002  0.2245068E+03  0.7818608E-02  0.1130705E+00
         21   -1    0    0  503  502  0.00000000000E+00  0.00000000000E+00  0.20630443523E+03  0.20630443523E+03  0.00000000000E+00 0.  1.
         21   -1    0    0  501  503 -0.00000000000E+00 -0.00000000000E+00 -0.25486213141E+03  0.25486213141E+03  0.00000000000E+00 0. -1.
          6    2    1    2  501    0 -0.63524863022E+02 -0.13024849242E+03  0.24464171760E+02  0.22508293795E+03  0.17048095277E+03 0.  0.
         24    2    3    3    0    0 -0.52488585559E+02 -0.16291662336E+03  0.23303254957E+02  0.19026277242E+03  0.79749627561E+02 0.  0.
         -6    2    1    2    0  502  0.63524863022E+02  0.13024849242E+03 -0.73021867948E+02  0.23608362869E+03  0.17147363802E+03 0.  0.
        -24    2    5    5    0    0  0.65505768573E+01  0.14305767598E+03 -0.68458748925E+02  0.17732091498E+03  0.79042380212E+02 0.  0.
          5    1    3    3  501    0 -0.11036277463E+02  0.32668130942E+02  0.11609168025E+01  0.34820165526E+02  0.47000000000E+01 0. -1.
        -13    1    4    4    0    0 -0.65192852901E+02 -0.16231403670E+03  0.16125788953E+02  0.17565874772E+03  0.00000000000E+00 0.  1.
         14    1    4    4    0    0  0.12704267343E+02 -0.60258666216E+00  0.71774660037E+01  0.14604024707E+02  0.00000000000E+00 0. -1.
         -5    1    5    5    0  502  0.56974286164E+02 -0.12809183562E+02 -0.45631190230E+01  0.58762713711E+02  0.47000000000E+01 0.  1.
         13    1    6    6    0    0  0.10943554036E+02  0.25269302868E+02 -0.51279182447E+02  0.58205271195E+02  0.00000000000E+00 0. -1.
        -14    1    6    6    0    0 -0.43929771784E+01  0.11778837312E+03 -0.17179566478E+02  0.11911564378E+03  0.00000000000E+00 0.  1.
</event>
<event>
12    1  0.8356052E-002  0.1796053E+03  0.7818608E-02  0.1168645E+00
         21   -1    0    0  501  502  0.00000000000E+00  0.00000000000E+00  0.18457630173E+04  0.18457630173E+04  0.00000000000E+00 0. -1.
         21   -1    0    0  502  503 -0.00000000000E+00 -0.00000000000E+00 -0.30538116299E+02  0.30538116299E+02  0.00000000000E+00 0. -1.
         -6    2    1    2    0  503 -0.43132799616E+02  0.21904087712E+02  0.28708293561E+03  0.33764069526E+03  0.17100994040E+03 0.  0.
        -24    2    3    3    0    0 -0.27657419784E+02  0.42982219493E+02  0.71498368804E+02  0.12042520211E+03  0.82327446815E+02 0.  0.
          6    2    1    2  501    0  0.43132799616E+02 -0.21904087712E+02  0.15281419654E+04  0.15386604384E+04  0.17296777348E+03 0.  0.
         24    2    5    5    0    0  0.50553171839E+02  0.49981929338E+02  0.94746121024E+03  0.95348107202E+03  0.79934931886E+02 0.  0.
          5    1    5    5  501    0 -0.74203722230E+01 -0.71886017050E+02  0.58068075516E+03  0.58517936633E+03  0.47000000000E+01 0. -1.
        -13    1    6    6    0    0  0.43594441130E+02  0.11139598235E+02  0.20087289054E+03  0.20585063542E+03  0.00000000000E+00 0.  1.
         14    1    6    6    0    0  0.69587307092E+01  0.38842331103E+02  0.74658831970E+03  0.74763043660E+03  0.00000000000E+00 0. -1.
         -5    1    3    3    0  503 -0.15475379832E+02 -0.21078131781E+02  0.21558456681E+03  0.21721549316E+03  0.47000000000E+01 0.  1.
         11    1    4    4    0    0  0.59250232537E+01  0.59162477169E+02  0.47363892336E+02  0.76017385528E+02  0.00000000000E+00 0. -1.
        -12    1    4    4    0    0 -0.33582443038E+02 -0.16180257676E+02  0.24134476469E+02  0.44407816578E+02  0.00000000000E+00 0.  1.
</event>
<event>
12    1  0.8356052E-002  0.3084978E+03  0.7818608E-02  0.1081158E+00
         21   -1    0    0  503  502  0.00000000000E+00  0.00000000000E+00  0.15372274854E+03  0.15372274854E+03  0.00000000000E+00 0.  1.
         21   -1    0    0  501  503 -0.00000000000E+00 -0.00000000000E+00 -0.73284430034E+03  0.73284430034E+03  0.00000000000E+00 0. -1.
          6    2    1    2  501    0 -0.71685803739E+02  0.24579693403E+03 -0.46504427872E+03  0.55765293927E+03  0.17075020431E+03 0.  0.
         24    2    3    3    0    0 -0.29630806873E+01  0.37821502613E+02 -0.13562861376E+03  0.16203524116E+03  0.80131470729E+02 0.  0.
         -6    2    1    2    0  502  0.71685803739E+02 -0.24579693403E+03 -0.11407727308E+03  0.32891410960E+03  0.17209264954E+03 0.  0.
        -24    2    5    5    0    0 -0.11601244571E+02 -0.16209054404E+03 -0.28375897643E+02  0.18293360442E+03  0.79066925554E+02 0.  0.
          5    1    3    3  501    0 -0.68722723052E+02  0.20797543142E+03 -0.32941566496E+03  0.39561769811E+03  0.47000000000E+01 0. -1.
        -11    1    4    4    0    0  0.58914002684E+01  0.34571384819E+02 -0.10579334353E+02  0.36630746113E+02  0.00000000000E+00 0.  1.
         12    1    4    4    0    0 -0.88544809557E+01  0.32501177935E+01 -0.12504927940E+03  0.12540449505E+03  0.00000000000E+00 0. -1.
         -5    1    5    5    0  502  0.83287048310E+02 -0.83706389994E+02 -0.85701375440E+02  0.14598050519E+03  0.47000000000E+01 0.  1.
         11    1    6    6    0    0 -0.29771934984E+02 -0.51051979072E+02 -0.37591444847E+02  0.70041340689E+02  0.00000000000E+00 0. -1.
        -12    1    6    6    0    0  0.18170690413E+02 -0.11103856496E+03  0.92155472043E+01  0.11289226373E+03  0.00000000000E+00 0.  1.
</event>
<event>
12    1  0.8356052E-002  0.4859128E+03  0.7818608E-02  0.1017658E+00
         21   -1    0    0  503  502  0.00000000000E+00  0.00000000000E+00  0.32567395078E+04  0.32567395078E+04  0.00000000000E+00 0. -1.
         21   -1    0    0  501  503 -0.00000000000E+00 -0.00000000000E+00 -0.94518222436E+02  0.94518222436E+02  0.00000000000E+00 0.  1.
          6    2    1    2  501    0  0.22779950950E+03 -0.39060233717E+03  0.76938738673E+03  0.90998253305E+03  0.17790013284E+03 0.  0.
         24    2    3    3    0    0  0.32208262965E+02 -0.13006618334E+03  0.19398119126E+03  0.24873416598E+03  0.79280505222E+02 0.  0.
         -6    2    1    2    0  502 -0.22779950950E+03  0.39060233717E+03  0.23928338987E+04  0.24412751972E+04  0.17235927482E+03 0.  0.
        -24    2    5    5    0    0 -0.23921217159E+03  0.37092374948E+03  0.23513964903E+04  0.23937710450E+04  0.79167355185E+02 0.  0.
          5    1    3    3  501    0  0.19559124653E+03 -0.26053615383E+03  0.57540619547E+03  0.66124836707E+03  0.47000000000E+01 0. -1.
        -13    1    4    4    0    0  0.39381344209E+02 -0.55985476269E+02  0.44197254710E+02  0.81477979533E+02  0.00000000000E+00 0.  1.
         14    1    4    4    0    0 -0.71730812437E+01 -0.74080707074E+02  0.14978393655E+03  0.16725618644E+03  0.00000000000E+00 0. -1.
         -5    1    5    5    0  502  0.11412662089E+02  0.19678587689E+02  0.41437408333E+02  0.47504152227E+02  0.47000000000E+01 0.  1.
         13    1    6    6    0    0 -0.26876743711E+02  0.69383592849E+02  0.54997426931E+03  0.55498480989E+03  0.00000000000E+00 0. -1.
        -14    1    6    6    0    0 -0.21233542788E+03  0.30154015663E+03  0.18014222210E+04  0.18387862351E+04  0.00000000000E+00 0.  1.
</event>
<event>
12    1  0.8356052E-002  0.2202325E+03  0.7818608E-02  0.1133800E+00
         21   -1    0    0  501  502  0.00000000000E+00  0.00000000000E+00  0.23324329732E+03  0.23324329732E+03  0.00000000000E+00 0.  1.
         21   -1    0    0  502  503 -0.00000000000E+00 -0.00000000000E+00 -0.22234406381E+03  0.22234406381E+03  0.00000000000E+00 0.  1.
         -6    2    1    2    0  503  0.96221414655E+02  0.97854611648E+02 -0.53416373570E+02  0.22661783686E+03  0.17224473681E+03 0.  0.
        -24    2    3    3    0    0  0.28691657324E+02  0.86238430605E+02  0.23797216570E+02  0.12327746581E+03  0.79816965277E+02 0.  0.
          6    2    1    2  501    0 -0.96221414655E+02 -0.97854611648E+02  0.64315607075E+02  0.22896952427E+03  0.17162884394E+03 0.  0.
         24    2    5    5    0    0  0.17295936917E+02 -0.53895768821E+02  0.72104425209E+02  0.10689854222E+03  0.54994062073E+02 0.  0.
          5    1    5    5  501    0 -0.11351735157E+03 -0.43958842827E+02 -0.77888181344E+01  0.12207098205E+03  0.47000000000E+01 0. -1.
        -11    1    6    6    0    0 -0.34755370876E+01  0.58752053641E+01 -0.40097382239E+01  0.79167794425E+01  0.00000000000E+00 0.  1.
         12    1    6    6    0    0  0.20771474004E+02 -0.59770974185E+02  0.76114163433E+02  0.98981762777E+02  0.00000000000E+00 0. -1.
         -5    1    3    3    0  503  0.67529757331E+02  0.11616181043E+02 -0.77213590140E+02  0.10334037105E+03  0.47000000000E+01 0.  1.
         13    1    4    4    0    0  0.40173648661E+02  0.41380836240E+02  0.44214589305E+02  0.72672041131E+02  0.00000000000E+00 0. -1.
        -14    1    4    4    0    0 -0.11481991337E+02  0.44857594364E+02 -0.20417372735E+02  0.50605424676E+02  0.00000000000E+00 0.  1.
</event>
<event>
12    1  0.8356052E-002  0.1835895E+03  0.7818608E-02  0.1166238E+00
         21   -1    0    0  503  502  0.00000000000E+00  0.00000000000E+00  0.48819576848E+03  0.48819576848E+03  0.00000000000E+00 0.  1.
         21   -1    0    0  501  503 -0.00000000000E+00 -0.00000000000E+00 -0.38704354569E+03  0.38704354569E+03  0.00000000000E+00 0.  1.
          6    2    1    2  501    0  0.62070470898E+02  0.14846367454E+02 -0.34805596839E+03  0.38996299290E+03  0.16387501554E+03 0.  0.
         24    2    3    3    0    0 -0.26411627509E+02  0.19221326006E+02 -0.15464024927E+03  0.17717212749E+03  0.80058245191E+02 0.  0.
         -6    2    1    2    0  502 -0.62070470898E+02 -0.14846367454E+02  0.44920819118E+03  0.48527632127E+03  0.17213933596E+03 0.  0.
        -24    2    5    5    0    0 -0.47089477925E+02 -0.54532050366E+02  0.14342740468E+03  0.17653150275E+03  0.73490051023E+02 0.  0.
          5    1    3    3  501    0  0.88482098407E+02 -0.43749585520E+01 -0.19341571911E+03  0.21279086541E+03  0.47000000000E+01 0. -1.
        -11    1    4    4    0    0  0.38457088227E+01 -0.16031268320E+02 -0.11478211740E+03  0.11596001689E+03  0.00000000000E+00 0.  1.
         12    1    4    4    0    0 -0.30257336332E+02  0.35252594326E+02 -0.39858131868E+02  0.61212110604E+02  0.00000000000E+00 0. -1.
         -5    1    5    5    0  502 -0.14980992973E+02  0.39685682912E+02  0.30578078650E+03  0.30874481853E+03  0.47000000000E+01 0.  1.
         11    1    6    6    0    0  0.10702271839E+01 -0.41428539904E+02  0.25963238905E+02  0.48903569187E+02  0.00000000000E+00 0. -1.
        -12    1    6    6    0    0 -0.48159705109E+02 -0.13103510462E+02  0.11746416578E+03  0.12762793356E+03  0.00000000000E+00 0.  1.
</event>
<event>
12    1  0.8356052E-002  0.2106379E+03  0.7818608E-02  0.1141525E+00
         21   -1    0    0  501  502  0.00000000000E+00  0.00000000000E+00  0.27552942835E+03  0.27552942835E+03  0.00000000000E+00 0.  1.
         21   -1    0    0  502  503 -0.00000000000E+00 -0.00000000000E+00 -0.15961992091E+03  0.15961992091E+03  0.00000000000E+00 0. -1.
         -6    2    1    2    0  503 -0.33304990378E+02  0.11935880311E+03  0.47140899991E+02  0.21356988208E+03  0.16743381921E+03 0.  0.
        -24    2    3    3    0    0  0.22410137504E+02  0.22201597976E+02  0.53945777951E+02  0.10126630089E+03  0.79684324188E+02 0.  0.
          6    2    1    2  501    0  0.33304990378E+02 -0.11935880311E+03  0.68768607450E+02  0.22157946719E+03  0.17033083293E+03 0.  0.
         24    2    5    5    0    0 -0.14372417501E+02 -0.16682796103E+02 -0.12168924095E+02  0.82336974934E+02  0.78399060307E+02 0.  0.
          5    1    5    5  501    0  0.47677407880E+02 -0.10267600701E+03  0.80937531545E+02  0.13924249225E+03  0.47000000000E+01 0. -1.
        -11    1    6    6    0    0 -0.35414456654E+02 -0.48149849879E+01  0.20885615291E+02  0.41395371077E+02  0.00000000000E+00 0.  1.
         12    1    6    6    0    0  0.21042039153E+02 -0.11867811115E+02 -0.33054539385E+02  0.40941603857E+02  0.00000000000E+00 0. -1.
         -5    1    3    3    0  503 -0.55715127882E+02  0.97157205132E+02 -0.68048779600E+01  0.11230358119E+03  0.47000000000E+01 0.  1.
         13    1    4    4    0    0 -0.20758183715E+01  0.15266317302E+02 -0.18736435794E+02  0.24257441995E+02  0.00000000000E+00 0. -1.
        -14    1    4    4    0    0  0.24485955875E+02  0.69352806746E+01  0.72682213745E+02  0.77008858893E+02  0.00000000000E+00 0.  1.
</event>
<event>
12    1  0.8356052E-002  0.1767917E+03  0.7818608E-02  0.1171056E+00
         21   -1    0    0  501  502  0.00000000000E+00  0.00000000000E+00  0.76304991213E+03  0.76304991213E+03  0.00000000000E+00 0.  1.
         21   -1    0    0  502  503 -0.00000000000E+00 -0.00000000000E+00 -0.41451214606E+02  0.41451214606E+02  0.00000000000E+00 0.  1.
         -6    2    1    2    0  503  0.36807959544E+02 -0.23011829886E+02  0.31308655056E+03  0.35955317814E+03  0.17137948993E+03 0.  0.
        -24    2    3    3    0    0  0.11795755985E+02 -0.30959569197E+02  0.69232161420E+02  0.11424555496E+03  0.84624581945E+02 0.  0.
          6    2    1    2  501    0 -0.36807959544E+02  0.23011829886E+02  0.40851214696E+03  0.44494794859E+03  0.17091557138E+03 0.  0.
         24    2    5    5    0    0 -0.78492699118E+02  0.39128197652E+02  0.21217465014E+03  0.24353330791E+03  0.81229737370E+02 0.  0.
          5    1    5    5  501    0  0.41684739574E+02 -0.16116367765E+02  0.19633749681E+03  0.20141464068E+03  0.47000000000E+01 0. -1.
        -11    1    6    6    0    0 -0.51492237127E+02  0.56461686774E+02  0.18926222626E+03  0.20410674376E+03  0.00000000000E+00 0.  1.
         12    1    6    6    0    0 -0.27000461991E+02 -0.17333489123E+02  0.22912423880E+02  0.39426564154E+02  0.00000000000E+00 0. -1.
         -5    1    3    3    0  503  0.25012203560E+02  0.79477393101E+01  0.24385438914E+03  0.24530762318E+03  0.47000000000E+01 0.  1.
         13    1    4    4    0    0 -0.50238426554E+01  0.28196779480E+02  0.28969754408E+02  0.40737501623E+02  0.00000000000E+00 0. -1.
        -14    1    4    4    0    0  0.16819598640E+02 -0.59156348676E+02  0.40262407012E+02  0.73508053338E+02  0.00000000000E+00 0.  1.
</event>
<event>
12    1  0.8356052E-002  0.1835397E+03  0.7818608E-02  0.1165084E+00
         21   -1    0    0  503  502  0.00000000000E+00  0.00000000000E+00  0.15074848450E+03  0.15074848450E+03  0.00000000000E+00 0. -1.
         21   -1    0    0  501  503 -0.00000000000E+00 -0.00000000000E+00 -0.34329466854E+03  0.34329466854E+03  0.00000000000E+00 0.  1.
          6    2    1    2  501    0 -0.43179820147E+02 -0.60471674942E+02 -0.24378661203E+03  0.30348500933E+03  0.16477232274E+03 0.  0.
         24    2    3    3    0    0 -0.57083999092E+02 -0.16309271433E+02 -0.23681473079E+03  0.25642822231E+03  0.78419647988E+02 0.  0.
         -6    2    1    2    0  502  0.43179820147E+02  0.60471674942E+02  0.51240427990E+02  0.19055814371E+03  0.16782581546E+03 0.  0.
        -24    2    5    5    0    0  0.74497503057E+02  0.62486647879E+02 -0.63982786103E+01  0.12476173137E+03  0.77910798479E+02 0.  0.
          5    1    3    3  501    0  0.13904178944E+02 -0.44162403510E+02 -0.69718812364E+01  0.47056787012E+02  0.47000000000E+01 0. -1.
        -11    1    4    4    0    0  0.12606571726E+02  0.15410909174E+02 -0.71878845092E+02  0.74585455312E+02  0.00000000000E+00 0.  1.
         12    1    4    4    0    0 -0.69690570817E+02 -0.31720180606E+02 -0.16493588570E+03  0.18184276700E+03  0.00000000000E+00 0. -1.
         -5    1    5    5    0  502 -0.31317682910E+02 -0.20149729367E+01  0.57638706600E+02  0.65796412343E+02  0.47000000000E+01 0.  1.
         11    1    6    6    0    0  0.56881575209E+02  0.36849690250E+02  0.32327821888E+02  0.75089954973E+02  0.00000000000E+00 0. -1.
        -12    1    6    6    0    0  0.17615927848E+02  0.25636957629E+02 -0.38726100498E+02  0.49671776395E+02  0.00000000000E+00 0.  1.
</event>
<event>
12    1  0.8356052E-002  0.2347000E+03  0.7818608E-02  0.1125769E+00
         21   -1    0    0  501  502  0.00000000000E+00  0.00000000000E+00  0.99640320366E+02  0.99640320366E+02  0.00000000000E+00 0.  1.
         21   -1    0    0  502  503 -0.00000000000E+00 -0.00000000000E+00 -0.54590209144E+03  0.54590209144E+03  0.00000000000E+00 0.  1.
         -6    2    1    2    0  503  0.13441664981E+03 -0.31041822451E+02 -0.28513329506E+03  0.36085578060E+03  0.17287124675E+03 0.  0.
        -24    2    3    3    0    0  0.38004072452E+02 -0.26616001522E+02 -0.23393639090E+03  0.25150228976E+03  0.79840125917E+02 0.  0.
          6    2    1    2  501    0 -0.13441664981E+03  0.31041822451E+02 -0.16112847602E+03  0.28468663121E+03  0.18987538471E+03 0.  0.
         24    2    5    5    0    0 -0.12504994832E+03 -0.35978949001E+02 -0.62866240992E+02  0.16528363403E+03  0.80215591238E+02 0.  0.
          5    1    5    5  501    0 -0.93667014913E+01  0.67020771451E+02 -0.98262235023E+02  0.11940299718E+03  0.47000000000E+01 0. -1.
        -13    1    6    6    0    0 -0.99458401947E+02 -0.58968485567E+02 -0.34406455824E+02  0.12063606513E+03  0.00000000000E+00 0.  1.
         14    1    6    6    0    0 -0.25591546370E+02  0.22989536566E+02 -0.28459785168E+02  0.44647568903E+02  0.00000000000E+00 0. -1.
         -5    1    3    3    0  503  0.96412577356E+02 -0.44258209290E+01 -0.51196904163E+02  0.10935349084E+03  0.47000000000E+01 0.  1.
         13    1    4    4    0    0  0.46068283476E+00  0.25320773364E+02 -0.40895850042E+02  0.48102228047E+02  0.00000000000E+00 0. -1.
        -14    1    4    4    0    0  0.37543389617E+02 -0.51936774886E+02 -0.19304054086E+03  0.20340006171E+03  0.00000000000E+00 0.  1.
</event>
<event>
12    1  0.8356052E-002  0.1898129E+03  0.7818608E-02  0.1158764E+00
         21   -1    0    0  503  502  0.00000000000E+00  0.00000000000E+00  0.75791233185E+02  0.75791233185E+02  0.00000000000E+00 0.  1.
         21   -1    0    0  501  503 -0.00000000000E+00 -0.00000000000E+00 -0.67749559162E+03  0.67749559162E+03  0.00000000000E+00 0. -1.
          6    2    1    2  501    0 -0.19313296341E+02  0.76266509338E+02 -0.50765644140E+03  0.54198153531E+03  0.17274066766E+03 0.  0.
         24    2    3    3    0    0 -0.70665803565E+02  0.48380525356E+02 -0.22435941747E+03  0.25268237896E+03  0.78593291068E+02 0.  0.
         -6    2    1    2    0  502  0.19313296341E+02 -0.76266509338E+02 -0.94047917030E+02  0.21130528949E+03  0.17209105382E+03 0.  0.
        -24    2    5    5    0    0 -0.28170030231E+02  0.10039204916E+02 -0.72551290758E+02  0.11037195725E+03  0.77614063918E+02 0.  0.
          5    1    3    3  501    0  0.51352507225E+02  0.27885983982E+02 -0.28329702393E+03  0.28929915636E+03  0.47000000000E+01 0. -1.
        -13    1    4    4    0    0 -0.34208191213E+02  0.16949221520E+02 -0.20732396615E+02  0.43443166615E+02  0.00000000000E+00 0.  1.
         14    1    4    4    0    0 -0.36457612353E+02  0.31431303836E+02 -0.20362702085E+03  0.20923921234E+03  0.00000000000E+00 0. -1.
         -5    1    5    5    0  502  0.47483326571E+02 -0.86305714255E+02 -0.21496626272E+02  0.10093333224E+03  0.47000000000E+01 0.  1.
         11    1    6    6    0    0 -0.19297175676E+02  0.78970285885E+01 -0.89081464827E+02  0.91489078175E+02  0.00000000000E+00 0. -1.
        -12    1    6    6    0    0 -0.88728545541E+01  0.21421763280E+01  0.16530174069E+02  0.18882879074E+02  0.00000000000E+00 0.  1.
</event>
<event>
12    1  0.8356052E-002  0.2574565E+03  0.7818608E-02  0.1108695E+00
         21   -1    0    0  501  502  0.00000000000E+00  0.00000000000E+00  0.69804312832E+03  0.69804312832E+03  0.00000000000E+00 0. -1.
         21   -1    0    0  502  503 -0.00000000000E+00 -0.00000000000E+00 -0.10625214266E+03  0.10625214266E+03  0.00000000000E+00 0. -1.
         -6    2    1    2    0  503 -0.13845576127E+03 -0.13151266660E+03  0.16462798629E+03  0.30559158566E+03  0.17267965731E+03 0.  0.
        -24    2    3    3    0    0 -0.15134157185E+03 -0.59208373942E+02  0.91831495373E+02  0.20207649526E+03  0.77407903207E+02 0.  0.
          6    2    1    2  501    0  0.13845576127E+03  0.13151266660E+03  0.42716299937E+03  0.49870368533E+03  0.17254436655E+03 0.  0.
         24    2    5    5    0    0  0.94835932925E+02  0.13459258582E+02  0.26882307128E+03  0.29638482957E+03  0.80019483454E+02 0.  0.
          5    1    5    5  501    0  0.43619828343E+02  0.11805340802E+03  0.15833992808E+03  0.20231885576E+03  0.47000000000E+01 0. -1.
        -11    1    6    6    0    0 -0.75473401333E+01  0.42408288330E+01  0.85962157939E-01  0.86576187125E+01  0.00000000000E+00 0.  1.
         12    1    6    6    0    0  0.10238327306E+03  0.92184297495E+01  0.26873710913E+03  0.28772721086E+03  0.00000000000E+00 0. -1.
         -5    1    3    3    0  503  0.12885810577E+02 -0.72304292656E+02  0.72796490918E+02  0.10351509040E+03  0.47000000000E+01 0.  1.
         13    1    4    4    0    0 -0.39443372943E+02  0.13284637440E+02  0.43642307689E+02  0.60306817869E+02  0.00000000000E+00 0. -1.
        -14    1    4    4    0    0 -0.11189819890E+03 -0.72493011382E+02  0.48189187684E+02  0.14176967739E+03  0.00000000000E+00 0.  1.
</event>
<event>
12    1  0.8356052E-002  0.1952541E+03  0.7818608E-02  0.1154182E+00
         21   -1    0    0  503  502  0.00000000000E+00  0.00000000000E+00  0.52542547426E+02  0.52542547426E+02  0.00000000000E+00 0. -1.
         21   -1    0    0  501  503 -0.00000000000E+00 -0.00000000000E+00 -0.77693647875E+03  0.77693647875E+03  0.00000000000E+00 0. -1.
          6    2    1    2  501    0 -0.20001902312E+01  0.92530941390E+02 -0.25063128885E+03  0.31771088654E+03  0.17192495048E+03 0.  0.
         24    2    3    3    0    0 -0.28232537395E+01 -0.19956642511E+02 -0.89636595343E+02  0.12125347308E+03  0.79129306626E+02 0.  0.
         -6    2    1    2    0  502  0.20001902312E+01 -0.92530941390E+02 -0.47376264247E+03  0.51176813964E+03  0.16996944275E+03 0.  0.
        -24    2    5    5    0    0  0.59713672436E+02 -0.21549587579E+02 -0.25345323573E+03  0.27317324590E+03  0.79718079341E+02 0.  0.
          5    1    3    3  501    0  0.82306350837E+00  0.11248758390E+03 -0.16099469351E+03  0.19645741346E+03  0.47000000000E+01 0. -1.
        -11    1    4    4    0    0  0.35813305912E+02  0.41968227382E+00 -0.54402811651E+02  0.65133976764E+02  0.00000000000E+00 0.  1.
         12    1    4    4    0    0 -0.38636559651E+02 -0.20376324785E+02 -0.35233783692E+02  0.56119496315E+02  0.00000000000E+00 0. -1.
         -5    1    5    5    0  502 -0.57713482205E+02 -0.70981353811E+02 -0.22030940674E+03  0.23859489373E+03  0.47000000000E+01 0.  1.
         13    1    6    6    0    0  0.28418477068E+02 -0.43243762381E+02 -0.77780144974E+02  0.93420467650E+02  0.00000000000E+00 0. -1.
        -14    1    6    6    0    0  0.31295195368E+02  0.21694174802E+02 -0.17567309076E+03  0.17975277825E+03  0.00000000000E+00 0.  1.
</event>
<event>
12    1  0.8356052E-002  0.2493232E+03  0.7818608E-02  0.1113841E+00
         21   -1    0    0  503  502  0.00000000000E+00  0.00000000000E+00  0.11016698408E+03  0.11016698408E+03  0.00000000000E+00 0.  1.
         21   -1    0    0  501  503 -0.00000000000E+00 -0.00000000000E+00 -0.57358015197E+03  0.57358015197E+03  0.00000000000E+00 0.  1.
          6    2    1    2  501    0  0.15920514102E+03  0.83352242808E+02 -0.27844004221E+03  0.37330049964E+03  0.17184450128E+03 0.  0.
         24    2    3    3    0    0  0.17485389323E+03  0.10469423327E+03 -0.26143813195E+03  0.34149611386E+03  0.82066634421E+02 0.  0.
         -6    2    1    2    0  502 -0.15920514102E+03 -0.83352242808E+02 -0.18497312569E+03  0.31044663641E+03  0.17282414044E+03 0.  0.
        -24    2    5    5    0    0 -0.10244025651E+03 -0.64356458785E+02 -0.33940516485E+02  0.14791654391E+03  0.78048608960E+02 0.  0.
          5    1    3    3  501    0 -0.15648752208E+02 -0.21341990466E+02 -0.17001910252E+02  0.31804385782E+02  0.47000000000E+01 0. -1.
        -11    1    4    4    0    0  0.10114922016E+03  0.10454112393E+03 -0.16206571709E+03  0.21777352453E+03  0.00000000000E+00 0.  1.
         12    1    4    4    0    0  0.73704673070E+02  0.15310934613E+00 -0.99372414864E+02  0.12372258933E+03  0.00000000000E+00 0. -1.
         -5    1    5    5    0  502 -0.56764884510E+02 -0.18995784023E+02 -0.15103260921E+03  0.16253009250E+03  0.47000000000E+01 0.  1.
         13    1    6    6    0    0  0.42822724290E+01  0.11896466102E+02 -0.50030370332E+01  0.13597578550E+02  0.00000000000E+00 0. -1.
        -14    1    6    6    0    0 -0.10672252894E+03 -0.76252924887E+02 -0.28937479452E+02  0.13431896536E+03  0.00000000000E+00 0.  1.
</event>
<event>
12    1  0.8356052E-002  0.2060590E+03  0.7818608E-02  0.1144912E+00
         21   -1    0    0  501  502  0.00000000000E+00  0.00000000000E+00  0.95259139014E+02  0.95259139014E+02  0.00000000000E+00 0. -1.
         21   -1    0    0  502  503 -0.00000000000E+00 -0.00000000000E+00 -0.44792037648E+03  0.44792037648E+03  0.00000000000E+00 0. -1.
         -6    2    1    2    0  503 -0.85297654883E+02 -0.70522287249E+02 -0.20293522707E+03  0.28921101453E+03  0.17381375553E+03 0.  0.
        -24    2    3    3    0    0 -0.27527735938E+02 -0.10108205446E+03 -0.10378809517E+03  0.17036865394E+03  0.85312083363E+02 0.  0.
          6    2    1    2  501    0  0.85297654883E+02  0.70522287249E+02 -0.14972601040E+03  0.25396850096E+03  0.17272243156E+03 0.  0.
         24    2    5    5    0    0  0.12177513745E+03  0.38110773450E+02 -0.13610349514E+03  0.20308848639E+03  0.80244356566E+02 0.  0.
          5    1    5    5  501    0 -0.36477482566E+02  0.32411513799E+02 -0.13622515252E+02  0.50880014573E+02  0.47000000000E+01 0. -1.
        -11    1    6    6    0    0  0.68902285477E+02 -0.84385822035E+01 -0.29755507309E+02  0.75525656758E+02  0.00000000000E+00 0.  1.
         12    1    6    6    0    0  0.52872851972E+02  0.46549355654E+02 -0.10634798783E+03  0.12756282963E+03  0.00000000000E+00 0. -1.
         -5    1    3    3    0  503 -0.57769918945E+02  0.30559767208E+02 -0.99147131901E+02  0.11884236059E+03  0.47000000000E+01 0.  1.
         13    1    4    4    0    0  0.22751770538E+02 -0.18303815744E+02 -0.54187856911E+02  0.61554825725E+02  0.00000000000E+00 0. -1.
        -14    1    4    4    0    0 -0.50279506476E+02 -0.82778238712E+02 -0.49600238261E+02  0.10881382822E+03  0.00000000000E+00 0.  1.
</event>
<event>
12    1  0.8356052E-002  0.2153210E+03  0.7818608E-02  0.1137591E+00
         21   -1    0    0  501  502  0.00000000000E+00  0.00000000000E+00  0.33274878540E+02  0.33274878540E+02  0.00000000000E+00 0.  1.
         21   -1    0    0  502  503 -0.00000000000E+00 -0.00000000000E+00 -0.17383808862E+04  0.17383808862E+04  0.00000000000E+00 0.  1.
         -6    2    1    2    0  503  0.12283055515E+03  0.19642629270E+02 -0.12490671749E+04  0.12673398630E+04  0.17466637499E+03 0.  0.
        -24    2    3    3    0    0  0.22182076336E+02 -0.18534301206E+02 -0.82990086828E+03  0.83454652088E+03  0.83047453298E+02 0.  0.
          6    2    1    2  501    0 -0.12283055515E+03 -0.19642629270E+02 -0.45603883271E+03  0.50431590178E+03  0.17575532334E+03 0.  0.
         24    2    5    5    0    0 -0.14186188340E+03  0.24362310384E+02 -0.35865838612E+03  0.39567121692E+03  0.84861992885E+02 0.  0.
          5    1    5    5  501    0  0.19031328253E+02 -0.44004939654E+02 -0.97380446599E+02  0.10864468486E+03  0.47000000000E+01 0. -1.
        -11    1    6    6    0    0 -0.32632232927E+02  0.38560334405E+02 -0.16856080370E+03  0.17596734515E+03  0.00000000000E+00 0.  1.
         12    1    6    6    0    0 -0.10922965048E+03 -0.14198024021E+02 -0.19009758241E+03  0.21970387176E+03  0.00000000000E+00 0. -1.
         -5    1    3    3    0  503  0.10064847882E+03  0.38176930476E+02 -0.41916630666E+03  0.43279334207E+03  0.47000000000E+01 0.  1.
         13    1    4    4    0    0 -0.20656018629E+02 -0.17862523118E+02 -0.10882642559E+03  0.11220040884E+03  0.00000000000E+00 0. -1.
        -14    1    4    4    0    0  0.42838094966E+02 -0.67177808846E+00 -0.72107444270E+03  0.72234611204E+03  0.00000000000E+00 0.  1.
</event>
<event>
12    1  0.8356052E-002  0.2270767E+03  0.7818608E-02  0.1128782E+00
         21   -1    0    0  501  502  0.00000000000E+00  0.00000000000E+00  0.33222478118E+03  0.33222478118E+03  0.00000000000E+00 0. -1.
         21   -1    0    0  502  503 -0.00000000000E+00 -0.00000000000E+00 -0.15998959309E+03  0.15998959309E+03  0.00000000000E+00 0.  1.
         -6    2    1    2    0  503  0.83240454949E+02  0.12329248298E+03  0.12986005098E+03  0.26158645862E+03  0.17156291206E+03 0.  0.
        -24    2    3    3    0    0  0.10183039926E+03  0.73745244484E+02  0.14702998689E+03  0.20575267341E+03  0.70061075304E+02 0.  0.
          6    2    1    2  501    0 -0.83240454949E+02 -0.12329248298E+03  0.42375137108E+02  0.23062791564E+03  0.17106599174E+03 0.  0.
         24    2    5    5    0    0 -0.82704073525E+02 -0.11365985921E+03 -0.24693390599E+02  0.16270625080E+03  0.78134711483E+02 0.  0.
          5    1    5    5  501    0 -0.53638142405E+00 -0.96326237768E+01  0.67068527707E+02  0.67921664840E+02  0.47000000000E+01 0. -1.
        -11    1    6    6    0    0 -0.33142707732E+02 -0.92175984023E+02 -0.41137925964E+02  0.10624114108E+03  0.00000000000E+00 0.  1.
         12    1    6    6    0    0 -0.49561365793E+02 -0.21483875185E+02  0.16444535365E+02  0.56465109719E+02  0.00000000000E+00 0. -1.
         -5    1    3    3    0  503 -0.18589944307E+02  0.49547238500E+02 -0.17169935911E+02  0.55833785215E+02  0.47000000000E+01 0.  1.
         13    1    4    4    0    0  0.70442644494E+02  0.98074823271E+01  0.58246198460E+02  0.91929171148E+02  0.00000000000E+00 0. -1.
        -14    1    4    4    0    0  0.31387754762E+02  0.63937762157E+02  0.88783788428E+02  0.11382350226E+03  0.00000000000E+00 0.  1.
</event>
<event>
12    1  0.8356052E-002  0.1941661E+03  0.7818608E-02  0.1154898E+00
         21   -1    0    0  501  502  0.00000000000E+00  0.00000000000E+00  0.15487124861E+02  0.15487124861E+02  0.00000000000E+00 0. -1.
         21   -1    0    0  502  503 -0.00000000000E+00 -0.00000000000E+00 -0.42714559502E+04  0.42714559502E+04  0.00000000000E+00 0. -1.
         -6    2    1    2    0  503 -0.69499206243E+02 -0.52713863780E+02 -0.35347871293E+04  0.35400806198E+04  0.17274794999E+03 0.  0.
        -24    2    3    3    0    0  0.13310780817E+02  0.93406662894E+01 -0.10440647201E+04  0.10472050777E+04  0.79390869273E+02 0.  0.
          6    2    1    2  501    0  0.69499206243E+02  0.52713863780E+02 -0.72118169599E+03  0.74686245519E+03  0.17346929771E+03 0.  0.
         24    2    5    5    0    0  0.74546635683E+02 -0.20034939138E+02 -0.25038636643E+03  0.27042967168E+03  0.66934857549E+02 0.  0.
          5    1    5    5  501    0 -0.50474294394E+01  0.72748802918E+02 -0.47079532956E+03  0.47643278352E+03  0.47000000000E+01 0. -1.
        -13    1    6    6    0    0 -0.10952489159E+02 -0.45033343230E+01 -0.59884405244E+02  0.61044074489E+02  0.00000000000E+00 0.  1.
         14    1    6    6    0    0  0.85499124841E+02 -0.15531604815E+02 -0.19050196118E+03  0.20938559719E+03  0.00000000000E+00 0. -1.
         -5    1    3    3    0  503 -0.82809987060E+02 -0.62054530069E+02 -0.24907224092E+04  0.24928755421E+04  0.47000000000E+01 0.  1.
         13    1    4    4    0    0 -0.12825089254E+02 -0.23205071992E+02 -0.71666302714E+03  0.71715329794E+03  0.00000000000E+00 0. -1.
        -14    1    4    4    0    0  0.26135870071E+02  0.32545738282E+02 -0.32740169293E+03  0.33005177975E+03  0.00000000000E+00 0.  1.
</event>
<event>
12    1  0.8356052E-002  0.1794500E+03  0.7818608E-02  0.1168441E+00
         21   -1    0    0  503  502  0.00000000000E+00  0.00000000000E+00  0.79070257452E+03  0.79070257452E+03  0.00000000000E+00 0.  1.
         21   -1    0    0  501  503 -0.00000000000E+00 -0.00000000000E+00 -0.40646407506E+02  0.40646407506E+02  0.00000000000E+00 0.  1.
          6    2    1    2  501    0 -0.30144289795E+02 -0.40128185643E+02  0.38328476476E+03  0.42303102379E+03  0.17184029416E+03 0.  0.
         24    2    3    3    0    0 -0.67885614358E+01 -0.50823376467E+02  0.38536917098E+03  0.39683346850E+03  0.79613463805E+02 0.  0.
         -6    2    1    2    0  502  0.30144289795E+02  0.40128185643E+02  0.36677140225E+03  0.40831795824E+03  0.17228854872E+03 0.  0.
        -24    2    5    5    0    0  0.15683919658E+02 -0.25380070637E+02  0.30499879644E+03  0.31700323449E+03  0.81096556785E+02 0.  0.
          5    1    3    3  501    0 -0.23355728359E+02  0.10695190824E+02 -0.20844062142E+01  0.26197555291E+02  0.47000000000E+01 0. -1.
        -13    1    4    4    0    0  0.22963209307E+02  0.83454911130E+01  0.59841337373E+02  0.64637000720E+02  0.00000000000E+00 0.  1.
         14    1    4    4    0    0 -0.29751770742E+02 -0.59168867580E+02  0.32552783360E+03  0.33219646778E+03  0.00000000000E+00 0. -1.
         -5    1    5    5    0  502  0.14460370138E+02  0.65508256280E+02  0.61772605811E+02  0.91314723753E+02  0.47000000000E+01 0.  1.
         13    1    6    6    0    0 -0.72416666890E+00  0.28381981195E+02  0.13497813513E+03  0.13793171585E+03  0.00000000000E+00 0. -1.
        -14    1    6    6    0    0  0.16408086327E+02 -0.53762051832E+02  0.17002066131E+03  0.17907151864E+03  0.00000000000E+00 0.  1.
</event>
<event>
12    1  0.8356052E-002  0.1931621E+03  0.7818608E-02  0.1157458E+00
         21   -1    0    0  501  502  0.00000000000E+00  0.00000000000E+00  0.59505747636E+02  0.59505747636E+02  0.00000000000E+00 0.  1.
         21   -1    0    0  502  503 -0.00000000000E+00 -0.00000000000E+00 -0.60115796487E+03  0.60115796487E+03  0.00000000000E+00 0.  1.
         -6    2    1    2    0  503 -0.41904597726E+02  0.78268671086E+02 -0.26511218033E+03  0.32334194112E+03  0.16243017744E+03 0.  0.
        -24    2    3    3    0    0 -0.46598162451E+02  0.84122916233E+02 -0.27977298587E+03  0.30621503378E+03  0.79035874839E+02 0.  0.
          6    2    1    2  501    0  0.41904597726E+02 -0.78268671086E+02 -0.27654003691E+03  0.33732177139E+03  0.17155059095E+03 0.  0.
         24    2    5    5    0    0  0.73430270472E+02 -0.18703463574E+02 -0.22813395605E+03  0.25421268253E+03  0.82687132503E+02 0.  0.
          5    1    5    5  501    0 -0.31525672746E+02 -0.59565207512E+02 -0.48406080852E+02  0.83109088862E+02  0.47000000000E+01 0. -1.
        -13    1    6    6    0    0  0.40662710568E+02 -0.40673879680E+02 -0.19299097289E+03  0.20137858907E+03  0.00000000000E+00 0.  1.
         14    1    6    6    0    0  0.32767559904E+02  0.21970416105E+02 -0.35142983168E+02  0.52834093461E+02  0.00000000000E+00 0. -1.
         -5    1    3    3    0  503  0.46935647248E+01 -0.58542451466E+01  0.14660805537E+02  0.17126907341E+02  0.47000000000E+01 0.  1.
         11    1    4    4    0    0 -0.10844582775E+02 -0.15338157359E+02 -0.41780420559E+02  0.45809033921E+02  0.00000000000E+00 0. -1.
        -12    1    4    4    0    0 -0.35753579676E+02  0.99461073591E+02 -0.23799256531E+03  0.26040599986E+03  0.00000000000E+00 0.  1.
</event>
<event>
12    1  0.8356052E-002  0.1954683E+03  0.7818608E-02  0.1154518E+00
         21   -1    0    0  503  502  0.00000000000E+00  0.00000000000E+00  0.55670111046E+02  0.55670111046E+02  0.00000000000E+00 0. -1.
         21   -1    0    0  501  503 -0.00000000000E+00 -0.00000000000E+00 -0.90052749265E+03  0.90052749265E+03  0.00000000000E+00 0. -1.
          6    2    1    2  501    0 -0.11967832902E+02 -0.82290025954E+02 -0.66656910076E+03  0.69463818187E+03  0.17689816343E+03 0.  0.
         24    2    3    3    0    0  0.52465350142E+02 -0.88173753676E+02 -0.43416040092E+03  0.45334552327E+03  0.80620629766E+02 0.  0.
         -6    2    1    2    0  502  0.11967832902E+02  0.82290025954E+02 -0.17828828084E+03  0.26155942183E+03  0.17237094496E+03 0.  0.
        -24    2    5    5    0    0  0.20142302905E+02  0.11840348818E+03 -0.17052736054E+03  0.22343690883E+03  0.80120990722E+02 0.  0.
          5    1    3    3  501    0 -0.64433183044E+02  0.58837277218E+01 -0.23240869984E+03  0.24129265860E+03  0.47000000000E+01 0. -1.
        -13    1    4    4    0    0 -0.18630851543E+02 -0.29731543868E+02 -0.78755766490E+02  0.86218003256E+02  0.00000000000E+00 0.  1.
         14    1    4    4    0    0  0.71096201685E+02 -0.58442209808E+02 -0.35540463443E+03  0.36712752002E+03  0.00000000000E+00 0. -1.
         -5    1    5    5    0  502 -0.81744700037E+01 -0.36113462222E+02 -0.77609203006E+01  0.38122513000E+02  0.47000000000E+01 0.  1.
         13    1    6    6    0    0 -0.95804799218E+01  0.58014208419E+02 -0.13517484271E+03  0.14740987781E+03  0.00000000000E+00 0. -1.
        -14    1    6    6    0    0  0.29722782827E+02  0.60389279757E+02 -0.35352517834E+02  0.76027031020E+02  0.00000000000E+00 0.  1.
</event>
<event>
12    1  0.8356052E-002  0.2648781E+03  0.7818608E-02  0.1106583E+00
         21   -1    0    0  503  502  0.00000000000E+00  0.00000000000E+00  0.10800643090E+04  0.10800643090E+04  0.00000000000E+00 0. -1.
         21   -1    0    0  501  503 -0.00000000000E+00 -0.00000000000E+00 -0.10817625187E+03  0.10817625187E+03  0.00000000000E+00 0.  1.
          6    2    1    2  501    0  0.14937109261E+03 -0.10220063255E+03  0.10291095526E+03  0.28416732506E+03  0.19340039121E+03 0.  0.
         24    2    3    3    0    0 -0.53580529473E+01 -0.26205662830E+02 -0.16953959609E+01  0.82472202112E+02  0.77995796412E+02 0.  0.
         -6    2    1    2    0  502 -0.14937109261E+03  0.10220063255E+03  0.86897710190E+03  0.90407323583E+03  0.17166979790E+03 0.  0.
        -24    2    5    5    0    0 -0.13525756119E+03  0.12972065352E+03  0.82777980018E+03  0.85234460746E+03  0.78421148194E+02 0.  0.
          5    1    3    3  501    0  0.15472914555E+03 -0.75994969718E+02  0.10460635122E+03  0.20169512295E+03  0.47000000000E+01 0. -1.
        -13    1    4    4    0    0  0.80676965826E+01 -0.42364065903E+02 -0.25991977322E+02  0.50352603638E+02  0.00000000000E+00 0.  1.
         14    1    4    4    0    0 -0.13425749530E+02  0.16158403073E+02  0.24296581361E+02  0.32119598474E+02  0.00000000000E+00 0. -1.
         -5    1    5    5    0  502 -0.14113531418E+02 -0.27520020968E+02  0.41197301727E+02  0.51728628367E+02  0.47000000000E+01 0.  1.
         13    1    6    6    0    0 -0.27480177817E+00  0.46398675019E+01  0.14867124951E+03  0.14874388833E+03  0.00000000000E+00 0. -1.
        -14    1    6    6    0    0 -0.13498275941E+03  0.12508078601E+03  0.67910855067E+03  0.70360071913E+03  0.00000000000E+00 0.  1.
</event>
<event>
12    1  0.8356052E-002  0.1922275E+03  0.7818608E-02  0.1156576E+00
         21   -1    0    0  501  502  0.00000000000E+00  0.00000000000E+00  0.12075403150E+03  0.12075403150E+03  0.00000000000E+00 0.  1.
         21   -1    0    0  502  503 -0.00000000000E+00 -0.00000000000E+00 -0.51722133763E+03  0.51722133763E+03  0.00000000000E+00 0.  1.
         -6    2    1    2    0  503 -0.83686557814E+02 -0.16160425885E+02 -0.40230431777E+03  0.44565923324E+03  0.17175211426E+03 0.  0.
        -24    2    3    3    0    0  0.14601046477E+02 -0.40461030607E+02 -0.19086791584E+03  0.21118446998E+03  0.79486058559E+02 0.  0.
          6    2    1    2  501    0  0.83686557814E+02  0.16160425885E+02  0.58370116465E+01  0.19231613588E+03  0.17229865378E+03 0.  0.
         24    2    5    5    0    0  0.12314492380E+03  0.25597879014E+02  0.14709593205E+01  0.15124083211E+03  0.83974412226E+02 0.  0.
          5    1    5    5  501    0 -0.39458365981E+02 -0.94374531285E+01  0.43660523260E+01  0.41075303777E+02  0.47000000000E+01 0. -1.
        -13    1    6    6    0    0  0.76188983831E+02 -0.22952891759E+02  0.18266522209E+02  0.81641057875E+02  0.00000000000E+00 0.  1.
         14    1    6    6    0    0  0.46955939964E+02  0.48550770773E+02 -0.16795562889E+02  0.69599774233E+02  0.00000000000E+00 0. -1.
         -5    1    3    3    0  503 -0.98287604291E+02  0.24300604722E+02 -0.21143640193E+03  0.23447476327E+03  0.47000000000E+01 0.  1.
         11    1    4    4    0    0 -0.17064152198E+02 -0.12338027549E+02 -0.65336091606E+01  0.22047681572E+02  0.00000000000E+00 0. -1.
        -12    1    4    4    0    0  0.31665198676E+02 -0.28123003059E+02 -0.18433430668E+03  0.18913678841E+03  0.00000000000E+00 0.  1.
</event>
<event>
12    1  0.8356052E-002  0.2436306E+03  0.7818608E-02  0.1117403E+00
         21   -1    0    0  503  502  0.00000000000E+00  0.00000000000E+00  0.10487834058E+03  0.10487834058E+03  0.00000000000E+00 0.  1.
         21   -1    0    0  501  503 -0.00000000000E+00 -0.00000000000E+00 -0.58729035471E+03  0.58729035471E+03  0.00000000000E+00 0. -1.
          6    2    1    2  501    0  0.16125201014E+03  0.60164042110E+02 -0.30731326491E+03  0.39217003272E+03  0.17243540540E+03 0.  0.
         24    2    3    3    0    0  0.11285364240E+03 -0.68869349250E+01 -0.10717227523E+03  0.17556730588E+03  0.80960532625E+02 0.  0.
         -6    2    1    2    0  502 -0.16125201014E+03 -0.60164042110E+02 -0.17509874922E+03  0.29999866257E+03  0.17238823285E+03 0.  0.
        -24    2    5    5    0    0 -0.18848831845E+03 -0.54199604769E+02 -0.16911093697E+03  0.27109650177E+03  0.80183295767E+02 0.  0.
          5    1    3    3  501    0  0.48398367746E+02  0.67050977035E+02 -0.20014098968E+03  0.21660272684E+03  0.47000000000E+01 0. -1.
        -11    1    4    4    0    0  0.87416350446E+02  0.28146240480E+02 -0.52341376538E+02  0.10570453574E+03  0.00000000000E+00 0.  1.
         12    1    4    4    0    0  0.25437291950E+02 -0.35033175405E+02 -0.54830898691E+02  0.69862770143E+02  0.00000000000E+00 0. -1.
         -5    1    5    5    0  502  0.27236308309E+02 -0.59644373412E+01 -0.59878122577E+01  0.28902160797E+02  0.47000000000E+01 0.  1.
         13    1    6    6    0    0 -0.15982363655E+03 -0.20310435488E+02 -0.15730098838E+03  0.22516595999E+03  0.00000000000E+00 0. -1.
        -14    1    6    6    0    0 -0.28664681898E+02 -0.33889169281E+02 -0.11809948585E+02  0.45930541782E+02  0.00000000000E+00 0.  1.
</event>
<event>
12    1  0.8356052E-002  0.1929483E+03  0.7818608E-02  0.1155973E+00
         21   -1    0    0  501  502  0.00000000000E+00  0.00000000000E+00  0.52608470730E+03  0.52608470730E+03  0.00000000000E+00 0.  1.
         21   -1    0    0  502  503 -0.00000000000E+00 -0.00000000000E+00 -0.70553632199E+02  0.70553632199E+02  0.00000000000E+00 0.  1.
         -6    2    1    2    0  503 -0.82233730544E+02 -0.25258386799E+02  0.23306184806E+03  0.30215300907E+03  0.17198326466E+03 0.  0.
        -24    2    3    3    0    0 -0.10167781315E+03 -0.67350675929E+02  0.17937768888E+03  0.23106213694E+03  0.79616987044E+02 0.  0.
          6    2    1    2  501    0  0.82233730544E+02  0.25258386799E+02  0.22246922704E+03  0.29448533043E+03  0.17270981535E+03 0.  0.
         24    2    5    5    0    0  0.27136050922E+02 -0.95629866286E+00  0.23814876217E+02  0.86618533819E+02  0.78729551663E+02 0.  0.
          5    1    5    5  501    0  0.55097679622E+02  0.26214685461E+02  0.19865435082E+03  0.20786679661E+03  0.47000000000E+01 0. -1.
        -13    1    6    6    0    0  0.52567613768E+02  0.11360761805E+02  0.22595215464E+02  0.58334935398E+02  0.00000000000E+00 0.  1.
         14    1    6    6    0    0 -0.25431562845E+02 -0.12317060467E+02  0.12196607532E+01  0.28283598422E+02  0.00000000000E+00 0. -1.
         -5    1    3    3    0  503  0.19444082602E+02  0.42092289130E+02  0.53684159184E+02  0.71090872127E+02  0.47000000000E+01 0.  1.
         11    1    4    4    0    0 -0.22152688268E+02  0.35819787858E+01  0.25157507449E-01  0.22440427857E+02  0.00000000000E+00 0. -1.
        -12    1    4    4    0    0 -0.79525124879E+02 -0.70932654714E+02  0.17935253137E+03  0.20862170908E+03  0.00000000000E+00 0.  1.
</event>
<event>
12    1  0.8356052E-002  0.1870821E+03  0.7818608E-02  0.1161133E+00
         21   -1    0    0  503  502  0.00000000000E+00  0.00000000000E+00  0.44237577663E+03  0.44237577663E+03  0.00000000000E+00 0. -1.
         21   -1    0    0  501  503 -0.00000000000E+00 -0.00000000000E+00 -0.23232861504E+03  0.23232861504E+03  0.00000000000E+00 0. -1.
          6    2    1    2  501    0 -0.39125490788E+02  0.63581662330E+02 -0.16894701646E+03  0.25207700932E+03  0.17154093518E+03 0.  0.
         24    2    3    3    0    0 -0.38265984096E+02 -0.21882243909E+02 -0.45424399636E+02  0.10179479184E+03  0.79722552813E+02 0.  0.
         -6    2    1    2    0  502  0.39125490788E+02 -0.63581662330E+02  0.37899417805E+03  0.42262738235E+03  0.17147561198E+03 0.  0.
        -24    2    5    5    0    0 -0.36040645427E+02 -0.73867335862E+00  0.16916442112E+03  0.19100310429E+03  0.81031541474E+02 0.  0.
          5    1    3    3  501    0 -0.85950669267E+00  0.85463906239E+02 -0.12352261683E+03  0.15028221747E+03  0.47000000000E+01 0. -1.
        -13    1    4    4    0    0 -0.42933243677E+02  0.21019014136E+02 -0.21041625073E+02  0.52228463059E+02  0.00000000000E+00 0.  1.
         14    1    4    4    0    0  0.46672595808E+01 -0.42901258045E+02 -0.24382774563E+02  0.49566328785E+02  0.00000000000E+00 0. -1.
         -5    1    5    5    0  502  0.75166136215E+02 -0.62842988972E+02  0.20982975692E+03  0.23162427806E+03  0.47000000000E+01 0.  1.
         11    1    6    6    0    0 -0.91779517406E+01 -0.10979783252E+02  0.16027338173E+03  0.16091099195E+03  0.00000000000E+00 0. -1.
        -12    1    6    6    0    0 -0.26862693686E+02  0.10241109893E+02  0.88910393967E+01  0.30092112346E+02  0.00000000000E+00 0.  1.
</event>
<event>
12    1  0.8356052E-002  0.1766011E+03  0.7818608E-02  0.1171183E+00
         21   -1    0    0  503  502  0.00000000000E+00  0.00000000000E+00  0.57583029515E+03  0.57583029515E+03  0.00000000000E+00 0. -1.
         21   -1    0    0  501  503 -0.00000000000E+00 -0.00000000000E+00 -0.15425794606E+03  0.15425794606E+03  0.00000000000E+00 0. -1.
          6    2    1    2  501    0 -0.10191631517E+02  0.40192629463E+02 -0.83317974873E+02  0.19526860328E+03  0.17166428188E+03 0.  0.
         24    2    3    3    0    0  0.40828292191E+01 -0.36866241770E+02 -0.11729356060E+02  0.89019602306E+02  0.80069485602E+02 0.  0.
         -6    2    1    2    0  502  0.10191631517E+02 -0.40192629463E+02  0.50489032396E+03  0.53481963793E+03  0.17145987599E+03 0.  0.
        -24    2    5    5    0    0  0.61015612848E+02  0.11492626322E+02  0.26597111975E+03  0.28510195958E+03  0.81777168825E+02 0.  0.
          5    1    3    3  501    0 -0.14274460737E+02  0.77058871232E+02 -0.71588618813E+02  0.10624900098E+03  0.47000000000E+01 0. -1.
        -13    1    4    4    0    0 -0.24367250032E+02 -0.48359461809E+02  0.44448981463E+01  0.54333760592E+02  0.00000000000E+00 0.  1.
         14    1    4    4    0    0  0.28450079251E+02  0.11493220040E+02 -0.16174254206E+02  0.34685841714E+02  0.00000000000E+00 0. -1.
         -5    1    5    5    0  502 -0.50823981331E+02 -0.51685255785E+02  0.23891920420E+03  0.24971767835E+03  0.47000000000E+01 0.  1.
         13    1    6    6    0    0  0.13034366366E+02 -0.33536022864E+02  0.76721527878E+02  0.84739320130E+02  0.00000000000E+00 0. -1.
        -14    1    6    6    0    0  0.47981246482E+02  0.45028649186E+02  0.18924959188E+03  0.20036263945E+03  0.00000000000E+00 0.  1.
</event>
<event>
12    1  0.8356052E-002  0.3574491E+03  0.7818608E-02  0.1059622E+00
         21   -1    0    0  501  502  0.00000000000E+00  0.00000000000E+00  0.52582970802E+03  0.52582970802E+03  0.00000000000E+00 0. -1.
         21   -1    0    0  502  503 -0.00000000000E+00 -0.00000000000E+00 -0.25893416435E+03  0.25893416435E+03  0.00000000000E+00 0.  1.
         -6    2    1    2    0  503 -0.85400233369E+02  0.30107287986E+03  0.23135957541E+03  0.42579000762E+03  0.17271884268E+03 0.  0.
        -24    2    3    3    0    0 -0.53359824741E+02  0.62253271237E+02  0.10630152454E+03  0.15427021215E+03  0.76003575986E+02 0.  0.
          6    2    1    2  501    0  0.85400233369E+02 -0.30107287986E+03  0.35535968261E+02  0.35897386475E+03  0.17222471277E+03 0.  0.
         24    2    5    5    0    0  0.10266129002E+03 -0.12962880135E+03  0.33849023482E+02  0.18659071037E+03  0.79544768517E+02 0.  0.
          5    1    5    5  501    0 -0.17261056652E+02 -0.17144407850E+03  0.16869447782E+01  0.17238315438E+03  0.47000000000E+01 0. -1.
        -13    1    6    6    0    0  0.73031742738E+02 -0.45134936471E+02 -0.10813040857E+02  0.86531611508E+02  0.00000000000E+00 0.  1.
         14    1    6    6    0    0  0.29629547282E+02 -0.84493864882E+02  0.44662064339E+02  0.10005909887E+03  0.00000000000E+00 0. -1.
         -5    1    3    3    0  503 -0.32040408628E+02  0.23881960862E+03  0.12505805087E+03  0.27151979547E+03  0.47000000000E+01 0.  1.
         11    1    4    4    0    0  0.38234400384E+01  0.21760682799E+02  0.73789853721E+02  0.77026544267E+02  0.00000000000E+00 0. -1.
        -12    1    4    4    0    0 -0.57183264779E+02  0.40492588438E+02  0.32511670818E+02  0.77243667887E+02  0.00000000000E+00 0.  1.
</event>
<event>
12    1  0.8356052E-002  0.2404078E+03  0.7818608E-02  0.1120416E+00
         21   -1    0    0  501  502  0.00000000000E+00  0.00000000000E+00  0.90469866093E+02  0.90469866093E+02  0.00000000000E+00 0.  1.
         21   -1    0    0  502  503 -0.00000000000E+00 -0.00000000000E+00 -0.10207676741E+04  0.10207676741E+04  0.00000000000E+00 0. -1.
         -6    2    1    2    0  503 -0.15769656623E+03  0.51619218721E+02 -0.80801232448E+03  0.84151612554E+03  0.16653144535E+03 0.  0.
        -24    2    3    3    0    0 -0.88524165725E+02  0.71940804231E+02 -0.68397528872E+03  0.69797148415E+03  0.79561233567E+02 0.  0.
          6    2    1    2  501    0  0.15769656623E+03 -0.51619218721E+02 -0.12228548350E+03  0.26972141462E+03  0.17396307450E+03 0.  0.
         24    2    5    5    0    0  0.11107078346E+03 -0.83820336326E+02 -0.13674805596E+03  0.21105173253E+03  0.80499908550E+02 0.  0.
          5    1    5    5  501    0  0.46625782775E+02  0.32201117605E+02  0.14462572463E+02  0.58669682091E+02  0.47000000000E+01 0. -1.
        -11    1    6    6    0    0  0.34200869780E+02 -0.75979372714E+02 -0.75738896052E+02  0.11260082125E+03  0.00000000000E+00 0.  1.
         12    1    6    6    0    0  0.76869913676E+02 -0.78409636124E+01 -0.61009159906E+02  0.98450911278E+02  0.00000000000E+00 0. -1.
         -5    1    3    3    0  503 -0.69172400507E+02 -0.20321585509E+02 -0.12403703576E+03  0.14354464138E+03  0.47000000000E+01 0.  1.
         11    1    4    4    0    0 -0.83906025150E+02  0.48715934832E+02 -0.35122074990E+03  0.36437546366E+03  0.00000000000E+00 0. -1.
        -12    1    4    4    0    0 -0.46181405749E+01  0.23224869399E+02 -0.33275453882E+03  0.33359602049E+03  0.00000000000E+00 0.  1.
</event>
<event>
12    1  0.8356052E-002  0.3208885E+03  0.7818608E-02  0.1075252E+00
         21   -1    0    0  501  502  0.00000000000E+00  0.00000000000E+00  0.95134947618E+03  0.95134947618E+03  0.00000000000E+00 0. -1.
         21   -1    0    0  502  503 -0.00000000000E+00 -0.00000000000E+00 -0.11523222955E+03  0.11523222955E+03  0.00000000000E+00 0.  1.
         -6    2    1    2    0  503  0.18593324609E+03  0.19664207446E+03  0.28628210054E+03  0.42995925893E+03  0.17224472648E+03 0.  0.
        -24    2    3    3    0    0  0.37946785705E+02  0.14194063707E+03  0.13894725938E+03  0.21403824298E+03  0.70135052376E+02 0.  0.
          6    2    1    2  501    0 -0.18593324609E+03 -0.19664207446E+03  0.54983514609E+03  0.63662244680E+03  0.17242440210E+03 0.  0.
         24    2    5    5    0    0 -0.86715997765E+02 -0.51054929452E+02  0.33890727901E+03  0.36175459806E+03  0.76694037342E+02 0.  0.
          5    1    5    5  501    0 -0.99217248326E+02 -0.14558714501E+03  0.21092786708E+03  0.27486784873E+03  0.47000000000E+01 0. -1.
        -11    1    6    6    0    0 -0.64993692741E+01  0.10117090242E+02  0.51437936524E+01  0.13078835157E+02  0.00000000000E+00 0.  1.
         12    1    6    6    0    0 -0.80216628491E+02 -0.61172019694E+02  0.33376348536E+03  0.34867576291E+03  0.00000000000E+00 0. -1.
         -5    1    3    3    0  503  0.14798646039E+03  0.54701437394E+02  0.14733484116E+03  0.21592101595E+03  0.47000000000E+01 0.  1.
         13    1    4    4    0    0  0.42048865407E+02  0.80077943082E+02  0.11783165200E+03  0.14854252678E+03  0.00000000000E+00 0. -1.
        -14    1    4    4    0    0 -0.41020797021E+01  0.61862693983E+02  0.21115607381E+02  0.65495716194E+02  0.00000000000E+00 0.  1.
</event>
<event>
12    1  0.8356052E-002  0.1879982E+03  0.7818608E-02  0.1160433E+00
         21   -1    0    0  501  502  0.00000000000E+00  0.00000000000E+00  0.27448034412E+03  0.27448034412E+03  0.00000000000E+00 0. -1.
         21   -1    0    0  502  503 -0.00000000000E+00 -0.00000000000E+00 -0.13023631907E+03  0.13023631907E+03  0.00000000000E+00 0.  1.
         -6    2    1    2    0  503 -0.64322037464E+02 -0.39412677931E+02  0.47359900001E+02  0.19322231748E+03  0.17146784002E+03 0.  0.
        -24    2    3    3    0    0 -0.10343489614E+03 -0.54372600410E+00  0.21382923368E+02  0.13208718476E+03  0.79314069303E+02 0.  0.
          6    2    1    2  501    0  0.64322037464E+02  0.39412677931E+02  0.96884125047E+02  0.21149434571E+03  0.17219942188E+03 0.  0.
         24    2    5    5    0    0  0.29073420778E+02  0.75363825443E+02  0.11003825148E+03  0.15924426410E+03  0.82008224460E+02 0.  0.
          5    1    5    5  501    0  0.35248616686E+02 -0.35951147513E+02 -0.13154126436E+02  0.52250081609E+02  0.47000000000E+01 0. -1.
        -13    1    6    6    0    0  0.89739085787E-01  0.26575027869E+02  0.97593621672E+02  0.10114719546E+03  0.00000000000E+00 0.  1.
         14    1    6    6    0    0  0.28983681692E+02  0.48788797575E+02  0.12444629811E+02  0.58097068638E+02  0.00000000000E+00 0. -1.
         -5    1    3    3    0  503  0.39112858676E+02 -0.38868951926E+02  0.25976976633E+02  0.61135132720E+02  0.47000000000E+01 0.  1.
         13    1    4    4    0    0 -0.61567915971E+02 -0.34056035691E+02  0.32203462768E+02  0.77378839860E+02  0.00000000000E+00 0. -1.
        -14    1    4    4    0    0 -0.41866980170E+02  0.33512309687E+02 -0.10820539400E+02  0.54708344902E+02  0.00000000000E+00 0.  1.
</event>
<event>
12    1  0.8356052E-002  0.2255620E+03  0.7818608E-02  0.1130342E+00
         21   -1    0    0  503  502  0.00000000000E+00  0.00000000000E+00  0.15973204778E+03  0.15973204778E+03  0.00000000000E+00 0. -1.
         21   -1    0    0  501  503 -0.00000000000E+00 -0.00000000000E+00 -0.35830359731E+03  0.35830359731E+03  0.00000000000E+00 0. -1.
          6    2    1    2  501    0  0.33796981644E+02 -0.14123685332E+03 -0.91450301083E+01  0.22574729109E+03  0.17259236123E+03 0.  0.
         24    2    3    3    0    0  0.84341493100E+02 -0.66312972858E+02  0.53844747132E+01  0.13408741976E+03  0.80246780262E+02 0.  0.
         -6    2    1    2    0  502 -0.33796981644E+02  0.14123685332E+03 -0.18942651942E+03  0.29228835400E+03  0.16870089187E+03 0.  0.
        -24    2    5    5    0    0 -0.10655159700E+02  0.11786783616E+03 -0.44594618644E+02  0.14369486703E+03  0.68214188922E+02 0.  0.
          5    1    3    3  501    0 -0.50544511457E+02 -0.74923880466E+02 -0.14529504821E+02  0.91659871333E+02  0.47000000000E+01 0. -1.
        -11    1    4    4    0    0 -0.15676163459E+02 -0.13610769799E+02  0.32549702830E+01  0.21014042611E+02  0.00000000000E+00 0.  1.
         12    1    4    4    0    0  0.10001765656E+03 -0.52702203059E+02  0.21295044302E+01  0.11307337715E+03  0.00000000000E+00 0. -1.
         -5    1    5    5    0  502 -0.23141821944E+02  0.23369017165E+02 -0.14483190078E+03  0.14859348697E+03  0.47000000000E+01 0.  1.
         11    1    6    6    0    0 -0.13495950810E+02  0.72721944464E+02 -0.60695671975E+02  0.95679603319E+02  0.00000000000E+00 0. -1.
        -12    1    6    6    0    0  0.28407911101E+01  0.45145891695E+02  0.16101053331E+02  0.48015263713E+02  0.00000000000E+00 0.  1.
</event>
<event>
12    1  0.8356052E-002  0.1855280E+03  0.7818608E-02  0.1164257E+00
         21   -1    0    0  501  502  0.00000000000E+00  0.00000000000E+00  0.36965638105E+03  0.36965638105E+03  0.00000000000E+00 0.  1.
         21   -1    0    0  502  503 -0.00000000000E+00 -0.00000000000E+00 -0.32816628120E+03  0.32816628120E+03  0.00000000000E+00 0.  1.
         -6    2    1    2    0  503  0.44379552042E+02 -0.52875316832E+02 -0.27664354767E+03  0.33309499569E+03  0.17220708440E+03 0.  0.
        -24    2    3    3    0    0  0.68136467629E+01  0.16563406731E+02 -0.22239126156E+03  0.23718704963E+03  0.80492552890E+02 0.  0.
          6    2    1    2  501    0 -0.44379552042E+02  0.52875316832E+02  0.31813364752E+03  0.36472766656E+03  0.16447464637E+03 0.  0.
         24    2    5    5    0    0 -0.10623038996E+02 -0.29300255996E+02  0.11322179057E+03  0.14133723243E+03  0.78649128742E+02 0.  0.
          5    1    5    5  501    0 -0.33756513046E+02  0.82175572828E+02  0.20491185695E+03  0.22339043413E+03  0.47000000000E+01 0. -1.
        -13    1    6    6    0    0  0.20006522864E+02  0.15591546740E+02  0.60582036099E+02  0.65677548559E+02  0.00000000000E+00 0.  1.
         14    1    6    6    0    0 -0.30629561859E+02 -0.44891802736E+02  0.52639754475E+02  0.75659683873E+02  0.00000000000E+00 0. -1.
         -5    1    3    3    0  503  0.37565905279E+02 -0.69438723562E+02 -0.54252286111E+02  0.95907946061E+02  0.47000000000E+01 0.  1.
         11    1    4    4    0    0 -0.83778903625E+01  0.25599320231E+02 -0.18841344590E+02  0.32871119683E+02  0.00000000000E+00 0. -1.
        -12    1    4    4    0    0  0.15191537125E+02 -0.90359135009E+01 -0.20354991697E+03  0.20431592995E+03  0.00000000000E+00 0.  1.
</event>
<event>
12    1  0.8356052E-002  0.2689554E+03  0.7818608E-02  0.1102829E+00
         21   -1    0    0  503  502  0.00000000000E+00  0.00000000000E+00  0.45314067612E+03  0.45314067612E+03  0.00000000000E+00 0.  1.
         21   -1    0    0  501  503 -0.00000000000E+00 -0.00000000000E+00 -0.15578776002E+03  0.15578776002E+03  0.00000000000E+00 0.  1.
          6    2    1    2  501    0  0.18936226924E+03  0.80937682638E+02  0.15130268985E+03  0.30859280850E+03  0.17299722547E+03 0.  0.
         24    2    3    3    0    0  0.54941760498E+02 -0.38052189703E+01  0.97026074654E+02  0.14060985252E+03  0.85580340761E+02 0.  0.
         -6    2    1    2    0  502 -0.18936226924E+03 -0.80937682638E+02  0.14605022625E+03  0.30033562764E+03  0.16267096595E+03 0.  0.
        -24    2    5    5    0    0 -0.51266714936E+02  0.28435669269E+01  0.18000245838E+01  0.83725631158E+02  0.66108844273E+02 0.  0.
          5    1    3    3  501    0  0.13442050874E+03  0.84742901608E+02  0.54276615200E+02  0.16798295598E+03  0.47000000000E+01 0. -1.
        -13    1    4    4    0    0  0.58293662033E+02  0.22740674676E+02  0.31970219404E+02  0.70266522944E+02  0.00000000000E+00 0.  1.
         14    1    4    4    0    0 -0.33519015357E+01 -0.26545893646E+02  0.65055855251E+02  0.70343329575E+02  0.00000000000E+00 0. -1.
         -5    1    5    5    0  502 -0.13809555430E+03 -0.83781249565E+02  0.14425020166E+03  0.21660999648E+03  0.47000000000E+01 0.  1.
         11    1    6    6    0    0  0.65156653314E+01 -0.12509645717E+02 -0.16014847442E+02  0.21340582683E+02  0.00000000000E+00 0. -1.
        -12    1    6    6    0    0 -0.57782380267E+02  0.15353212644E+02  0.17814872026E+02  0.62385048474E+02  0.00000000000E+00 0.  1.
</event>
<event>
12    1  0.8356052E-002  0.2007721E+03  0.7818608E-02  0.1149156E+00
         21   -1    0    0  501  502  0.00000000000E+00  0.00000000000E+00  0.31384172408E+03  0.31384172408E+03  0.00000000000E+00 0. -1.
         21   -1    0    0  502  503 -0.00000000000E+00 -0.00000000000E+00 -0.13306288827E+03  0.13306288827E+03  0.00000000000E+00 0.  1.
         -6    2    1    2    0  503 -0.90531296003E+02  0.45604840164E+02  0.13301543702E+03  0.24083721174E+03  0.17330244970E+03 0.  0.
        -24    2    3    3    0    0 -0.44062345612E+02  0.12614022185E+02  0.15337855919E+03  0.18013709505E+03  0.82606214877E+02 0.  0.
          6    2    1    2  501    0  0.90531296003E+02 -0.45604840164E+02  0.47763398791E+02  0.20606740060E+03  0.17293557854E+03 0.  0.
         24    2    5    5    0    0  0.11269575824E+03 -0.48942503603E+02  0.79884724030E+02  0.16661777553E+03  0.79273018151E+02 0.  0.
          5    1    5    5  501    0 -0.22164462232E+02  0.33376634394E+01 -0.32121325239E+02  0.39449625073E+02  0.47000000000E+01 0. -1.
        -11    1    6    6    0    0  0.92059483473E+01 -0.18787926881E+02 -0.12739647566E+02  0.24495597596E+02  0.00000000000E+00 0.  1.
         12    1    6    6    0    0  0.10348980989E+03 -0.30154576722E+02  0.92624371595E+02  0.14212217794E+03  0.00000000000E+00 0. -1.
         -5    1    3    3    0  503 -0.46468950391E+02  0.32990817979E+02 -0.20363122177E+02  0.60700116690E+02  0.47000000000E+01 0.  1.
         13    1    4    4    0    0 -0.34544007545E+02  0.42831781468E+02  0.59438971782E+02  0.80999020534E+02  0.00000000000E+00 0. -1.
        -14    1    4    4    0    0 -0.95183380673E+01 -0.30217759283E+02  0.93939587413E+02  0.99138074517E+02  0.00000000000E+00 0.  1.
</event>
<event>
12    1  0.8356052E-002  0.2582922E+03  0.7818608E-02  0.1108601E+00
         21   -1    0    0  501  502  0.00000000000E+00  0.00000000000E+00  0.85270204524E+03  0.85270204524E+03  0.00000000000E+00 0.  1.
         21   -1    0    0  502  503 -0.00000000000E+00 -0.00000000000E+00 -0.19496527698E+03  0.19496527698E+03  0.00000000000E+00 0.  1.
         -6    2    1    2    0  503 -0.15807920338E+03 -0.10584134875E+03 -0.77204625480E+02  0.26958380665E+03  0.17470961327E+03 0.  0.
        -24    2    3    3    0    0 -0.83036902641E+02 -0.53003403990E+02  0.28328727990E+02  0.12964605620E+03  0.79379437041E+02 0.  0.
          6    2    1    2  501    0  0.15807920338E+03  0.10584134875E+03  0.73494139374E+03  0.77808351557E+03  0.17053937763E+03 0.  0.
         24    2    5    5    0    0  0.16346033000E+03  0.12505896426E+03  0.71970379134E+03  0.75253850047E+03  0.77340955491E+02 0.  0.
          5    1    5    5  501    0 -0.53811266173E+01 -0.19217615506E+02  0.15237602394E+02  0.25545015093E+02  0.47000000000E+01 0. -1.
        -13    1    6    6    0    0  0.14659750482E+03  0.75667749561E+02  0.49170879209E+03  0.51864628887E+03  0.00000000000E+00 0.  1.
         14    1    6    6    0    0  0.16862825172E+02  0.49391214695E+02  0.22799499926E+03  0.23389221160E+03  0.00000000000E+00 0. -1.
         -5    1    3    3    0  503 -0.75042300739E+02 -0.52837944760E+02 -0.10553335347E+03  0.13993775045E+03  0.47000000000E+01 0.  1.
         13    1    4    4    0    0 -0.65997864982E+02 -0.60917623629E+02 -0.65249007506E+01  0.90051370787E+02  0.00000000000E+00 0. -1.
        -14    1    4    4    0    0 -0.17039037658E+02  0.79142196388E+01  0.34853628741E+02  0.39594685416E+02  0.00000000000E+00 0.  1.
</event>
<event>
12    1  0.8356052E-002  0.1778467E+03  0.7818608E-02  0.1170136E+00
         21   -1    0    0  503  502  0.00000000000E+00  0.00000000000E+00  0.16656096090E+04  0.16656096090E+04  0.00000000000E+00 0. -1.
         21   -1    0    0  501  503 -0.00000000000E+00 -0.00000000000E+00 -0.18980130505E+02  0.18980130505E+02  0.00000000000E+00 0. -1.
          6    2    1    2  501    0  0.21970393020E+02  0.35813714906E+02  0.76715171229E+03  0.78749679502E+03  0.17281241896E+03 0.  0.
         24    2    3    3    0    0 -0.46778761002E+02  0.44002410338E+02  0.37049978052E+03  0.38482031708E+03  0.81805406117E+02 0.  0.
         -6    2    1    2    0  502 -0.21970393020E+02 -0.35813714906E+02  0.87947776619E+03  0.89709294448E+03  0.17184088413E+03 0.  0.
        -24    2    5    5    0    0 -0.80990318785E+01  0.80484929636E+00  0.18986620352E+03  0.20635454879E+03  0.80416307226E+02 0.  0.
          5    1    3    3  501    0  0.68749154022E+02 -0.81886954321E+01  0.39665193177E+03  0.40267647794E+03  0.47000000000E+01 0. -1.
        -11    1    4    4    0    0 -0.37803801400E+02  0.55474715843E+02  0.15605634599E+03  0.16988276729E+03  0.00000000000E+00 0.  1.
         12    1    4    4    0    0 -0.89749596018E+01 -0.11472305505E+02  0.21444343454E+03  0.21493754979E+03  0.00000000000E+00 0. -1.
         -5    1    5    5    0  502 -0.13871361142E+02 -0.36618564202E+02  0.68961156268E+03  0.69073839569E+03  0.47000000000E+01 0.  1.
         13    1    6    6    0    0 -0.21836167418E+02 -0.22165150919E+02  0.17050685602E+03  0.17332253192E+03  0.00000000000E+00 0. -1.
        -14    1    6    6    0    0  0.13737135540E+02  0.22970000215E+02  0.19359347502E+02  0.33032016869E+02  0.00000000000E+00 0.  1.
</event>
<event>
12    1  0.8356052E-002  0.2162199E+03  0.7818608E-02  0.1136913E+00
         21   -1    0    0  503  502  0.00000000000E+00  0.00000000000E+00  0.96182188092E+03  0.96182188092E+03  0.00000000000E+00 0.  1.
         21   -1    0    0  501  503 -0.00000000000E+00 -0.00000000000E+00 -0.79245307102E+02  0.79245307102E+02  0.00000000000E+00 0.  1.
          6    2    1    2  501    0 -0.11858785595E+03 -0.53746906066E+02  0.11709540255E+03  0.24589102896E+03  0.17262460813E+03 0.  0.
         24    2    3    3    0    0 -0.11024672090E+03 -0.84035183257E+02  0.42353041515E+02  0.16467856192E+03  0.78160073789E+02 0.  0.
         -6    2    1    2    0  502  0.11858785595E+03  0.53746906066E+02  0.76548117127E+03  0.79517615907E+03  0.17144063374E+03 0.  0.
        -24    2    5    5    0    0  0.72789295011E+02  0.21501927992E+02  0.21183472376E+03  0.23868381803E+03  0.79595228650E+02 0.  0.
          5    1    3    3  501    0 -0.83411350453E+01  0.30288277192E+02  0.74742361038E+02  0.81212467040E+02  0.47000000000E+01 0. -1.
        -11    1    4    4    0    0 -0.51393878389E+02  0.45461967510E+01  0.44900282332E+01  0.51789564531E+02  0.00000000000E+00 0.  1.
         12    1    4    4    0    0 -0.58852842512E+02 -0.88581380008E+02  0.37863013282E+02  0.11288899739E+03  0.00000000000E+00 0. -1.
         -5    1    5    5    0  502  0.45798560935E+02  0.32244978074E+02  0.55364644751E+03  0.55649234104E+03  0.47000000000E+01 0.  1.
         11    1    6    6    0    0  0.38897718839E+02 -0.13639702258E+02  0.31558076549E+02  0.51913256535E+02  0.00000000000E+00 0. -1.
        -12    1    6    6    0    0  0.33891576172E+02  0.35141630250E+02  0.18027664721E+03  0.18677056149E+03  0.00000000000E+00 0.  1.
</event>
<event>
12    1  0.8356052E-002  0.3168293E+03  0.7818608E-02  0.1077207E+00
         21   -1    0    0  501  502  0.00000000000E+00  0.00000000000E+00  0.75537561892E+03  0.75537561892E+03  0.00000000000E+00 0. -1.
         21   -1    0    0  502  503 -0.00000000000E+00 -0.00000000000E+00 -0.13391612509E+03  0.13391612509E+03  0.00000000000E+00 0.  1.
         -6    2    1    2    0  503 -0.17680569923E+03 -0.19825302993E+03  0.35497746898E+03  0.47529476577E+03  0.17126468325E+03 0.  0.
        -24    2    3    3    0    0 -0.16993736764E+03 -0.92928562182E+02  0.24198066314E+03  0.32059898168E+03  0.81942901655E+02 0.  0.
          6    2    1    2  501    0  0.17680569923E+03  0.19825302993E+03  0.26648202485E+03  0.41399697824E+03  0.17267399707E+03 0.  0.
         24    2    5    5    0    0  0.85051904073E+02  0.12046737027E+03  0.64942103731E+02  0.17924221774E+03  0.78511668530E+02 0.  0.
          5    1    5    5  501    0  0.91753795154E+02  0.77785659661E+02  0.20153992112E+03  0.23475476050E+03  0.47000000000E+01 0. -1.
        -13    1    6    6    0    0  0.50650352843E+02  0.10927142657E+03  0.74760174929E+02  0.14175608157E+03  0.00000000000E+00 0.  1.
         14    1    6    6    0    0  0.34401551230E+02  0.11195943704E+02 -0.98180711978E+01  0.37486136164E+02  0.00000000000E+00 0. -1.
         -5    1    3    3    0  503 -0.68683315910E+01 -0.10532446775E+03  0.11299680584E+03  0.15469578409E+03  0.47000000000E+01 0.  1.
         11    1    4    4    0    0 -0.12040092936E+03 -0.98850847260E+02  0.15164665895E+03  0.21740419262E+03  0.00000000000E+00 0. -1.
        -12    1    4    4    0    0 -0.49536438273E+02  0.59222850783E+01  0.90334004185E+02  0.10319478906E+03  0.00000000000E+00 0.  1.
</event>
<event>
12    1  0.8356052E-002  0.2429791E+03  0.7818608E-02  0.1117936E+00
         21   -1    0    0  501  502  0.00000000000E+00  0.00000000000E+00  0.60153110743E+02  0.60153110743E+02  0.00000000000E+00 0. -1.
         21   -1    0    0  502  503 -0.00000000000E+00 -0.00000000000E+00 -0.11013665850E+04  0.11013665850E+04  0.00000000000E+00 0. -1.
         -6    2    1    2    0  503 -0.90834584021E+02  0.14469397974E+03 -0.71376113462E+03  0.75376501121E+03  0.17181229700E+03 0.  0.
        -24    2    3    3    0    0 -0.31052270218E+02 -0.34874464882E+01 -0.30470965213E+03  0.31458752379E+03  0.71700294688E+02 0.  0.
          6    2    1    2  501    0  0.90834584021E+02 -0.14469397974E+03 -0.32745233965E+03  0.40775468455E+03  0.17277609384E+03 0.  0.
         24    2    5    5    0    0 -0.38675887223E+00 -0.25366652738E+02 -0.69358587197E+02  0.10909966714E+03  0.80302597086E+02 0.  0.
          5    1    5    5  501    0  0.91221342894E+02 -0.11932732700E+03 -0.25809375245E+03  0.29865501741E+03  0.47000000000E+01 0. -1.
        -11    1    6    6    0    0 -0.12682472779E+02 -0.37932400922E+02 -0.79362919440E+02  0.88871734188E+02  0.00000000000E+00 0.  1.
         12    1    6    6    0    0  0.12295713907E+02  0.12565748184E+02  0.10004332243E+02  0.20227932953E+02  0.00000000000E+00 0. -1.
         -5    1    3    3    0  503 -0.59782313803E+02  0.14818142622E+03 -0.40905148249E+03  0.43917748741E+03  0.47000000000E+01 0.  1.
         13    1    4    4    0    0 -0.22437511842E+02  0.23458124035E+02 -0.25759587244E+03  0.25963312389E+03  0.00000000000E+00 0. -1.
        -14    1    4    4    0    0 -0.86147583765E+01 -0.26945570523E+02 -0.47113779686E+02  0.54954399906E+02  0.00000000000E+00 0.  1.
</event>
<event>
12    1  0.8356052E-002  0.2150841E+03  0.7818608E-02  0.1138860E+00
         21   -1    0    0  503  502  0.00000000000E+00  0.00000000000E+00  0.38645020915E+02  0.38645020915E+02  0.00000000000E+00 0.  1.
         21   -1    0    0  501  503 -0.00000000000E+00 -0.00000000000E+00 -0.11638799350E+04  0.11638799350E+04  0.00000000000E+00 0.  1.
          6    2    1    2  501    0 -0.13939116816E+02 -0.12588150484E+03 -0.58147012970E+03  0.61776746410E+03  0.16579709203E+03 0.  0.
         24    2    3    3    0    0  0.47871470908E+02 -0.92078289766E+02 -0.31690846644E+03  0.34394604461E+03  0.84248539026E+02 0.  0.
         -6    2    1    2    0  502  0.13939116816E+02  0.12588150484E+03 -0.54376478435E+03  0.58475749178E+03  0.17384110923E+03 0.  0.
        -24    2    5    5    0    0 -0.34285362093E+02  0.12835248966E+03 -0.33028028639E+03  0.36582958812E+03  0.84239968613E+02 0.  0.
          5    1    3    3  501    0 -0.61810587724E+02 -0.33803215076E+02 -0.26456166326E+03  0.27382141949E+03  0.47000000000E+01 0. -1.
        -11    1    4    4    0    0  0.38077251258E+01  0.79992078544E+01 -0.10605957734E+03  0.10642894363E+03  0.00000000000E+00 0.  1.
         12    1    4    4    0    0  0.44063745782E+02 -0.10007749762E+03 -0.21084888910E+03  0.23751710098E+03  0.00000000000E+00 0. -1.
         -5    1    5    5    0  502  0.48224478909E+02 -0.24709848155E+01 -0.21348449796E+03  0.21892790366E+03  0.47000000000E+01 0.  1.
         13    1    6    6    0    0 -0.49844047397E+02  0.11335580414E+03 -0.31733366917E+03  0.34063855475E+03  0.00000000000E+00 0. -1.
        -14    1    6    6    0    0  0.15558685304E+02  0.14996685516E+02 -0.12946617220E+02  0.25191033371E+02  0.00000000000E+00 0.  1.
</event>
<event>
12    1  0.8356052E-002  0.1812774E+03  0.7818608E-02  0.1166782E+00
         21   -1    0    0  503  502  0.00000000000E+00  0.00000000000E+00  0.32652055603E+03  0.32652055603E+03  0.00000000000E+00 0.  1.
         21   -1    0    0  501  503 -0.00000000000E+00 -0.00000000000E+00 -0.61695763941E+03  0.61695763941E+03  0.00000000000E+00 0.  1.
          6    2    1    2  501    0 -0.43754427023E+02 -0.35155547758E+02 -0.57702845050E+03  0.60483331988E+03  0.17236922502E+03 0.  0.
         24    2    3    3    0    0 -0.69115217218E+02 -0.11347574228E+02 -0.20621981111E+03  0.23236704446E+03  0.81007111817E+02 0.  0.
         -6    2    1    2    0  502  0.43754427023E+02  0.35155547758E+02  0.28659136712E+03  0.33864487556E+03  0.17145080231E+03 0.  0.
        -24    2    5    5    0    0 -0.36619616065E+02  0.23003678708E+02  0.19640756939E+03  0.21714235666E+03  0.81882258337E+02 0.  0.
          5    1    3    3  501    0  0.25360790195E+02 -0.23807973531E+02 -0.37080863938E+03  0.37246627542E+03  0.47000000000E+01 0. -1.
        -13    1    4    4    0    0 -0.19093181276E+02 -0.34368062979E+02 -0.14404364692E+03  0.14931271059E+03  0.00000000000E+00 0.  1.
         14    1    4    4    0    0 -0.50022035942E+02  0.23020488751E+02 -0.62176164190E+02  0.83054333876E+02  0.00000000000E+00 0. -1.
         -5    1    5    5    0  502  0.80374043088E+02  0.12151869050E+02  0.90183797735E+02  0.12150251889E+03  0.47000000000E+01 0.  1.
         13    1    6    6    0    0 -0.41536329016E+01 -0.94021213343E+01 -0.43862736022E+01  0.11175506610E+02  0.00000000000E+00 0. -1.
        -14    1    6    6    0    0 -0.32465983164E+02  0.32405800043E+02  0.20079384299E+03  0.20596685005E+03  0.00000000000E+00 0.  1.
</event>
<event>
12    1  0.8356052E-002  0.1846592E+03  0.7818608E-02  0.1163589E+00
         21   -1    0    0  501  502  0.00000000000E+00  0.00000000000E+00  0.13876370699E+03  0.13876370699E+03  0.00000000000E+00 0. -1.
         21   -1    0    0  502  503 -0.00000000000E+00 -0.00000000000E+00 -0.83706240998E+03  0.83706240998E+03  0.00000000000E+00 0. -1.
         -6    2    1    2    0  503  0.58013227652E+02 -0.27985406070E+02 -0.75941057667E+03  0.78131729221E+03  0.17205687903E+03 0.  0.
        -24    2    3    3    0    0  0.55165904189E+02 -0.69339846455E+00 -0.74246566715E+03  0.74872617550E+03  0.79321253096E+02 0.  0.
          6    2    1    2  501    0 -0.58013227652E+02  0.27985406070E+02  0.61111873682E+02  0.19450882475E+03  0.17306156207E+03 0.  0.
         24    2    5    5    0    0 -0.28847447249E+02 -0.52078049009E+02  0.31091878994E+02  0.10404286615E+03  0.79460145074E+02 0.  0.
          5    1    5    5  501    0 -0.29165780404E+02  0.80063455079E+02  0.30019994689E+02  0.90465958608E+02  0.47000000000E+01 0. -1.
        -11    1    6    6    0    0 -0.79853657448E+01 -0.35897014769E+02 -0.23333033313E+02  0.43552177661E+02  0.00000000000E+00 0.  1.
         12    1    6    6    0    0 -0.20862081504E+02 -0.16181034240E+02  0.54424912307E+02  0.60490688485E+02  0.00000000000E+00 0. -1.
         -5    1    3    3    0  503  0.28473234632E+01 -0.27292007606E+02 -0.16944909514E+02  0.32591116711E+02  0.47000000000E+01 0.  1.
         13    1    4    4    0    0  0.34792179023E+02 -0.38361839896E+02 -0.48052906608E+03  0.48331181429E+03  0.00000000000E+00 0. -1.
        -14    1    4    4    0    0  0.20373725167E+02  0.37668441431E+02 -0.26193660107E+03  0.26541436121E+03  0.00000000000E+00 0.  1.
</event>
<event>
12    1  0.8356052E-002  0.2613269E+03  0.7818608E-02  0.1108183E+00
         21   -1    0    0  501  502  0.00000000000E+00  0.00000000000E+00  0.16636422570E+03  0.16636422570E+03  0.00000000000E+00 0. -1.
         21   -1    0    0  502  503 -0.00000000000E+00 -0.00000000000E+00 -0.49903842231E+03  0.49903842231E+03  0.00000000000E+00 0.  1.
         -6    2    1    2    0  503  0.51154250561E+02 -0.17245152500E+03 -0.91315013911E+01  0.24950409308E+03  0.17266332072E+03 0.  0.
        -24    2    3    3    0    0  0.23642925102E+02 -0.31197693189E+02 -0.45954894131E+02  0.10088521715E+03  0.80831248768E+02 0.  0.
          6    2    1    2  501    0 -0.51154250561E+02  0.17245152500E+03 -0.32354269522E+03  0.41589855493E+03  0.18956646996E+03 0.  0.
         24    2    5    5    0    0 -0.91917253151E+02  0.14436941397E+03 -0.31201480273E+03  0.36485730057E+03  0.80475484126E+02 0.  0.
          5    1    5    5  501    0  0.40763002590E+02  0.28082111038E+02 -0.11527892491E+02  0.51041254352E+02  0.47000000000E+01 0. -1.
        -11    1    6    6    0    0 -0.64814444857E+02  0.36233324376E+02 -0.15955161095E+03  0.17598432491E+03  0.00000000000E+00 0.  1.
         12    1    6    6    0    0 -0.27102808294E+02  0.10813608959E+03 -0.15246319178E+03  0.18887297567E+03  0.00000000000E+00 0. -1.
         -5    1    3    3    0  503  0.27511325458E+02 -0.14125383181E+03  0.36823392740E+02  0.14861887593E+03  0.47000000000E+01 0.  1.
         11    1    4    4    0    0  0.37389667648E+02 -0.77414403075E+01  0.93042726672E+01  0.39299957185E+02  0.00000000000E+00 0. -1.
        -12    1    4    4    0    0 -0.13746742546E+02 -0.23456252881E+02 -0.55259166798E+02  0.61585259966E+02  0.00000000000E+00 0.  1.
</event>
<event>
12    1  0.8356052E-002  0.1924575E+03  0.7818608E-02  0.1156411E+00
         21   -1    0    0  503  502  0.00000000000E+00  0.00000000000E+00  0.13437688212E+03  0.13437688212E+03  0.00000000000E+00 0.  1.
         21   -1    0    0  501  503 -0.00000000000E+00 -0.00000000000E+00 -0.37681474143E+03  0.37681474143E+03  0.00000000000E+00 0.  1.
          6    2    1    2  501    0  0.48759720929E+01 -0.85259713971E+02 -0.25443471695E+03  0.31902492722E+03  0.17247285314E+03 0.  0.
         24    2    3    3    0    0  0.32844681627E+02 -0.15052215511E+02 -0.22001340935E+03  0.23584886114E+03  0.76898912222E+02 0.  0.
         -6    2    1    2    0  502 -0.48759720929E+01  0.85259713971E+02  0.11996857642E+02  0.19216669632E+03  0.17172978965E+03 0.  0.
        -24    2    5    5    0    0 -0.32426207982E+02 -0.14973827998E+02 -0.45465761477E+00  0.87367322922E+02  0.79731850047E+02 0.  0.
          5    1    3    3  501    0 -0.27968709534E+02 -0.70207498461E+02 -0.34421307595E+02  0.83176066087E+02  0.47000000000E+01 0. -1.
        -13    1    4    4    0    0 -0.22618633715E+02 -0.18036414334E+02 -0.87762145399E+02  0.92407299485E+02  0.00000000000E+00 0.  1.
         14    1    4    4    0    0  0.55463315342E+02  0.29841988227E+01 -0.13225126396E+03  0.14344156165E+03  0.00000000000E+00 0. -1.
         -5    1    5    5    0  502  0.27550235889E+02  0.10023354197E+03  0.12451515257E+02  0.10479937340E+03  0.47000000000E+01 0.  1.
         11    1    6    6    0    0 -0.27502520134E+02  0.82900539763E+01  0.34624220878E+02  0.44988334934E+02  0.00000000000E+00 0. -1.
        -12    1    6    6    0    0 -0.49236878473E+01 -0.23263881975E+02 -0.35078878493E+02  0.42378987988E+02  0.00000000000E+00 0.  1.
</event>
<event>
12    1  0.8356052E-002  0.2529001E+03  0.7818608E-02  0.1113139E+00
         21   -1    0    0  503  502  0.00000000000E+00  0.00000000000E+00  0.58304956976E+02  0.58304956976E+02  0.00000000000E+00 0.  1.
         21   -1    0    0  501  503 -0.00000000000E+00 -0.00000000000E+00 -0.12778421247E+04  0.12778421247E+04  0.00000000000E+00 0. -1.
          6    2    1    2  501    0 -0.60012626600E+02 -0.16003034542E+03 -0.87981772092E+03  0.91262877571E+03  0.17204892736E+03 0.  0.
         24    2    3    3    0    0 -0.81504305960E+02 -0.39621263162E+02 -0.42806513656E+03  0.44458740271E+03  0.78774368414E+02 0.  0.
         -6    2    1    2    0  502  0.60012626600E+02  0.16003034542E+03 -0.33971944679E+03  0.42351830596E+03  0.18640607861E+03 0.  0.
        -24    2    5    5    0    0  0.25409744053E+02  0.45396150496E+02 -0.26665741894E+03  0.28316693247E+03  0.79817711022E+02 0.  0.
          5    1    3    3  501    0  0.21491679360E+02 -0.12040908226E+03 -0.45175258435E+03  0.46804137300E+03  0.47000000000E+01 0. -1.
        -13    1    4    4    0    0 -0.28593707338E+02 -0.56498975425E+02 -0.19627876474E+03  0.20624036417E+03  0.00000000000E+00 0.  1.
         14    1    4    4    0    0 -0.52910598622E+02  0.16877712262E+02 -0.23178637182E+03  0.23834703854E+03  0.00000000000E+00 0. -1.
         -5    1    5    5    0  502  0.34602882547E+02  0.11463419492E+03 -0.73062027850E+02  0.14035137349E+03  0.47000000000E+01 0.  1.
         13    1    6    6    0    0  0.52988215872E+02  0.39296620341E+02 -0.16618798258E+03  0.17880274312E+03  0.00000000000E+00 0. -1.
        -14    1    6    6    0    0 -0.27578471819E+02  0.60995301548E+01 -0.10046943636E+03  0.10436418935E+03  0.00000000000E+00 0.  1.
</event>
<event>
12    1  0.8356052E-002  0.2125115E+03  0.7818608E-02  0.1139842E+00
         21   -1    0    0  503  502  0.00000000000E+00  0.00000000000E+00  0.26627819178E+03  0.26627819178E+03  0.00000000000E+00 0.  1.
         21   -1    0    0  501  503 -0.00000000000E+00 -0.00000000000E+00 -0.25821778058E+03  0.25821778058E+03  0.00000000000E+00 0.  1.
          6    2    1    2  501    0 -0.12078932657E+03 -0.27842897289E+02 -0.15047086065E+03  0.26038938467E+03  0.17261478326E+03 0.  0.
         24    2    3    3    0    0 -0.58932420161E+02 -0.19207203171E+02 -0.46228077729E+01  0.10166132599E+03  0.80446926917E+02 0.  0.
         -6    2    1    2    0  502  0.12078932657E+03  0.27842897289E+02  0.15853127185E+03  0.26410658769E+03  0.17104045476E+03 0.  0.
        -24    2    5    5    0    0  0.58538318201E+02  0.80866173140E+02  0.11406441748E+03  0.17090762331E+03  0.78947145064E+02 0.  0.
          5    1    3    3  501    0 -0.61856906409E+02 -0.86356941176E+01 -0.14584805288E+03  0.15872805868E+03  0.47000000000E+01 0. -1.
        -11    1    4    4    0    0 -0.53581621918E+02 -0.48198504741E+02 -0.28135065918E+01  0.72124904755E+02  0.00000000000E+00 0.  1.
         12    1    4    4    0    0 -0.53507982428E+01  0.28991301569E+02 -0.18093011810E+01  0.29536421234E+02  0.00000000000E+00 0. -1.
         -5    1    5    5    0  502  0.62251008368E+02 -0.53023275851E+02  0.44466854370E+02  0.93198964385E+02  0.47000000000E+01 0.  1.
         13    1    6    6    0    0 -0.12379937476E+02  0.29850463846E+02  0.76173021526E+01  0.33201450809E+02  0.00000000000E+00 0. -1.
        -14    1    6    6    0    0  0.70918255677E+02  0.51015709294E+02  0.10644711532E+03  0.13770617250E+03  0.00000000000E+00 0.  1.
</event>
<event>
12    1  0.8356052E-002  0.1915801E+03  0.7818608E-02  0.1158048E+00
         21   -1    0    0  501  502  0.00000000000E+00  0.00000000000E+00  0.10217371994E+03  0.10217371994E+03  0.00000000000E+00 0. -1.
         21   -1    0    0  502  503 -0.00000000000E+00 -0.00000000000E+00 -0.71110815589E+03  0.71110815589E+03  0.00000000000E+00 0. -1.
         -6    2    1    2    0  503  0.77245234348E+02  0.39689570491E+02 -0.59562251401E+03  0.62567491361E+03  0.17076542417E+03 0.  0.
        -24    2    3    3    0    0  0.11159382669E+02  0.35546399524E+01 -0.48299654129E+03  0.49010289317E+03  0.82328729508E+02 0.  0.
          6    2    1    2  501    0 -0.77245234348E+02 -0.39689570491E+02 -0.13311921939E+02  0.18760696222E+03  0.16576210897E+03 0.  0.
         24    2    5    5    0    0 -0.79702795557E+02 -0.81243720896E+02  0.10770936624E+02  0.13928656177E+03  0.79571699797E+02 0.  0.
          5    1    5    5  501    0  0.24575612083E+01  0.41554150404E+02 -0.24082858563E+02  0.48320400448E+02  0.47000000000E+01 0. -1.
        -13    1    6    6    0    0 -0.51243888471E+02 -0.38195981739E+01  0.22262236552E+02  0.56001184024E+02  0.00000000000E+00 0.  1.
         14    1    6    6    0    0 -0.28458907086E+02 -0.77424122722E+02 -0.11491299928E+02  0.83285377743E+02  0.00000000000E+00 0. -1.
         -5    1    3    3    0  503  0.66085851679E+02  0.36134930539E+02 -0.11262597271E+03  0.13557202044E+03  0.47000000000E+01 0.  1.
         11    1    4    4    0    0  0.11634264484E+02  0.39285409644E+02 -0.16107910620E+03  0.16620823678E+03  0.00000000000E+00 0. -1.
        -12    1    4    4    0    0 -0.47488181517E+00 -0.35730769692E+02 -0.32191743510E+03  0.32389465639E+03  0.00000000000E+00 0.  1.
</event>
<event>
12    1  0.8356052E-002  0.2310895E+03  0.7818608E-02  0.1126047E+00
         21   -1    0    0  501  502  0.00000000000E+00  0.00000000000E+00  0.13665136111E+04  0.13665136111E+04  0.00000000000E+00 0.  1.
         21   -1    0    0  502  503 -0.00000000000E+00 -0.00000000000E+00 -0.48760159870E+02  0.48760159870E+02  0.00000000000E+00 0.  1.
         -6    2    1    2    0  503  0.72994211570E+02 -0.13374620294E+03  0.97575000599E+03  0.10025163343E+04  0.17243759615E+03 0.  0.
        -24    2    3    3    0    0  0.26035968407E+02 -0.92357683766E+02  0.31665764113E+03  0.34044162433E+03  0.80128799390E+02 0.  0.
          6    2    1    2  501    0 -0.72994211570E+02  0.13374620294E+03  0.34200344525E+03  0.41275743671E+03  0.17374159914E+03 0.  0.
         24    2    5    5    0    0 -0.48371582246E+02  0.73719230433E+02  0.83593788849E+02  0.14628576500E+03  0.81469433546E+02 0.  0.
          5    1    5    5  501    0 -0.24622629325E+02  0.60026972510E+02  0.25840965641E+03  0.26647167172E+03  0.47000000000E+01 0. -1.
        -11    1    6    6    0    0 -0.70374528537E+02  0.43755377213E+02  0.58356915742E+02  0.10135401776E+03  0.00000000000E+00 0.  1.
         12    1    6    6    0    0  0.22002946291E+02  0.29963853220E+02  0.25236873107E+02  0.44931747234E+02  0.00000000000E+00 0. -1.
         -5    1    3    3    0  503  0.46958243164E+02 -0.41388519177E+02  0.65909236487E+03  0.66207470994E+03  0.47000000000E+01 0.  1.
         13    1    4    4    0    0  0.47523589082E+02 -0.34795546803E+02  0.20131905523E+03  0.20975839338E+03  0.00000000000E+00 0. -1.
        -14    1    4    4    0    0 -0.21487620675E+02 -0.57562136963E+02  0.11533858590E+03  0.13068323095E+03  0.00000000000E+00 0.  1.
</event>
<event>
12    1  0.8356052E-002  0.2507500E+03  0.7818608E-02  0.1112940E+00
         21   -1    0    0  503  502  0.00000000000E+00  0.00000000000E+00  0.71017413329E+03  0.71017413329E+03  0.00000000000E+00 0.  1.
         21   -1    0    0  501  503 -0.00000000000E+00 -0.00000000000E+00 -0.12381833529E+03  0.12381833529E+03  0.00000000000E+00 0.  1.
          6    2    1    2  501    0  0.16905763159E+03  0.65571201194E+02  0.70105234719E+02  0.26036574779E+03  0.17319212875E+03 0.  0.
         24    2    3    3    0    0  0.17707887411E+03  0.12049181090E+02  0.69879141598E+02  0.20604182962E+03  0.77897565438E+02 0.  0.
         -6    2    1    2    0  502 -0.16905763159E+03 -0.65571201194E+02  0.51625056328E+03  0.57362672079E+03  0.17220019017E+03 0.  0.
        -24    2    5    5    0    0 -0.13477618824E+03 -0.27879326887E+01  0.44792969983E+03  0.47459750013E+03  0.80183400117E+02 0.  0.
          5    1    3    3  501    0 -0.80212425163E+01  0.53522020104E+02  0.22609312173E+00  0.54323918173E+02  0.47000000000E+01 0. -1.
        -13    1    4    4    0    0  0.46998537936E+02 -0.95507809827E+00 -0.15967397207E+02  0.49646072512E+02  0.00000000000E+00 0.  1.
         14    1    4    4    0    0  0.13008033617E+03  0.13004259188E+02  0.85846538805E+02  0.15639575710E+03  0.00000000000E+00 0. -1.
         -5    1    5    5    0  502 -0.34281443350E+02 -0.62783268506E+02  0.68320863456E+02  0.99029220666E+02  0.47000000000E+01 0.  1.
         13    1    6    6    0    0 -0.84459626155E+02  0.32019062602E+02  0.20382712824E+03  0.22294426888E+03  0.00000000000E+00 0. -1.
        -14    1    6    6    0    0 -0.50316562086E+02 -0.34806995291E+02  0.24410257159E+03  0.25165323125E+03  0.00000000000E+00 0.  1.
</event>
<event>
12    1  0.8356052E-002  0.1967985E+03  0.7818608E-02  0.1152731E+00
         21   -1    0    0  501  502  0.00000000000E+00  0.00000000000E+00  0.25925340628E+02  0.25925340628E+02  0.00000000000E+00 0.  1.
         21   -1    0    0  502  503 -0.00000000000E+00 -0.00000000000E+00 -0.27478480281E+04  0.27478480281E+04  0.00000000000E+00 0.  1.
         -6    2    1    2    0  503 -0.10321529908E+02  0.93845772678E+02 -0.22989975456E+04  0.23073022433E+04  0.17129029201E+03 0.  0.
        -24    2    3    3    0    0 -0.77753058490E+01 -0.90297054660E-01 -0.53964911431E+03  0.54543974549E+03  0.78885270133E+02 0.  0.
          6    2    1    2  501    0  0.10321529908E+02 -0.93845772678E+02 -0.42292514191E+03  0.46647112549E+03  0.17267331069E+03 0.  0.
         24    2    5    5    0    0  0.25009908177E+02 -0.11537100117E+03 -0.41493064304E+03  0.43881093875E+03  0.80322089234E+02 0.  0.
          5    1    5    5  501    0 -0.14688378269E+02  0.21525228496E+02 -0.79944988750E+01  0.27660186735E+02  0.47000000000E+01 0. -1.
        -11    1    6    6    0    0 -0.52450310294E+01 -0.26417233654E+02 -0.21921939488E+02  0.34726819828E+02  0.00000000000E+00 0.  1.
         12    1    6    6    0    0  0.30254939207E+02 -0.88953767520E+02 -0.39300870355E+03  0.40408411892E+03  0.00000000000E+00 0. -1.
         -5    1    3    3    0  503 -0.25462240588E+01  0.93936069733E+02 -0.17593484313E+04  0.17618624978E+04  0.47000000000E+01 0.  1.
         11    1    4    4    0    0 -0.22468662115E+00  0.19244351609E+02 -0.31825997194E+02  0.37192602091E+02  0.00000000000E+00 0. -1.
        -12    1    4    4    0    0 -0.75506192278E+01 -0.19334648664E+02 -0.50782311712E+03  0.50824714340E+03  0.00000000000E+00 0.  1.
</event>
<event>
12    1  0.8356052E-002  0.2751364E+03  0.7818608E-02  0.1098731E+00
         21   -1    0    0  503  502  0.00000000000E+00  0.00000000000E+00  0.34493685099E+02  0.34493685099E+02  0.00000000000E+00 0.  1.
         21   -1    0    0  501  503 -0.00000000000E+00 -0.00000000000E+00 -0.21786457806E+04  0.21786457806E+04  0.00000000000E+00 0.  1.
          6    2    1    2  501    0  0.66750436620E+02  0.20151259170E+03 -0.11155975550E+04  0.11484214245E+04  0.17102899818E+03 0.  0.
         24    2    3    3    0    0  0.62394017150E+02  0.17978398723E+03 -0.64454609936E+03  0.67682554404E+03  0.80236197741E+02 0.  0.
         -6    2    1    2    0  502 -0.66750436620E+02 -0.20151259170E+03 -0.10285545405E+04  0.10647180411E+04  0.17503462222E+03 0.  0.
        -24    2    5    5    0    0 -0.51164614344E+02 -0.34698187263E+02 -0.28411865644E+03  0.30164737676E+03  0.80286655236E+02 0.  0.
          5    1    3    3  501    0  0.43564194701E+01  0.21728604474E+02 -0.47105145561E+03  0.47159588047E+03  0.47000000000E+01 0. -1.
        -11    1    4    4    0    0 -0.18282833688E+01  0.10138086544E+03 -0.25789455972E+03  0.27711193845E+03  0.00000000000E+00 0.  1.
         12    1    4    4    0    0  0.64222300519E+02  0.78403121785E+02 -0.38665153964E+03  0.39971360560E+03  0.00000000000E+00 0. -1.
         -5    1    5    5    0  502 -0.15585822277E+02 -0.16681440444E+03 -0.74443588404E+03  0.76307066438E+03  0.47000000000E+01 0.  1.
         13    1    6    6    0    0 -0.38460416342E+02  0.19842747361E+02 -0.15453822068E+03  0.16048364372E+03  0.00000000000E+00 0. -1.
        -14    1    6    6    0    0 -0.12704198002E+02 -0.54540934624E+02 -0.12958043576E+03  0.14116373305E+03  0.00000000000E+00 0.  1.
</event>
<event>
12    1  0.8356052E-002  0.2240467E+03  0.7818608E-02  0.1131593E+00
         21   -1    0    0  503  502  0.00000000000E+00  0.00000000000E+00  0.11098021069E+03  0.11098021069E+03  0.00000000000E+00 0.  1.
         21   -1    0    0  501  503 -0.00000000000E+00 -0.00000000000E+00 -0.10547516295E+04  0.10547516295E+04  0.00000000000E+00 0. -1.
          6    2    1    2  501    0 -0.14250309815E+03  0.15374704641E+02 -0.91682814511E+03  0.94380654069E+03  0.17220169582E+03 0.  0.
         24    2    3    3    0    0 -0.13676487956E+03 -0.35283167566E+02 -0.79998800014E+03  0.81624143321E+03  0.79496809473E+02 0.  0.
         -6    2    1    2    0  502  0.14250309815E+03 -0.15374704641E+02 -0.26943273676E+02  0.22192529949E+03  0.16727637022E+03 0.  0.
        -24    2    5    5    0    0  0.19206281980E+02 -0.29613736713E+02 -0.42222584908E+02  0.96783770559E+02  0.79614677652E+02 0.  0.
          5    1    3    3  501    0 -0.57382185914E+01  0.50657872207E+02 -0.11684014497E+03  0.12756510748E+03  0.47000000000E+01 0. -1.
        -11    1    4    4    0    0 -0.21214611708E+02 -0.31087588654E+02 -0.33437050910E+03  0.33648199843E+03  0.00000000000E+00 0.  1.
         12    1    4    4    0    0 -0.11555026785E+03 -0.41955789119E+01 -0.46561749105E+03  0.47975943477E+03  0.00000000000E+00 0. -1.
         -5    1    5    5    0  502  0.12329681617E+03  0.14239032072E+02  0.15279311231E+02  0.12514152893E+03  0.47000000000E+01 0.  1.
         13    1    6    6    0    0  0.94381267308E+01 -0.43908753483E+02  0.62198150696E+01  0.45340301809E+02  0.00000000000E+00 0. -1.
        -14    1    6    6    0    0  0.97681552488E+01  0.14295016770E+02 -0.48442399977E+02  0.51443468750E+02  0.00000000000E+00 0.  1.
</event>
<event>
12    1  0.8356052E-002  0.2203275E+03  0.7818608E-02  0.1133738E+00
         21   -1    0    0  503  502  0.00000000000E+00  0.00000000000E+00  0.29976656177E+02  0.29976656177E+02  0.00000000000E+00 0.  1.
         21   -1    0    0  501  503 -0.00000000000E+00 -0.00000000000E+00 -0.18120264892E+04  0.18120264892E+04  0.00000000000E+00 0.  1.
          6    2    1    2  501    0 -0.14346719544E+02 -0.13838611096E+03 -0.11933764873E+04  0.12134488294E+04  0.17015897573E+03 0.  0.
         24    2    3    3    0    0  0.23889965745E+02 -0.49976655457E+02 -0.89869878699E+03  0.90339187819E+03  0.73409667510E+02 0.  0.
         -6    2    1    2    0  502  0.14346719544E+02  0.13838611096E+03 -0.58867334573E+03  0.62855431600E+03  0.17084401108E+03 0.  0.
        -24    2    5    5    0    0  0.69523875741E+01  0.19642160836E+02 -0.12360510812E+03  0.14848624013E+03  0.79597679484E+02 0.  0.
          5    1    3    3  501    0 -0.38236685289E+02 -0.88409455503E+02 -0.29467770029E+03  0.31005695118E+03  0.47000000000E+01 0. -1.
        -11    1    4    4    0    0 -0.26638435029E+02 -0.17998698077E+02 -0.32274390305E+03  0.32434115729E+03  0.00000000000E+00 0.  1.
         12    1    4    4    0    0  0.50528400774E+02 -0.31977957380E+02 -0.57595488394E+03  0.57905072090E+03  0.00000000000E+00 0. -1.
         -5    1    5    5    0  502  0.73943319701E+01  0.11874395012E+03 -0.46506823761E+03  0.48006807587E+03  0.47000000000E+01 0.  1.
         11    1    6    6    0    0 -0.23601135506E+02 -0.20095206381E+02 -0.59702416113E+02  0.67269676723E+02  0.00000000000E+00 0. -1.
        -12    1    6    6    0    0  0.30553523080E+02  0.39737367217E+02 -0.63902692008E+02  0.81216563408E+02  0.00000000000E+00 0.  1.
</event>
<event>
12    1  0.8356052E-002  0.1963724E+03  0.7818608E-02  0.1152902E+00
         21   -1    0    0  501  502  0.00000000000E+00  0.00000000000E+00  0.24944138029E+03  0.24944138029E+03  0.00000000000E+00 0.  1.
         21   -1    0    0  502  503 -0.00000000000E+00 -0.00000000000E+00 -0.16709218196E+03  0.16709218196E+03  0.00000000000E+00 0.  1.
         -6    2    1    2    0  503  0.14641502173E+02 -0.92492671098E+02  0.98710928300E+02  0.21978617178E+03  0.17260604320E+03 0.  0.
        -24    2    3    3    0    0  0.27528794862E+02 -0.12577725790E+02 -0.78389212419E+01  0.85892776748E+02  0.80000541740E+02 0.  0.
          6    2    1    2  501    0 -0.14641502173E+02  0.92492671098E+02 -0.16361729970E+02  0.19674739047E+03  0.17225725429E+03 0.  0.
         24    2    5    5    0    0 -0.62368706278E+02  0.58024164489E+02 -0.53512280408E+02  0.12697477867E+03  0.77474970645E+02 0.  0.
          5    1    5    5  501    0  0.47727204105E+02  0.34468506609E+02  0.37150550438E+02  0.69772611800E+02  0.47000000000E+01 0.  1.
        -13    1    6    6    0    0  0.72492158814E+01  0.43378695254E+02 -0.21754448759E+02  0.49066468934E+02  0.00000000000E+00 0.  1.
         14    1    6    6    0    0 -0.69617922160E+02  0.14645469235E+02 -0.31757831648E+02  0.77908309736E+02  0.00000000000E+00 0. -1.
         -5    1    3    3    0  503 -0.12887292689E+02 -0.79914945308E+02  0.10654984954E+03  0.13389339503E+03  0.47000000000E+01 0.  1.
         13    1    4    4    0    0 -0.97473678684E+01  0.70619778094E+01  0.28064461478E+02  0.30536809083E+02  0.00000000000E+00 0. -1.
        -14    1    4    4    0    0  0.37276162731E+02 -0.19639703599E+02 -0.35903382720E+02  0.55355967665E+02  0.00000000000E+00 0.  1.
</event>
<event>
12    1  0.8356052E-002  0.2357029E+03  0.7818608E-02  0.1122930E+00
         21   -1    0    0  501  502  0.00000000000E+00  0.00000000000E+00  0.86504903611E+02  0.86504903611E+02  0.00000000000E+00 0. -1.
         21   -1    0    0  502  503 -0.00000000000E+00 -0.00000000000E+00 -0.64362328192E+03  0.64362328192E+03  0.00000000000E+00 0. -1.
         -6    2    1    2    0  503  0.15025850133E+03 -0.58262752028E+02 -0.24646459478E+03  0.34102880204E+03  0.17199907514E+03 0.  0.
        -24    2    3    3    0    0  0.14876713171E+03 -0.40481852661E+01 -0.22750515795E+03  0.28338338872E+03  0.79996880110E+02 0.  0.
          6    2    1    2  501    0 -0.15025850133E+03  0.58262752028E+02 -0.31065378353E+03  0.38909938349E+03  0.17005996446E+03 0.  0.
         24    2    5    5    0    0 -0.15197240577E+03  0.90277924782E+02 -0.22503153988E+03  0.29755066769E+03  0.81556667960E+02 0.  0.
          5    1    5    5  501    0  0.17139044324E+01 -0.32015172754E+02 -0.85622243652E+02  0.91548715790E+02  0.47000000000E+01 0. -1.
        -11    1    6    6    0    0 -0.11353168439E+03  0.60235423986E+02 -0.98459096375E+02  0.16190102941E+03  0.00000000000E+00 0.  1.
         12    1    6    6    0    0 -0.38440721375E+02  0.30042500796E+02 -0.12657244350E+03  0.13564963829E+03  0.00000000000E+00 0. -1.
         -5    1    3    3    0  503  0.14913696266E+01 -0.54214566762E+02 -0.18959436826E+02  0.57645413324E+02  0.47000000000E+01 0.  1.
         11    1    4    4    0    0 -0.73735352653E+01  0.88629057957E+01 -0.23332765360E+02  0.26025719217E+02  0.00000000000E+00 0. -1.
        -12    1    4    4    0    0  0.15614066697E+03 -0.12911091062E+02 -0.20417239259E+03  0.25735766950E+03  0.00000000000E+00 0.  1.
</event>
<event>
12    1  0.8356052E-002  0.1723631E+03  0.7818608E-02  0.1175686E+00
         21   -1    0    0  501  502  0.00000000000E+00  0.00000000000E+00  0.30338460647E+03  0.30338460647E+03  0.00000000000E+00 0.  1.
         21   -1    0    0  502  503 -0.00000000000E+00 -0.00000000000E+00 -0.10734660342E+03  0.10734660342E+03  0.00000000000E+00 0.  1.
         -6    2    1    2    0  503 -0.21584110978E+02 -0.54501166170E+01  0.34930137409E+02  0.17479737107E+03  0.16981881173E+03 0.  0.
        -24    2    3    3    0    0 -0.57715887997E+01 -0.46517285699E+02  0.72074739076E+02  0.11701883122E+03  0.79381797293E+02 0.  0.
          6    2    1    2  501    0  0.21584110978E+02  0.54501166170E+01  0.16110786564E+03  0.23593383882E+03  0.17091943807E+03 0.  0.
         24    2    5    5    0    0  0.75072451048E+02  0.28986028783E+02  0.10729987597E+03  0.15635789121E+03  0.80364569243E+02 0.  0.
          5    1    5    5  501    0 -0.53488340070E+02 -0.23535912166E+02  0.53807989668E+02  0.79575947604E+02  0.47000000000E+01 0. -1.
        -11    1    6    6    0    0  0.30712403959E+01  0.40003468430E+02  0.47016010941E+02  0.61807890182E+02  0.00000000000E+00 0.  1.
         12    1    6    6    0    0  0.72001210652E+02 -0.11017439646E+02  0.60283865033E+02  0.94550001031E+02  0.00000000000E+00 0. -1.
         -5    1    3    3    0  503 -0.15812522178E+02  0.41067169082E+02 -0.37144601667E+02  0.57778539849E+02  0.47000000000E+01 0.  1.
         13    1    4    4    0    0 -0.27741799253E+02 -0.38011003475E+00 -0.11010458779E+01  0.27766242299E+02  0.00000000000E+00 0. -1.
        -14    1    4    4    0    0  0.21970210453E+02 -0.46137175664E+02  0.73175784954E+02  0.89252588922E+02  0.00000000000E+00 0.  1.
</event>
<event>
12    1  0.8356052E-002  0.2539986E+03  0.7818608E-02  0.1110849E+00
         21   -1    0    0  503  502  0.00000000000E+00  0.00000000000E+00  0.17669693536E+03  0.17669693536E+03  0.00000000000E+00 0. -1.
         21   -1    0    0  501  503 -0.00000000000E+00 -0.00000000000E+00 -0.44166232620E+03  0.44166232620E+03  0.00000000000E+00 0.  1.
          6    2    1    2  501    0  0.17346066984E+03 -0.69005883337E+02 -0.26148920987E+03  0.36433683863E+03  0.17179729098E+03 0.  0.
         24    2    3    3    0    0  0.88465954738E+02 -0.10649180388E+03 -0.14562273269E+03  0.21575545902E+03  0.78598399327E+02 0.  0.
         -6    2    1    2    0  502 -0.17346066984E+03  0.69005883337E+02 -0.34761809639E+01  0.25402242293E+03  0.17223498948E+03 0.  0.
        -24    2    5    5    0    0 -0.16269788441E+03  0.14593911267E+01 -0.22996304137E+02  0.18273784277E+03  0.79947218606E+02 0.  0.
          5    1    3    3  501    0  0.84994715099E+02  0.37485920546E+02 -0.11586647718E+03  0.14858137962E+03  0.47000000000E+01 0. -1.
        -13    1    4    4    0    0  0.67792613999E+02 -0.62428755555E+02 -0.13879802328E+03  0.16660756075E+03  0.00000000000E+00 0.  1.
         14    1    4    4    0    0  0.20673340739E+02 -0.44063048328E+02 -0.68247094102E+01  0.49147898264E+02  0.00000000000E+00 0. -1.
         -5    1    5    5    0  502 -0.10762785430E+02  0.67546492210E+02  0.19520123173E+02  0.71284580161E+02  0.47000000000E+01 0.  1.
         11    1    6    6    0    0 -0.82762024812E+02  0.95693275356E+01 -0.50961804251E+02  0.97663863701E+02  0.00000000000E+00 0. -1.
        -12    1    6    6    0    0 -0.79935859595E+02 -0.81099364088E+01  0.27965500115E+02  0.85073979068E+02  0.00000000000E+00 0.  1.
</event>
<event>
12    1  0.8356052E-002  0.2414635E+03  0.7818608E-02  0.1118881E+00
         21   -1    0    0  503  502  0.00000000000E+00  0.00000000000E+00  0.50472805541E+03  0.50472805541E+03  0.00000000000E+00 0.  1.
         21   -1    0    0  501  503 -0.00000000000E+00 -0.00000000000E+00 -0.11538958277E+03  0.11538958277E+03  0.00000000000E+00 0. -1.
          6    2    1    2  501    0  0.10634813992E+03 -0.13308940807E+03  0.20067751369E+03  0.31369050886E+03  0.17060935917E+03 0.  0.
         24    2    3    3    0    0  0.10946104274E+02 -0.84413229043E+02  0.16416994038E+03  0.20043940856E+03  0.77322550008E+02 0.  0.
         -6    2    1    2    0  502 -0.10634813992E+03  0.13308940807E+03  0.18866095895E+03  0.30642712933E+03  0.17111958027E+03 0.  0.
        -24    2    5    5    0    0 -0.76009157616E+02  0.29888672176E+02  0.35490935574E+02  0.11920001645E+03  0.79235804074E+02 0.  0.
          5    1    3    3  501    0  0.95402035646E+02 -0.48676179031E+02  0.36507573309E+02  0.11325110030E+03  0.47000000000E+01 0. -1.
        -11    1    4    4    0    0  0.42376871613E+02 -0.49317688499E+02  0.11649519050E+03  0.13341350402E+03  0.00000000000E+00 0.  1.
         12    1    4    4    0    0 -0.31430767339E+02 -0.35095540544E+02  0.47674749889E+02  0.67025904534E+02  0.00000000000E+00 0. -1.
         -5    1    5    5    0  502 -0.30338982304E+02  0.10320073590E+03  0.15317002338E+03  0.18722711288E+03  0.47000000000E+01 0.  1.
         11    1    6    6    0    0 -0.65183247425E+02  0.54995117750E+02  0.19354766092E+02  0.87452419588E+02  0.00000000000E+00 0. -1.
        -12    1    6    6    0    0 -0.10825910191E+02 -0.25106445574E+02  0.16136169482E+02  0.31747596860E+02  0.00000000000E+00 0.  1.
</event>
<event>
12    1  0.8356052E-002  0.2463933E+03  0.7818608E-02  0.1115757E+00
         21   -1    0    0  503  502  0.00000000000E+00  0.00000000000E+00  0.36582856666E+03  0.36582856666E+03  0.00000000000E+00 0. -1.
         21   -1    0    0  501  503 -0.00000000000E+00 -0.00000000000E+00 -0.22539469874E+03  0.22539469874E+03  0.00000000000E+00 0.  1.
          6    2    1    2  501    0  0.18926962671E+02 -0.17527526873E+03 -0.82494633958E+02  0.25894809315E+03  0.17078963835E+03 0.  0.
         24    2    3    3    0    0  0.51948114164E+02 -0.18574572828E+03 -0.63118318798E+02  0.21897862282E+03  0.82265624330E+02 0.  0.
         -6    2    1    2    0  502 -0.18926962671E+02  0.17527526873E+03  0.22292850187E+03  0.33227517226E+03  0.17213373698E+03 0.  0.
        -24    2    5    5    0    0 -0.72406775650E+02  0.13802517956E+03  0.19299849772E+03  0.26040337884E+03  0.79169490596E+02 0.  0.
          5    1    3    3  501    0 -0.33021151493E+02  0.10470459548E+02 -0.19376315160E+02  0.39969470327E+02  0.47000000000E+01 0. -1.
        -11    1    4    4    0    0  0.12434505376E+02 -0.12184650427E+03 -0.26009852096E+01  0.12250694940E+03  0.00000000000E+00 0.  1.
         12    1    4    4    0    0  0.39513608788E+02 -0.63899224003E+02 -0.60517333588E+02  0.96471673419E+02  0.00000000000E+00 0. -1.
         -5    1    5    5    0  502  0.53479812979E+02  0.37250089171E+02  0.29930004160E+02  0.71871793414E+02  0.47000000000E+01 0.  1.
         13    1    6    6    0    0 -0.55325311153E+02  0.38507253900E+02  0.11301133408E+03  0.13158746250E+03  0.00000000000E+00 0. -1.
        -14    1    6    6    0    0 -0.17081464498E+02  0.99517925659E+02  0.79987163632E+02  0.12881591634E+03  0.00000000000E+00 0.  1.
</event>
<event>
12    1  0.8356052E-002  0.1731080E+03  0.7818608E-02  0.1174864E+00
         21   -1    0    0  501  502  0.00000000000E+00  0.00000000000E+00  0.44216229540E+02  0.44216229540E+02  0.00000000000E+00 0.  1.
         21   -1    0    0  502  503 -0.00000000000E+00 -0.00000000000E+00 -0.90018006026E+03  0.90018006026E+03  0.00000000000E+00 0.  1.
         -6    2    1    2    0  503 -0.18105842615E+02 -0.14233897485E+02 -0.66527638559E+03  0.68742929538E+03  0.17156905766E+03 0.  0.
        -24    2    3    3    0    0 -0.28898898423E+02  0.32748359798E+02 -0.59345666896E+03  0.60080375497E+03  0.82865750839E+02 0.  0.
          6    2    1    2  501    0  0.18105842615E+02  0.14233897485E+02 -0.19068744512E+03  0.25696699442E+03  0.17070415671E+03 0.  0.
         24    2    5    5    0    0  0.70067670299E+02 -0.18617936930E+02 -0.93034630141E+02  0.14147917326E+03  0.78133271178E+02 0.  0.
          5    1    5    5  501    0 -0.51961827684E+02  0.32851834416E+02 -0.97652814984E+02  0.11548782115E+03  0.47000000000E+01 0. -1.
        -13    1    6    6    0    0  0.39827947371E+02  0.29565507965E+02 -0.46378029893E+02  0.67906599898E+02  0.00000000000E+00 0.  1.
         14    1    6    6    0    0  0.30239722928E+02 -0.48183444895E+02 -0.46656600248E+02  0.73572573364E+02  0.00000000000E+00 0. -1.
         -5    1    3    3    0  503  0.10793055808E+02 -0.46982257283E+02 -0.71819716633E+02  0.86625540404E+02  0.47000000000E+01 0.  1.
         13    1    4    4    0    0 -0.39888151800E+02  0.41978272608E+02 -0.23392500410E+03  0.24098578292E+03  0.00000000000E+00 0. -1.
        -14    1    4    4    0    0  0.10989253377E+02 -0.92299128095E+01 -0.35953166486E+03  0.35981797206E+03  0.00000000000E+00 0.  1.
</event>
<event>
12    1  0.8356052E-002  0.1753487E+03  0.7818608E-02  0.1172828E+00
         21   -1    0    0  503  502  0.00000000000E+00  0.00000000000E+00  0.16388464148E+03  0.16388464148E+03  0.00000000000E+00 0. -1.
         21   -1    0    0  501  503 -0.00000000000E+00 -0.00000000000E+00 -0.20830526545E+03  0.20830526545E+03  0.00000000000E+00 0.  1.
          6    2    1    2  501    0  0.51340855794E+02  0.12368554152E+02 -0.83579535302E+02  0.19424910241E+03  0.16720738758E+03 0.  0.
         24    2    3    3    0    0  0.62010123495E+02  0.49322708684E+02 -0.12007687272E+02  0.11286076024E+03  0.79469375491E+02 0.  0.
         -6    2    1    2    0  502 -0.51340855794E+02 -0.12368554152E+02  0.39158911332E+02  0.17794080452E+03  0.16535006795E+03 0.  0.
        -24    2    5    5    0    0 -0.42158711841E+02  0.49979740965E+02  0.47987650313E+02  0.11413125740E+03  0.80298180809E+02 0.  0.
          5    1    3    3  501    0 -0.10669267701E+02 -0.36954154532E+02 -0.71571848031E+02  0.81388342169E+02  0.47000000000E+01 0. -1.
        -13    1    4    4    0    0 -0.10968688097E+02  0.18187811952E+02  0.18191595523E+02  0.27965027621E+02  0.00000000000E+00 0.  1.
         14    1    4    4    0    0  0.72978811592E+02  0.31134896732E+02 -0.30199282795E+02  0.84895732620E+02  0.00000000000E+00 0. -1.
         -5    1    5    5    0  502 -0.91821439527E+01 -0.62348295117E+02 -0.88287389812E+01  0.63809547119E+02  0.47000000000E+01 0.  1.
         11    1    6    6    0    0 -0.32325260318E+02  0.13235098396E+02  0.63959813417E+02  0.72876251389E+02  0.00000000000E+00 0. -1.
        -12    1    6    6    0    0 -0.98334515230E+01  0.36744642569E+02 -0.15972163104E+02  0.41255006007E+02  0.00000000000E+00 0.  1.
</event>
<event>
12    1  0.8356052E-002  0.2214089E+03  0.7818608E-02  0.1132889E+00
         21   -1    0    0  503  502  0.00000000000E+00  0.00000000000E+00  0.10262304067E+04  0.10262304067E+04  0.00000000000E+00 0.  1.
         21   -1    0    0  501  503 -0.00000000000E+00 -0.00000000000E+00 -0.68178000124E+02  0.68178000124E+02  0.00000000000E+00 0. -1.
          6    2    1    2  501    0  0.12684002396E+03  0.57982676074E+02  0.17940365019E+03  0.28496945835E+03  0.17196377551E+03 0.  0.
         24    2    3    3    0    0  0.24042565249E+02  0.80701369509E+02  0.86191624398E+02  0.14427820666E+03  0.79350165826E+02 0.  0.
         -6    2    1    2    0  502 -0.12684002396E+03 -0.57982676074E+02  0.77864875634E+03  0.80943894843E+03  0.17160169896E+03 0.  0.
        -24    2    5    5    0    0 -0.70325673317E+02  0.35862452354E+02  0.36722247338E+03  0.38365208125E+03  0.78132955099E+02 0.  0.
          5    1    3    3  501    0  0.10279745871E+03 -0.22718693435E+02  0.93212025793E+02  0.14069125169E+03  0.47000000000E+01 0. -1.
        -11    1    4    4    0    0 -0.12300924590E+02 -0.86344862006E+01  0.27609586808E+02  0.31434954770E+02  0.00000000000E+00 0.  1.
         12    1    4    4    0    0  0.36343489839E+02  0.89335855709E+02  0.58582037591E+02  0.11284325189E+03  0.00000000000E+00 0. -1.
         -5    1    5    5    0  502 -0.56514350642E+02 -0.93845128428E+02  0.41142628296E+03  0.42578686718E+03  0.47000000000E+01 0.  1.
         13    1    6    6    0    0 -0.41230557398E+02  0.53087647800E+02  0.15783400256E+03  0.17155124475E+03  0.00000000000E+00 0. -1.
        -14    1    6    6    0    0 -0.29095115920E+02 -0.17225195445E+02  0.20938847082E+03  0.21210083650E+03  0.00000000000E+00 0.  1.
</event>
<event>
12    1  0.8356052E-002  0.2072657E+03  0.7818608E-02  0.1143782E+00
         21   -1    0    0  503  502  0.00000000000E+00  0.00000000000E+00  0.13583966642E+02  0.13583966642E+02  0.00000000000E+00 0. -1.
         21   -1    0    0  501  503 -0.00000000000E+00 -0.00000000000E+00 -0.31616081202E+04  0.31616081202E+04  0.00000000000E+00 0. -1.
          6    2    1    2  501    0  0.37525667247E+02  0.10753348398E+03 -0.15391488962E+04  0.15530416565E+04  0.17316880853E+03 0.  0.
         24    2    3    3    0    0 -0.32109305665E+02  0.53586570280E+02 -0.10648531522E+04  0.10706125511E+04  0.91632258534E+02 0.  0.
         -6    2    1    2    0  502 -0.37525667247E+02 -0.10753348398E+03 -0.16088752574E+04  0.16221504304E+04  0.17297629626E+03 0.  0.
        -24    2    5    5    0    0  0.27716831467E+02 -0.31813980148E+02 -0.10949170932E+04  0.10985426464E+04  0.78563050601E+02 0.  0.
          5    1    3    3  501    0  0.69634972912E+02  0.53946913704E+02 -0.47429574400E+03  0.48242910539E+03  0.47000000000E+01 0. -1.
        -13    1    4    4    0    0  0.14702914724E+02 -0.19094372443E+02 -0.26916008248E+03  0.27023678647E+03  0.00000000000E+00 0.  1.
         14    1    4    4    0    0 -0.46812220389E+02  0.72680942723E+02 -0.79569306970E+03  0.80037576461E+03  0.00000000000E+00 0. -1.
         -5    1    5    5    0  502 -0.65242498714E+02 -0.75719503836E+02 -0.51395816424E+03  0.52360778402E+03  0.47000000000E+01 0.  1.
         11    1    6    6    0    0  0.12598357684E+02 -0.43781647159E+02 -0.30439431900E+03  0.30778475057E+03  0.00000000000E+00 0. -1.
        -12    1    6    6    0    0  0.15118473783E+02  0.11967667011E+02 -0.79052277419E+03  0.79075789583E+03  0.00000000000E+00 0.  1.
</event>
<event>
12    1  0.8356052E-002  0.2619916E+03  0.7818608E-02  0.1106124E+00
         21   -1    0    0  501  502  0.00000000000E+00  0.00000000000E+00  0.41685374889E+03  0.41685374889E+03  0.00000000000E+00 0.  1.
         21   -1    0    0  502  503 -0.00000000000E+00 -0.00000000000E+00 -0.32211013284E+03  0.32211013284E+03  0.00000000000E+00 0. -1.
         -6    2    1    2    0  503  0.18515626516E+02 -0.19667426876E+03 -0.21148709900E+03  0.33669928426E+03  0.17209305204E+03 0.  0.
        -24    2    3    3    0    0  0.54099285740E+02 -0.57317927517E+02 -0.57403381721E+02  0.12586696088E+03  0.79594384707E+02 0.  0.
          6    2    1    2  501    0 -0.18515626516E+02  0.19667426876E+03  0.30623071505E+03  0.40226459748E+03  0.17034071483E+03 0.  0.
         24    2    5    5    0    0  0.13172503886E+02  0.39550672153E+02  0.16732605595E+03  0.19011239613E+03  0.80043385949E+02 0.  0.
          5    1    5    5  501    0 -0.31688130402E+02  0.15712359661E+03  0.13890465909E+03  0.21215220135E+03  0.47000000000E+01 0. -1.
        -11    1    6    6    0    0  0.10572517571E+02  0.49507907138E+02  0.46158268266E+02  0.68508369753E+02  0.00000000000E+00 0.  1.
         12    1    6    6    0    0  0.25999863156E+01 -0.99572349852E+01  0.12116778769E+03  0.12160402638E+03  0.00000000000E+00 0. -1.
         -5    1    3    3    0  503 -0.35583659224E+02 -0.13935634124E+03 -0.15408371728E+03  0.21083232337E+03  0.47000000000E+01 0.  1.
         13    1    4    4    0    0  0.72694981994E+02 -0.52285018407E+02 -0.34555062559E+02  0.95980914277E+02  0.00000000000E+00 0. -1.
        -14    1    4    4    0    0 -0.18595696254E+02 -0.50329091094E+01 -0.22848319162E+02  0.29886046607E+02  0.00000000000E+00 0.  1.
</event>
<event>
12    1  0.8356052E-002  0.1836101E+03  0.7818608E-02  0.1164920E+00
         21   -1    0    0  503  502  0.00000000000E+00  0.00000000000E+00  0.14448813938E+04  0.14448813938E+04  0.00000000000E+00 0. -1.
         21   -1    0    0  501  503 -0.00000000000E+00 -0.00000000000E+00 -0.29018215674E+02  0.29018215674E+02  0.00000000000E+00 0. -1.
          6    2    1    2  501    0  0.53640198985E+02 -0.26601183198E+02  0.36951773181E+03  0.41156657852E+03  0.17105204044E+03 0.  0.
         24    2    3    3    0    0  0.18765078003E+02 -0.31815707268E+02  0.85068912402E+02  0.12490181580E+03  0.83662275555E+02 0.  0.
         -6    2    1    2    0  502 -0.53640198985E+02  0.26601183198E+02  0.10463454463E+04  0.10623330309E+04  0.17357356287E+03 0.  0.
        -24    2    5    5    0    0  0.15614679307E+02 -0.37257798612E+02  0.47278246044E+03  0.48106648582E+03  0.79181734691E+02 0.  0.
          5    1    3    3  501    0  0.34875120983E+02  0.52145240705E+01  0.28444881941E+03  0.28666476272E+03  0.47000000000E+01 0. -1.
        -13    1    4    4    0    0  0.37482078188E+01 -0.17473985058E+02  0.98541517337E+02  0.10014898829E+03  0.00000000000E+00 0.  1.
         14    1    4    4    0    0  0.15016870184E+02 -0.14341722210E+02 -0.13472604936E+02  0.24752827512E+02  0.00000000000E+00 0. -1.
         -5    1    5    5    0  502 -0.69254878292E+02  0.63858981810E+02  0.57356298586E+03  0.58126654512E+03  0.47000000000E+01 0.  1.
         11    1    6    6    0    0 -0.27226266813E+02 -0.33265945602E+02  0.29699907458E+03  0.30009389038E+03  0.00000000000E+00 0. -1.
        -12    1    6    6    0    0  0.42840946120E+02 -0.39918530098E+01  0.17578338586E+03  0.18097259543E+03  0.00000000000E+00 0.  1.
</event>
<event>
12    1  0.8356052E-002  0.2112063E+03  0.7818608E-02  0.1140908E+00
         21   -1    0    0  503  502  0.00000000000E+00  0.00000000000E+00  0.35516054647E+03  0.35516054647E+03  0.00000000000E+00 0.  1.
         21   -1    0    0  501  503 -0.00000000000E+00 -0.00000000000E+00 -0.15297696755E+03  0.15297696755E+03  0.00000000000E+00 0.  1.
          6    2    1    2  501    0  0.71719148426E+01  0.11990625105E+03  0.21000088223E+03  0.29678660363E+03  0.17190977910E+03 0.  0.
         24    2    3    3    0    0  0.63341421610E+02  0.80233984794E+02  0.17886215644E+03  0.22115187321E+03  0.80416739635E+02 0.  0.
         -6    2    1    2    0  502 -0.71719148426E+01 -0.11990625105E+03 -0.78173033111E+01  0.21135091040E+03  0.17372147735E+03 0.  0.
        -24    2    5    5    0    0 -0.57802994162E+02 -0.19750962379E+02 -0.23165860660E+00  0.98771071858E+02  0.77616907445E+02 0.  0.
          5    1    3    3  501    0 -0.56169506768E+02  0.39672266253E+02  0.31138725796E+02  0.75634730411E+02  0.47000000000E+01 0. -1.
        -11    1    4    4    0    0  0.37076170465E+02  0.52034305673E+02  0.36323417738E+02  0.73495592109E+02  0.00000000000E+00 0.  1.
         12    1    4    4    0    0  0.26265251145E+02  0.28199679121E+02  0.14253873870E+03  0.14765628111E+03  0.00000000000E+00 0. -1.
         -5    1    5    5    0  502  0.50631079319E+02 -0.10015528867E+03 -0.75856447045E+01  0.11257983854E+03  0.47000000000E+01 0.  1.
         13    1    6    6    0    0 -0.18588778675E+02  0.21376937808E+02 -0.24044221326E+02  0.37156974337E+02  0.00000000000E+00 0. -1.
        -14    1    6    6    0    0 -0.39214215486E+02 -0.41127900187E+02  0.23812562720E+02  0.61614097521E+02  0.00000000000E+00 0.  1.
</event>
<event>
12    1  0.8356052E-002  0.2145960E+03  0.7818608E-02  0.1138138E+00
         21   -1    0    0  503  502  0.00000000000E+00  0.00000000000E+00  0.11365112646E+03  0.11365112646E+03  0.00000000000E+00 0. -1.
         21   -1    0    0  501  503 -0.00000000000E+00 -0.00000000000E+00 -0.42325230625E+03  0.42325230625E+03  0.00000000000E+00 0. -1.
          6    2    1    2  501    0  0.11761195343E+03  0.48999638183E+02 -0.21289504312E+03  0.30228417874E+03  0.17267857193E+03 0.  0.
         24    2    3    3    0    0  0.93026425684E+02 -0.34418696514E+02 -0.13384052478E+03  0.18466286432E+03  0.79677630732E+02 0.  0.
         -6    2    1    2    0  502 -0.11761195343E+03 -0.48999638183E+02 -0.96706136669E+02  0.23461925397E+03  0.17164084983E+03 0.  0.
        -24    2    5    5    0    0 -0.88745996074E+02 -0.81754709069E+02 -0.18891791402E+02  0.14526993672E+03  0.78656026207E+02 0.  0.
          5    1    3    3  501    0  0.24585527748E+02  0.83418334696E+02 -0.79054518335E+02  0.11762131443E+03  0.47000000000E+01 0. -1.
        -11    1    4    4    0    0  0.17983871871E+01 -0.35871860072E+02 -0.35041719574E+02  0.50179145591E+02  0.00000000000E+00 0.  1.
         12    1    4    4    0    0  0.91228038497E+02  0.14531635585E+01 -0.98798805206E+02  0.13448371873E+03  0.00000000000E+00 0. -1.
         -5    1    5    5    0  502 -0.28865957358E+02  0.32755070887E+02 -0.77814345267E+02  0.89349317246E+02  0.47000000000E+01 0.  1.
         13    1    6    6    0    0 -0.45001963981E+02  0.48073140756E+01 -0.16752763923E+02  0.48259114474E+02  0.00000000000E+00 0. -1.
        -14    1    6    6    0    0 -0.43744032094E+02 -0.86562023145E+02 -0.21390274785E+01  0.97010822248E+02  0.00000000000E+00 0.  1.
</event>
<event>
12    1  0.8356052E-002  0.3217434E+03  0.7818608E-02  0.1074868E+00
         21   -1    0    0  501  502  0.00000000000E+00  0.00000000000E+00  0.37948194767E+03  0.37948194767E+03  0.00000000000E+00 0.  1.
         21   -1    0    0  502  503 -0.00000000000E+00 -0.00000000000E+00 -0.28534452263E+03  0.28534452263E+03  0.00000000000E+00 0. -1.
         -6    2    1    2    0  503 -0.26245001560E+03 -0.72733110924E+02 -0.23030465352E+02  0.32256660130E+03  0.17131460483E+03 0.  0.
        -24    2    3    3    0    0 -0.28260136979E+03 -0.65872602011E+02 -0.21541165055E+02  0.30071593373E+03  0.75916514016E+02 0.  0.
          6    2    1    2  501    0  0.26245001560E+03  0.72733110924E+02  0.11716789039E+03  0.34225986900E+03  0.17100698019E+03 0.  0.
         24    2    5    5    0    0  0.13269170707E+03  0.10710214181E+03  0.72884940403E+02  0.20083314388E+03  0.77095909338E+02 0.  0.
          5    1    5    5  501    0  0.12975830854E+03 -0.34369030891E+02  0.44282949989E+02  0.14142672512E+03  0.47000000000E+01 0. -1.
        -11    1    6    6    0    0  0.47755557097E+02  0.82647188688E+00  0.36189482377E+02  0.59924576963E+02  0.00000000000E+00 0.  1.
         12    1    6    6    0    0  0.84936149970E+02  0.10627566993E+03  0.36695458025E+02  0.14090856691E+03  0.00000000000E+00 0. -1.
         -5    1    3    3    0  503  0.20151354190E+02 -0.68605089133E+01 -0.14893002966E+01  0.21850667578E+02  0.47000000000E+01 0.  1.
         13    1    4    4    0    0 -0.92206702092E+02  0.12490079422E+02 -0.18122661448E+02  0.94797198549E+02  0.00000000000E+00 0. -1.
        -14    1    4    4    0    0 -0.19039466770E+03 -0.78362681433E+02 -0.34185036074E+01  0.20591873518E+03  0.00000000000E+00 0.  1.
</event>
<event>
12    1  0.8356052E-002  0.1786669E+03  0.7818608E-02  0.1169707E+00
         21   -1    0    0  501  502  0.00000000000E+00  0.00000000000E+00  0.13713910874E+03  0.13713910874E+03  0.00000000000E+00 0.  1.
         21   -1    0    0  502  503 -0.00000000000E+00 -0.00000000000E+00 -0.24128761973E+03  0.24128761973E+03  0.00000000000E+00 0.  1.
         -6    2    1    2    0  503 -0.27719443389E+02  0.37599912631E+02 -0.93429934983E+02  0.19943863309E+03  0.16989554039E+03 0.  0.
        -24    2    3    3    0    0 -0.56220711624E+02  0.56618050832E+02 -0.13691414808E+02  0.11252296435E+03  0.78151075307E+02 0.  0.
          6    2    1    2  501    0  0.27719443389E+02 -0.37599912631E+02 -0.10718576007E+02  0.17898809539E+03  0.17245210769E+03 0.  0.
         24    2    5    5    0    0 -0.21318560526E+02  0.16775557702E+02 -0.48564424885E+02  0.96430140716E+02  0.78767812684E+02 0.  0.
          5    1    5    5  501    0  0.49038003916E+02 -0.54375470333E+02  0.37845848878E+02  0.82557954670E+02  0.47000000000E+01 0. -1.
        -13    1    6    6    0    0  0.10412871280E+02 -0.18277862173E+02  0.81782843927E+01  0.22569724622E+02  0.00000000000E+00 0.  1.
         14    1    6    6    0    0 -0.31731431807E+02  0.35053419875E+02 -0.56742709278E+02  0.73860416094E+02  0.00000000000E+00 0. -1.
         -5    1    3    3    0  503  0.28501268235E+02 -0.19018138201E+02 -0.79738520176E+02  0.86915668734E+02  0.47000000000E+01 0.  1.
         11    1    4    4    0    0  0.18511222420E+02  0.22946422297E+02 -0.39976520427E+00  0.29484970136E+02  0.00000000000E+00 0. -1.
        -12    1    4    4    0    0 -0.74731934044E+02  0.33671628536E+02 -0.13291649603E+02  0.83037994216E+02  0.00000000000E+00 0.  1.
</event>
<event>
12    1  0.8356052E-002  0.1773142E+03  0.7818608E-02  0.1171829E+00
         21   -1    0    0  501  502  0.00000000000E+00  0.00000000000E+00  0.27768953417E+02  0.27768953417E+02  0.00000000000E+00 0. -1.
         21   -1    0    0  502  503 -0.00000000000E+00 -0.00000000000E+00 -0.10973251954E+04  0.10973251954E+04  0.00000000000E+00 0. -1.
         -6    2    1    2    0  503  0.10556532774E+02 -0.46133859613E+01 -0.51449795842E+03  0.54240208969E+03  0.17134513114E+03 0.  0.
        -24    2    3    3    0    0 -0.12679582058E+02 -0.40447889705E+02 -0.14497025013E+03  0.17038482411E+03  0.78853099388E+02 0.  0.
          6    2    1    2  501    0 -0.10556532774E+02  0.46133859613E+01 -0.55505828361E+03  0.58269205917E+03  0.17693957699E+03 0.  0.
         24    2    5    5    0    0  0.48917754546E+02 -0.23409003718E+02 -0.43359832694E+03  0.44449996009E+03  0.81435724518E+02 0.  0.
          5    1    5    5  501    0 -0.59474287320E+02  0.28022389679E+02 -0.12145995666E+03  0.13819209908E+03  0.47000000000E+01 0. -1.
        -11    1    6    6    0    0 -0.17104375502E+02 -0.19533288369E+02 -0.20140219234E+03  0.20306883585E+03  0.00000000000E+00 0.  1.
         12    1    6    6    0    0  0.66022130048E+02 -0.38757153492E+01 -0.23219613461E+03  0.24143112424E+03  0.00000000000E+00 0. -1.
         -5    1    3    3    0  503  0.23236114832E+02  0.35834503744E+02 -0.36952770829E+03  0.37201726558E+03  0.47000000000E+01 0.  1.
         11    1    4    4    0    0  0.32977811383E+01 -0.43485514151E+02 -0.14760195048E+03  0.15390971732E+03  0.00000000000E+00 0. -1.
        -12    1    4    4    0    0 -0.15977363196E+02  0.30376244458E+01  0.26317003510E+01  0.16475106789E+02  0.00000000000E+00 0.  1.
</event>
<event>
12    1  0.8356052E-002  0.2361996E+03  0.7818608E-02  0.1123894E+00
         21   -1    0    0  501  502  0.00000000000E+00  0.00000000000E+00  0.15768673967E+04  0.15768673967E+04  0.00000000000E+00 0. -1.
         21   -1    0    0  502  503 -0.00000000000E+00 -0.00000000000E+00 -0.34394144199E+02  0.34394144199E+02  0.00000000000E+00 0. -1.
         -6    2    1    2    0  503  0.12691153801E+03  0.75931946609E+02  0.86518075478E+03  0.89684334978E+03  0.18416855489E+03 0.  0.
        -24    2    3    3    0    0  0.14058502020E+03  0.93723211547E+02  0.84678601386E+03  0.86745032821E+03  0.82917611894E+02 0.  0.
          6    2    1    2  501    0 -0.12691153801E+03 -0.75931946609E+02  0.67729249772E+03  0.71441819112E+03  0.17261525233E+03 0.  0.
         24    2    5    5    0    0 -0.14062120950E+03 -0.89458778469E+01  0.47475364459E+03  0.50059778627E+03  0.73162608466E+02 0.  0.
          5    1    5    5  501    0  0.13709671492E+02 -0.66986068762E+02  0.20253885313E+03  0.21382040485E+03  0.47000000000E+01 0. -1.
        -11    1    6    6    0    0 -0.69005304836E+02 -0.35455643983E+02  0.17792681183E+03  0.19410508792E+03  0.00000000000E+00 0.  1.
         12    1    6    6    0    0 -0.71615904665E+02  0.26509766136E+02  0.29682683275E+03  0.30649269835E+03  0.00000000000E+00 0. -1.
         -5    1    3    3    0  503 -0.13673482193E+02 -0.17791264938E+02  0.18394740922E+02  0.29393021569E+02  0.47000000000E+01 0.  1.
         11    1    4    4    0    0  0.75620682540E+02  0.19407202936E+02  0.23182809834E+03  0.24462091965E+03  0.00000000000E+00 0. -1.
        -12    1    4    4    0    0  0.64964337661E+02  0.74316008611E+02  0.61495791552E+03  0.62282940856E+03  0.00000000000E+00 0.  1.
</event>
<event>
12    1  0.8356052E-002  0.1803257E+03  0.7818608E-02  0.1167790E+00
         21   -1    0    0  503  502  0.00000000000E+00  0.00000000000E+00  0.13195397798E+03  0.13195397798E+03  0.00000000000E+00 0. -1.
         21   -1    0    0  501  503 -0.00000000000E+00 -0.00000000000E+00 -0.24475643510E+03  0.24475643510E+03  0.00000000000E+00 0. -1.
          6    2    1    2  501    0 -0.45926360967E+02 -0.21149106766E+01 -0.58538123487E+02  0.18958923607E+03  0.17436646195E+03 0.  0.
         24    2    3    3    0    0 -0.88121659227E+02 -0.20040948889E+02 -0.72547382992E+02  0.14142145230E+03  0.81054536788E+02 0.  0.
         -6    2    1    2    0  502  0.45926360967E+02  0.21149106766E+01 -0.54264333632E+02  0.18712117700E+03  0.17307805609E+03 0.  0.
        -24    2    5    5    0    0 -0.18248200873E+01 -0.61645956123E+02 -0.27593007649E+02  0.10298394947E+03  0.77722364242E+02 0.  0.
          5    1    3    3  501    0  0.42195298261E+02  0.17926038212E+02  0.14009259505E+02  0.48167783768E+02  0.47000000000E+01 0. -1.
        -11    1    4    4    0    0  0.15257520540E+02  0.20735747122E+01 -0.12553733757E+02  0.19866753040E+02  0.00000000000E+00 0.  1.
         12    1    4    4    0    0 -0.10337917977E+03 -0.22114523601E+02 -0.59993649235E+02  0.12155469926E+03  0.00000000000E+00 0. -1.
         -5    1    5    5    0  502  0.47751181054E+02  0.63760866799E+02 -0.26671325982E+02  0.84137227531E+02  0.47000000000E+01 0.  1.
         13    1    6    6    0    0  0.21023115734E+02  0.98816821645E+01 -0.74935715523E+00  0.23241785080E+02  0.00000000000E+00 0. -1.
        -14    1    6    6    0    0 -0.22847935821E+02 -0.71527638287E+02 -0.26843650494E+02  0.79742164393E+02  0.00000000000E+00 0.  1.
</event>
<event>
12    1  0.8356052E-002  0.1909826E+03  0.7818608E-02  0.1158660E+00
         21   -1    0    0  503  502  0.00000000000E+00  0.00000000000E+00  0.20858455176E+03  0.20858455176E+03  0.00000000000E+00 0. -1.
         21   -1    0    0  501  503 -0.00000000000E+00 -0.00000000000E+00 -0.29947136710E+03  0.29947136710E+03  0.00000000000E+00 0.  1.
          6    2    1    2  501    0  0.36048661844E+02 -0.64434743663E+02  0.12090872773E+03  0.22603824317E+03  0.17613354229E+03 0.  0.
         24    2    3    3    0    0  0.91957071146E+02 -0.41578504641E+02  0.67472259722E+02  0.14525641349E+03  0.79762427529E+02 0.  0.
         -6    2    1    2    0  502 -0.36048661844E+02  0.64434743663E+02 -0.21179554307E+03  0.28201767569E+03  0.17095401465E+03 0.  0.
        -24    2    5    5    0    0 -0.63112587166E+02  0.79065493537E+02 -0.93819277862E+02  0.16000536464E+03  0.81025359533E+02 0.  0.
          5    1    3    3  501    0 -0.55908409302E+02 -0.22856239022E+02  0.53436468011E+02  0.80781829679E+02  0.47000000000E+01 0. -1.
        -13    1    4    4    0    0  0.30450219260E+00  0.16785674317E+02 -0.10089011104E+01  0.16818723653E+02  0.00000000000E+00 0.  1.
         14    1    4    4    0    0  0.91652568953E+02 -0.58364178958E+02  0.68481160832E+02  0.12843768983E+03  0.00000000000E+00 0. -1.
         -5    1    5    5    0  502  0.27063925323E+02 -0.14630749874E+02 -0.11797626521E+03  0.12201231105E+03  0.47000000000E+01 0.  1.
         11    1    6    6    0    0 -0.43112963740E+02  0.42521707160E+02 -0.36337665997E+01  0.60663230065E+02  0.00000000000E+00 0. -1.
        -12    1    6    6    0    0 -0.19999623427E+02  0.36543786377E+02 -0.90185511263E+02  0.99342134574E+02  0.00000000000E+00 0.  1.
</event>
<event>
12    1  0.8356052E-002  0.2619685E+03  0.7818608E-02  0.1106002E+00
         21   -1    0    0  501  502  0.00000000000E+00  0.00000000000E+00  0.18531475086E+03  0.18531475086E+03  0.00000000000E+00 0.  1.
         21   -1    0    0  502  503 -0.00000000000E+00 -0.00000000000E+00 -0.37063393583E+03  0.37063393583E+03  0.00000000000E+00 0.  1.
         -6    2    1    2    0  503 -0.27533589301E+02 -0.19395790186E+03 -0.81153754617E+02  0.27425069069E+03  0.17392453313E+03 0.  0.
        -24    2    3    3    0    0 -0.74416471950E+02 -0.16742979348E+03 -0.32899947587E+02  0.20177817789E+03  0.77855503832E+02 0.  0.
          6    2    1    2  501    0  0.27533589301E+02  0.19395790186E+03 -0.10416543036E+03  0.28169799600E+03  0.17356715655E+03 0.  0.
         24    2    5    5    0    0  0.84785823208E+02  0.13642374325E+03 -0.81692536221E+02  0.19734683321E+03  0.80448918958E+02 0.  0.
          5    1    5    5  501    0 -0.57252233907E+02  0.57534158603E+02 -0.22472894139E+02  0.84351162792E+02  0.47000000000E+01 0. -1.
        -13    1    6    6    0    0  0.16979563113E+01  0.72761110094E+02 -0.18566634277E+02  0.75111797383E+02  0.00000000000E+00 0.  1.
         14    1    6    6    0    0  0.83087866896E+02  0.63662633160E+02 -0.63125901944E+02  0.12223503582E+03  0.00000000000E+00 0. -1.
         -5    1    3    3    0  503  0.46882882648E+02 -0.26528108373E+02 -0.48253807029E+02  0.72472512804E+02  0.47000000000E+01 0.  1.
         11    1    4    4    0    0  0.11078566190E+02 -0.16528643688E+02  0.11184138934E+02  0.22825767341E+02  0.00000000000E+00 0. -1.
        -12    1    4    4    0    0 -0.85495038139E+02 -0.15090114980E+03 -0.44084086521E+02  0.17895241055E+03  0.00000000000E+00 0.  1.
</event>
<event>
12    1  0.8356052E-002  0.2206291E+03  0.7818608E-02  0.1133443E+00
         21   -1    0    0  501  502  0.00000000000E+00  0.00000000000E+00  0.51733903969E+02  0.51733903969E+02  0.00000000000E+00 0. -1.
         21   -1    0    0  502  503 -0.00000000000E+00 -0.00000000000E+00 -0.21754159731E+04  0.21754159731E+04  0.00000000000E+00 0. -1.
         -6    2    1    2    0  503 -0.13038081339E+03  0.42259109154E+02 -0.19007724470E+04  0.19135164784E+04  0.17269750707E+03 0.  0.
        -24    2    3    3    0    0 -0.11048761737E+03  0.69511320722E+02 -0.96649685159E+03  0.97862001328E+03  0.80880337240E+02 0.  0.
          6    2    1    2  501    0  0.13038081339E+03 -0.42259109154E+02 -0.22290962212E+03  0.31363339868E+03  0.17289366768E+03 0.  0.
         24    2    5    5    0    0  0.50336986800E+02  0.36391676160E+02 -0.14627297720E+03  0.17766198422E+03  0.79434441158E+02 0.  0.
          5    1    5    5  501    0  0.80043826594E+02 -0.78650785315E+02 -0.76636644914E+02  0.13597141446E+03  0.47000000000E+01 0. -1.
        -11    1    6    6    0    0  0.66374638472E+02  0.72520023305E+01 -0.86677892235E+02  0.10941316727E+03  0.00000000000E+00 0.  1.
         12    1    6    6    0    0 -0.16037651672E+02  0.29139673830E+02 -0.59595084968E+02  0.68248816945E+02  0.00000000000E+00 0. -1.
         -5    1    3    3    0  503 -0.19893196026E+02 -0.27252211568E+02 -0.93427559542E+03  0.93489646511E+03  0.47000000000E+01 0.  1.
         13    1    4    4    0    0 -0.93252624508E+02  0.48811088029E+02 -0.90959679229E+03  0.91566636874E+03  0.00000000000E+00 0. -1.
        -14    1    4    4    0    0 -0.17234992860E+02  0.20700232693E+02 -0.56900059299E+02  0.62953644538E+02  0.00000000000E+00 0.  1.
</event>
<event>
12    1  0.8356052E-002  0.1911435E+03  0.7818608E-02  0.1157860E+00
         21   -1    0    0  503  502  0.00000000000E+00  0.00000000000E+00  0.85106981046E+02  0.85106981046E+02  0.00000000000E+00 0. -1.
         21   -1    0    0  501  503 -0.00000000000E+00 -0.00000000000E+00 -0.55488820078E+03  0.55488820078E+03  0.00000000000E+00 0. -1.
          6    2    1    2  501    0 -0.76027653818E+02 -0.30511650033E+02 -0.39057596935E+03  0.43483953259E+03  0.17269819436E+03 0.  0.
         24    2    3    3    0    0 -0.50940345605E+02  0.46791589827E+02 -0.18099058412E+03  0.20999894989E+03  0.80978983238E+02 0.  0.
         -6    2    1    2    0  502  0.76027653818E+02  0.30511650033E+02 -0.79205250390E+02  0.20515564924E+03  0.17059954218E+03 0.  0.
        -24    2    5    5    0    0  0.11641305606E+03  0.13827836509E+02 -0.74813417210E+02  0.16098882293E+03  0.81099599435E+02 0.  0.
          5    1    3    3  501    0 -0.25087308214E+02 -0.77303239860E+02 -0.20958538522E+03  0.22484058269E+03  0.47000000000E+01 0. -1.
        -13    1    4    4    0    0 -0.52533317682E+02 -0.57874804453E+01 -0.76035640301E+02  0.92599476201E+02  0.00000000000E+00 0.  1.
         14    1    4    4    0    0  0.15929720776E+01  0.52579070272E+02 -0.10495494382E+03  0.11739947369E+03  0.00000000000E+00 0. -1.
         -5    1    5    5    0  502 -0.40385402243E+02  0.16683813524E+02 -0.43918331800E+01  0.44166826315E+02  0.47000000000E+01 0.  1.
         13    1    6    6    0    0  0.15925811102E+02  0.46175903592E+00  0.17652929733E+02  0.23779625918E+02  0.00000000000E+00 0. -1.
        -14    1    6    6    0    0  0.10048724496E+03  0.13366077473E+02 -0.92466346943E+02  0.13720919701E+03  0.00000000000E+00 0.  1.
</event>
<event>
12    1  0.8356052E-002  0.1889048E+03  0.7818608E-02  0.1159613E+00
         21   -1    0    0  503  502  0.00000000000E+00  0.00000000000E+00  0.14726502808E+03  0.14726502808E+03  0.00000000000E+00 0. -1.
         21   -1    0    0  501  503 -0.00000000000E+00 -0.00000000000E+00 -0.37052401815E+03  0.37052401815E+03  0.00000000000E+00 0. -1.
          6    2    1    2  501    0 -0.66067010433E+02 -0.39863340831E+02 -0.26431595638E+03  0.32447399761E+03  0.17165813270E+03 0.  0.
         24    2    3    3    0    0 -0.40609757233E+02 -0.54848211197E+02 -0.66940703848E+02  0.12484509592E+03  0.80297954458E+02 0.  0.
         -6    2    1    2    0  502  0.66067010433E+02  0.39863340831E+02  0.41056966310E+02  0.19331504862E+03  0.17242707945E+03 0.  0.
        -24    2    5    5    0    0  0.61760147834E+02  0.18394602505E+02  0.91636097124E+02  0.13799964150E+03  0.80585665574E+02 0.  0.
          5    1    3    3  501    0 -0.25457253200E+02  0.14984870365E+02 -0.19737525253E+03  0.19962890169E+03  0.47000000000E+01 0. -1.
        -13    1    4    4    0    0  0.12903381790E+02  0.93330358562E+01  0.25938026378E+01  0.16134764704E+02  0.00000000000E+00 0.  1.
         14    1    4    4    0    0 -0.53513139023E+02 -0.64181247053E+02 -0.69534506486E+02  0.10871033122E+03  0.00000000000E+00 0. -1.
         -5    1    5    5    0  502  0.43068625997E+01  0.21468738326E+02 -0.50579130813E+02  0.55315407118E+02  0.47000000000E+01 0.  1.
         11    1    6    6    0    0  0.76319817366E+01  0.39453116001E+02  0.58979867974E+02  0.71368202539E+02  0.00000000000E+00 0. -1.
        -12    1    6    6    0    0  0.54128166097E+02 -0.21058513495E+02  0.32656229150E+02  0.66631438961E+02  0.00000000000E+00 0.  1.
</event>
<event>
12    1  0.8356052E-002  0.1843860E+03  0.7818608E-02  0.1165139E+00
         21   -1    0    0  501  502  0.00000000000E+00  0.00000000000E+00  0.40092236796E+03  0.40092236796E+03  0.00000000000E+00 0. -1.
         21   -1    0    0  502  503 -0.00000000000E+00 -0.00000000000E+00 -0.98805077490E+02  0.98805077490E+02  0.00000000000E+00 0. -1.
         -6    2    1    2    0  503  0.40911659821E+02  0.31092809696E+02  0.49936675007E+02  0.19102843341E+03  0.17708095362E+03 0.  0.
        -24    2    3    3    0    0  0.25342132401E+02  0.91885794721E+02  0.13722275966E+02  0.11842147843E+03  0.68921134282E+02 0.  0.
          6    2    1    2  501    0 -0.40911659821E+02 -0.31092809696E+02  0.25218061547E+03  0.30869901205E+03  0.17046844429E+03 0.  0.
         24    2    5    5    0    0  0.31323029991E+02 -0.37073324218E+02  0.19195497026E+03  0.21434417483E+03  0.82104513264E+02 0.  0.
          5    1    5    5  501    0 -0.72234689812E+02  0.59805145216E+01  0.60225645202E+02  0.94354837216E+02  0.47000000000E+01 0. -1.
        -13    1    6    6    0    0  0.59017305308E+01  0.10610688737E+02 -0.26063683045E+01  0.12418143761E+02  0.00000000000E+00 0.  1.
         14    1    6    6    0    0  0.25421299460E+02 -0.47684012955E+02  0.19456133857E+03  0.20192603107E+03  0.00000000000E+00 0. -1.
         -5    1    3    3    0  503  0.15569527420E+02 -0.60792985024E+02  0.36214399042E+02  0.72606954971E+02  0.47000000000E+01 0.  1.
         13    1    4    4    0    0  0.19562117071E+02  0.17909925172E+02 -0.23474502915E+02  0.35418838647E+02  0.00000000000E+00 0. -1.
        -14    1    4    4    0    0  0.57800153303E+01  0.73975869549E+02  0.37196778880E+02  0.83002639788E+02  0.00000000000E+00 0.  1.
</event>
<event>
12    1  0.8356052E-002  0.1893169E+03  0.7818608E-02  0.1159223E+00
         21   -1    0    0  501  502  0.00000000000E+00  0.00000000000E+00  0.43358274587E+03  0.43358274587E+03  0.00000000000E+00 0.  1.
         21   -1    0    0  502  503 -0.00000000000E+00 -0.00000000000E+00 -0.82402399379E+02  0.82402399379E+02  0.00000000000E+00 0.  1.
         -6    2    1    2    0  503 -0.32976885415E+02 -0.71281298574E+02  0.17150364481E+03  0.25497824018E+03  0.17155729155E+03 0.  0.
        -24    2    3    3    0    0 -0.35432027372E+02 -0.95772548365E+02  0.18548171540E+03  0.22628459112E+03  0.79833826463E+02 0.  0.
          6    2    1    2  501    0  0.32976885415E+02  0.71281298574E+02  0.17967670169E+03  0.26100690508E+03  0.17225675275E+03 0.  0.
         24    2    5    5    0    0 -0.13261266767E+02 -0.29014201249E+02  0.90928754111E+02  0.11924851132E+03  0.70245882844E+02 0.  0.
          5    1    5    5  501    0  0.46238152182E+02  0.10029549982E+03  0.88747947579E+02  0.14175839376E+03  0.47000000000E+01 0. -1.
        -11    1    6    6    0    0 -0.45255441796E+01  0.14356660380E+02 -0.30661084081E+01  0.15362137486E+02  0.00000000000E+00 0.  1.
         12    1    6    6    0    0 -0.87357225872E+01 -0.43370861629E+02  0.93994862519E+02  0.10388637383E+03  0.00000000000E+00 0. -1.
         -5    1    3    3    0  503  0.24551419571E+01  0.24491249790E+02 -0.13978070597E+02  0.28693649053E+02  0.47000000000E+01 0.  1.
         11    1    4    4    0    0  0.87899747001E+01  0.10371946000E+02  0.29670045601E+02  0.32636674540E+02  0.00000000000E+00 0. -1.
        -12    1    4    4    0    0 -0.44222002072E+02 -0.10614449436E+03  0.15581166980E+03  0.19364791658E+03  0.00000000000E+00 0.  1.
</event>
<event>
12    1  0.8356052E-002  0.1980740E+03  0.7818608E-02  0.1151468E+00
         21   -1    0    0  503  502  0.00000000000E+00  0.00000000000E+00  0.98195192679E+03  0.98195192679E+03  0.00000000000E+00 0. -1.
         21   -1    0    0  501  503 -0.00000000000E+00 -0.00000000000E+00 -0.52897131403E+02  0.52897131403E+02  0.00000000000E+00 0. -1.
          6    2    1    2  501    0 -0.43740278119E+02 -0.87003569815E+02  0.72095289349E+03  0.74755182093E+03  0.17198202596E+03 0.  0.
         24    2    3    3    0    0 -0.11558237959E+02 -0.10008251099E+03  0.68632243415E+03  0.69827605483E+03  0.80005395139E+02 0.  0.
         -6    2    1    2    0  502  0.43740278119E+02  0.87003569815E+02  0.20810190190E+03  0.28729723727E+03  0.17248323941E+03 0.  0.
        -24    2    5    5    0    0  0.17312842883E+02  0.50655386703E+02  0.24152881284E+02  0.97879888711E+02  0.78303309055E+02 0.  0.
          5    1    3    3  501    0 -0.32182040160E+02  0.13078941175E+02  0.34630459339E+02  0.49275766104E+02  0.47000000000E+01 0. -1.
        -11    1    4    4    0    0 -0.31323040141E+01  0.12330760958E+02  0.13171797938E+03  0.13233096798E+03  0.00000000000E+00 0.  1.
         12    1    4    4    0    0 -0.84259339448E+01 -0.11241327195E+03  0.55460445477E+03  0.56594508685E+03  0.00000000000E+00 0. -1.
         -5    1    5    5    0  502  0.26427435236E+02  0.36348183112E+02  0.18394902062E+03  0.18941734856E+03  0.47000000000E+01 0.  1.
         13    1    6    6    0    0 -0.11422515523E+02  0.61023610513E+02  0.25927012727E+02  0.67279750965E+02  0.00000000000E+00 0. -1.
        -14    1    6    6    0    0  0.28735358406E+02 -0.10368223810E+02 -0.17741314436E+01  0.30600137746E+02  0.00000000000E+00 0.  1.
</event>
<event>
12    1  0.8356052E-002  0.1942330E+03  0.7818608E-02  0.1154762E+00
         21   -1    0    0  503  502  0.00000000000E+00  0.00000000000E+00  0.21504008652E+04  0.21504008652E+04  0.00000000000E+00 0.  1.
         21   -1    0    0  501  503 -0.00000000000E+00 -0.00000000000E+00 -0.28978726731E+02  0.28978726731E+02  0.00000000000E+00 0.  1.
          6    2    1    2  501    0 -0.26359778724E+02 -0.84971809775E+02  0.37493584637E+03  0.42212582174E+03  0.17233187197E+03 0.  0.
         24    2    3    3    0    0 -0.57576128504E+02 -0.11846466174E+02  0.19004685594E+03  0.22081063316E+03  0.95834121954E+02 0.  0.
         -6    2    1    2    0  502  0.26359778724E+02  0.84971809775E+02  0.17464862921E+04  0.17572537702E+04  0.17265977516E+03 0.  0.
        -24    2    5    5    0    0  0.55318896393E+02 -0.24896240822E+01  0.67437200931E+03  0.68117790935E+03  0.78481582080E+02 0.  0.
          5    1    3    3  501    0  0.31216349780E+02 -0.73125343601E+02  0.18488899043E+03  0.20131518858E+03  0.47000000000E+01 0. -1.
        -11    1    4    4    0    0 -0.72805608070E+02 -0.38019321140E+02  0.14012606398E+03  0.16242364099E+03  0.00000000000E+00 0.  1.
         12    1    4    4    0    0  0.15229479566E+02  0.26172854966E+02  0.49920791955E+02  0.58386992167E+02  0.00000000000E+00 0. -1.
         -5    1    5    5    0  502 -0.28959117669E+02  0.87461433857E+02  0.10721142828E+04  0.10760758608E+04  0.47000000000E+01 0.  1.
         11    1    6    6    0    0  0.69459353769E+02  0.11239831818E+02  0.60443766335E+03  0.60851937070E+03  0.00000000000E+00 0. -1.
        -12    1    6    6    0    0 -0.14140457375E+02 -0.13729455900E+02  0.69934345962E+02  0.72658538653E+02  0.00000000000E+00 0.  1.
</event>
<event>
12    1  0.8356052E-002  0.1864268E+03  0.7818608E-02  0.1161858E+00
         21   -1    0    0  501  502  0.00000000000E+00  0.00000000000E+00  0.33141777159E+03  0.33141777159E+03  0.00000000000E+00 0.  1.
         21   -1    0    0  502  503 -0.00000000000E+00 -0.00000000000E+00 -0.11016151512E+03  0.11016151512E+03  0.00000000000E+00 0.  1.
         -6    2    1    2    0  503  0.70116268883E+02 -0.13535891659E+02  0.16066132346E+03  0.24610366290E+03  0.17220755068E+03 0.  0.
        -24    2    3    3    0    0  0.11017001194E+03  0.12649581427E+02  0.10518784541E+03  0.17269127906E+03  0.80376312443E+02 0.  0.
          6    2    1    2  501    0 -0.70116268883E+02  0.13535891659E+02  0.60594933009E+02  0.19547562381E+03  0.17157931715E+03 0.  0.
         24    2    5    5    0    0 -0.68876503585E+02  0.67037143036E+02  0.46967953910E+02  0.14005265496E+03  0.90392511717E+02 0.  0.
          5    1    5    5  501    0 -0.12397652981E+01 -0.53501251377E+02  0.13626979099E+02  0.55422968851E+02  0.47000000000E+01 0. -1.
        -11    1    6    6    0    0 -0.60213197709E+00  0.10118108279E+01  0.45040158789E+02  0.45055546028E+02  0.00000000000E+00 0.  1.
         12    1    6    6    0    0 -0.68274371608E+02  0.66025332208E+02  0.19277951211E+01  0.94997108933E+02  0.00000000000E+00 0. -1.
         -5    1    3    3    0  503 -0.40053743055E+02 -0.26185473086E+02  0.55473478057E+02  0.73412383841E+02  0.47000000000E+01 0.  1.
         13    1    4    4    0    0  0.15822549385E+02  0.27211648260E+02  0.58478625712E+02  0.66412171590E+02  0.00000000000E+00 0. -1.
        -14    1    4    4    0    0  0.94347462553E+02 -0.14562066832E+02  0.46709219695E+02  0.10627910747E+03  0.00000000000E+00 0.  1.
</event>
<event>
12    1  0.8356052E-002  0.2399948E+03  0.7818608E-02  0.1121182E+00
         21   -1    0    0  503  502  0.00000000000E+00  0.00000000000E+00  0.93796021123E+03  0.93796021123E+03  0.00000000000E+00 0.  1.
         21   -1    0    0  501  503 -0.00000000000E+00 -0.00000000000E+00 -0.84802255376E+02  0.84802255376E+02  0.00000000000E+00 0.  1.
          6    2    1    2  501    0  0.74864406266E+02 -0.13546133688E+03  0.70162503628E+03  0.73893204633E+03  0.17259323408E+03 0.  0.
         24    2    3    3    0    0  0.80881569234E+02 -0.70852292552E+02  0.25746740963E+03  0.29003492876E+03  0.79176494463E+02 0.  0.
         -6    2    1    2    0  502 -0.74864406266E+02  0.13546133688E+03  0.15153291958E+03  0.28383042028E+03  0.18342036049E+03 0.  0.
        -24    2    5    5    0    0 -0.40232578821E+02  0.14490716001E+02  0.12591038494E+03  0.15533194219E+03  0.80286648835E+02 0.  0.
          5    1    3    3  501    0 -0.60171629681E+01 -0.64609044332E+02  0.44415762665E+03  0.44889711758E+03  0.47000000000E+01 0. -1.
        -13    1    4    4    0    0  0.47077044086E+02 -0.79289226167E+00  0.15104834533E+03  0.15821655850E+03  0.00000000000E+00 0.  1.
         14    1    4    4    0    0  0.33804525148E+02 -0.70059400290E+02  0.10641906430E+03  0.13181837025E+03  0.00000000000E+00 0. -1.
         -5    1    5    5    0  502 -0.34631827445E+02  0.12097062088E+03  0.25622534644E+02  0.12849847809E+03  0.47000000000E+01 0.  1.
         13    1    6    6    0    0  0.14288124143E+02  0.23483808491E+02  0.14753134708E+02  0.31197671973E+02  0.00000000000E+00 0. -1.
        -14    1    6    6    0    0 -0.54520702964E+02 -0.89930924900E+01  0.11115725023E+03  0.12413427022E+03  0.00000000000E+00 0.  1.
</event>
<event>
12    1  0.8356052E-002  0.1767188E+03  0.7818608E-02  0.1171917E+00
         21   -1    0    0  503  502  0.00000000000E+00  0.00000000000E+00  0.26727810300E+03  0.26727810300E+03  0.00000000000E+00 0. -1.
         21   -1    0    0  501  503 -0.00000000000E+00 -0.00000000000E+00 -0.11978918244E+03  0.11978918244E+03  0.00000000000E+00 0. -1.
          6    2    1    2  501    0  0.20552677588E+02  0.16984104337E+02  0.11376188753E+03  0.20715887147E+03  0.17106185612E+03 0.  0.
         24    2    3    3    0    0  0.59934617578E+02 -0.22547839532E+02  0.11322798187E+03  0.15115809613E+03  0.76991107905E+02 0.  0.
         -6    2    1    2    0  502 -0.20552677588E+02 -0.16984104337E+02  0.33727033039E+02  0.17990841397E+03  0.17469588519E+03 0.  0.
        -24    2    5    5    0    0  0.34573719878E+02 -0.14891835833E+02  0.80344695222E+02  0.10753028390E+03  0.60748522813E+02 0.  0.
          5    1    3    3  501    0 -0.39381939989E+02  0.39531943869E+02  0.53390565411E+00  0.56000775340E+02  0.47000000000E+01 0. -1.
        -11    1    4    4    0    0  0.12636054101E+02 -0.32697456993E+02  0.89091484074E+01  0.36168584191E+02  0.00000000000E+00 0.  1.
         12    1    4    4    0    0  0.47298563476E+02  0.10149617461E+02  0.10431883346E+03  0.11498951194E+03  0.00000000000E+00 0. -1.
         -5    1    5    5    0  502 -0.55126397467E+02 -0.20922685049E+01 -0.46617662183E+02  0.72378130071E+02  0.47000000000E+01 0.  1.
         11    1    6    6    0    0  0.29765849660E+02 -0.15433463866E+02  0.72860082479E+01  0.34311565529E+02  0.00000000000E+00 0. -1.
        -12    1    6    6    0    0  0.48078702182E+01  0.54162803341E+00  0.73058686975E+02  0.73218718368E+02  0.00000000000E+00 0.  1.
</event>
<event>
12    1  0.8356052E-002  0.2112221E+03  0.7818608E-02  0.1140754E+00
         21   -1    0    0  501  502  0.00000000000E+00  0.00000000000E+00  0.49722194098E+03  0.49722194098E+03  0.00000000000E+00 0.  1.
         21   -1    0    0  502  503 -0.00000000000E+00 -0.00000000000E+00 -0.13407317358E+03  0.13407317358E+03  0.00000000000E+00 0.  1.
         -6    2    1    2    0  503  0.11744838604E+03  0.32500245476E+02 -0.85077901083E+00  0.21045021912E+03  0.17157558557E+03 0.  0.
        -24    2    3    3    0    0  0.66244489758E+01  0.51836629981E+02 -0.16865902076E+02  0.96720649712E+02  0.79621014159E+02 0.  0.
          6    2    1    2  501    0 -0.11744838604E+03 -0.32500245476E+02  0.36399954642E+03  0.42084489544E+03  0.17252352561E+03 0.  0.
         24    2    5    5    0    0  0.98845410476E+00  0.11039278064E+02  0.10446362191E+03  0.13222063915E+03  0.80292007150E+02 0.  0.
          5    1    5    5  501    0 -0.11843684014E+03 -0.43539523540E+02  0.25953592450E+03  0.28862425629E+03  0.47000000000E+01 0. -1.
        -13    1    6    6    0    0 -0.28009271843E+02 -0.11961817622E+02  0.85231652296E+02  0.90509883124E+02  0.00000000000E+00 0.  1.
         14    1    6    6    0    0  0.28997725948E+02  0.23001095686E+02  0.19231969617E+02  0.41710756026E+02  0.00000000000E+00 0. -1.
         -5    1    3    3    0  503  0.11082393706E+03 -0.19336384506E+02  0.16015123065E+02  0.11372956941E+03  0.47000000000E+01 0.  1.
         13    1    4    4    0    0 -0.13595251347E+02  0.36027732520E+02  0.26207829066E+02  0.46579809725E+02  0.00000000000E+00 0. -1.
        -14    1    4    4    0    0  0.20219700322E+02  0.15808897462E+02 -0.43073731142E+02  0.50140839986E+02  0.00000000000E+00 0.  1.
</event>
<event>
12    1  0.8356052E-002  0.2411853E+03  0.7818608E-02  0.1120187E+00
         21   -1    0    0  501  502  0.00000000000E+00  0.00000000000E+00  0.20571077511E+03  0.20571077511E+03  0.00000000000E+00 0. -1.
         21   -1    0    0  502  503 -0.00000000000E+00 -0.00000000000E+00 -0.48469303854E+03  0.48469303854E+03  0.00000000000E+00 0.  1.
         -6    2    1    2    0  503  0.87667903932E+02 -0.14308756500E+03 -0.36791756863E+03  0.43992461773E+03  0.17323573345E+03 0.  0.
        -24    2    3    3    0    0  0.12991743393E+02 -0.10959692066E+03 -0.13079907609E+03  0.18903535587E+03  0.80285098548E+02 0.  0.
          6    2    1    2  501    0 -0.87667903932E+02  0.14308756500E+03  0.88935305195E+02  0.25047919591E+03  0.16331144001E+03 0.  0.
         24    2    5    5    0    0 -0.18976393586E+02  0.22924624598E+02  0.74489822443E+02  0.11123689699E+03  0.77066670338E+02 0.  0.
          5    1    5    5  501    0 -0.68691510346E+02  0.12016294040E+03  0.14445482752E+02  0.13924229893E+03  0.47000000000E+01 0. -1.
        -11    1    6    6    0    0 -0.28792684013E+02 -0.11097140896E+02  0.68760324846E+02  0.75366753025E+02  0.00000000000E+00 0.  1.
         12    1    6    6    0    0  0.98162904272E+01  0.34021765493E+02  0.57294975977E+01  0.35870143960E+02  0.00000000000E+00 0. -1.
         -5    1    3    3    0  503  0.74676160540E+02 -0.33490644332E+02 -0.23711849254E+03  0.25088926186E+03  0.47000000000E+01 0.  1.
         11    1    4    4    0    0 -0.18867375657E+02  0.28627916809E+01 -0.13023320089E+02  0.23103685994E+02  0.00000000000E+00 0. -1.
        -12    1    4    4    0    0  0.31859119050E+02 -0.11245971234E+03 -0.11777575600E+03  0.16593166988E+03  0.00000000000E+00 0.  1.
</event>
<event>
12    1  0.8356052E-002  0.1912113E+03  0.7818608E-02  0.1158544E+00
         21   -1    0    0  503  502  0.00000000000E+00  0.00000000000E+00  0.28286501680E+03  0.28286501680E+03  0.00000000000E+00 0.  1.
         21   -1    0    0  501  503 -0.00000000000E+00 -0.00000000000E+00 -0.33122620635E+03  0.33122620635E+03  0.00000000000E+00 0.  1.
          6    2    1    2  501    0  0.79615540020E+02  0.25646203403E+02 -0.26610951082E+03  0.32768281292E+03  0.17194589897E+03 0.  0.
         24    2    3    3    0    0  0.28200218732E+02 -0.62790231360E+00 -0.25474676533E+03  0.26864836637E+03  0.80500830485E+02 0.  0.
         -6    2    1    2    0  502 -0.79615540020E+02 -0.25646203403E+02  0.21774832127E+03  0.28640841023E+03  0.16618990363E+03 0.  0.
        -24    2    5    5    0    0  0.12013521704E+02  0.33888190670E+01  0.69933706105E+02  0.11002766315E+03  0.84021155729E+02 0.  0.
          5    1    3    3  501    0  0.51415321288E+02  0.26274105717E+02 -0.11362745488E+02  0.59034446550E+02  0.47000000000E+01 0. -1.
        -11    1    4    4    0    0  0.46593291259E+02 -0.25955123187E+02 -0.14386508417E+03  0.15343326123E+03  0.00000000000E+00 0.  1.
         12    1    4    4    0    0 -0.18393072527E+02  0.25327220873E+02 -0.11088168117E+03  0.11521510514E+03  0.00000000000E+00 0. -1.
         -5    1    5    5    0  502 -0.91629061724E+02 -0.29035022470E+02  0.14781461517E+03  0.17638074708E+03  0.47000000000E+01 0.  1.
         13    1    6    6    0    0 -0.52380816446E+01  0.41591377019E+02  0.43817295538E+02  0.60640213802E+02  0.00000000000E+00 0. -1.
        -14    1    6    6    0    0  0.17251603348E+02 -0.38202557952E+02  0.26116410566E+02  0.49387449347E+02  0.00000000000E+00 0.  1.
</event>
<event>
12    1  0.8356052E-002  0.4872061E+03  0.7818608E-02  0.1017263E+00
         21   -1    0    0  501  502  0.00000000000E+00  0.00000000000E+00  0.32278603222E+03  0.32278603222E+03  0.00000000000E+00 0. -1.
         21   -1    0    0  502  503 -0.00000000000E+00 -0.00000000000E+00 -0.73830267230E+03  0.73830267230E+03  0.00000000000E+00 0.  1.
         -6    2    1    2    0  503  0.37420976007E+03  0.25863329237E+03 -0.25138687585E+03  0.54823821311E+03  0.17448682620E+03 0.  0.
        -24    2    3    3    0    0  0.14675298704E+03  0.14584542774E+03 -0.59271516617E+02  0.22982325232E+03  0.80611950898E+02 0.  0.
          6    2    1    2  501    0 -0.37420976007E+03 -0.25863329237E+03 -0.16412976424E+03  0.51285049140E+03  0.17074226944E+03 0.  0.
         24    2    5    5    0    0 -0.19045680479E+03 -0.19946339120E+03 -0.61277735570E+02  0.29406553859E+03  0.81609688083E+02 0.  0.
          5    1    5    5  501    0 -0.18375295528E+03 -0.59169901171E+02 -0.10285202867E+03  0.21878495282E+03  0.47000000000E+01 0. -1.
        -11    1    6    6    0    0 -0.16906953774E+03 -0.12968761127E+03 -0.58794314163E+02  0.22104333622E+03  0.00000000000E+00 0.  1.
         12    1    6    6    0    0 -0.21387267046E+02 -0.69775779933E+02 -0.24834214077E+01  0.73022202369E+02  0.00000000000E+00 0. -1.
         -5    1    3    3    0  503  0.22745677303E+03  0.11278786463E+03 -0.19211535923E+03  0.31841496079E+03  0.47000000000E+01 0.  1.
         13    1    4    4    0    0  0.13514003238E+03  0.15422057225E+03 -0.63894649325E+02  0.21477741844E+03  0.00000000000E+00 0. -1.
        -14    1    4    4    0    0  0.11612954654E+02 -0.83751445059E+01  0.46231327078E+01  0.15045833886E+02  0.00000000000E+00 0.  1.
</event>
<event>
12    1  0.8356052E-002  0.2004429E+03  0.7818608E-02  0.1150721E+00
         21   -1    0    0  501  502  0.00000000000E+00  0.00000000000E+00  0.15999104296E+04  0.15999104296E+04  0.00000000000E+00 0. -1.
         21   -1    0    0  502  503 -0.00000000000E+00 -0.00000000000E+00 -0.16068154169E+03  0.16068154169E+03  0.00000000000E+00 0. -1.
         -6    2    1    2    0  503 -0.51554825975E+02  0.78035320140E+02 -0.89551339570E+02  0.21953772267E+03  0.17728496267E+03 0.  0.
        -24    2    3    3    0    0 -0.20127988878E+02  0.68880235580E+01 -0.10862828755E+03  0.13931550726E+03  0.84593882187E+02 0.  0.
          6    2    1    2  501    0  0.51554825975E+02 -0.78035320140E+02  0.15287802274E+04  0.15410542486E+04  0.17009350955E+03 0.  0.
         24    2    5    5    0    0 -0.30183369607E+02 -0.65520565871E+02  0.70457105949E+03  0.71269406471E+03  0.79425887783E+02 0.  0.
          5    1    5    5  501    0  0.81738195581E+02 -0.12514754269E+02  0.82420916795E+03  0.82836018387E+03  0.47000000000E+01 0. -1.
        -11    1    6    6    0    0 -0.18518567970E+02 -0.70486640062E+02  0.68790128588E+03  0.69175102667E+03  0.00000000000E+00 0.  1.
         12    1    6    6    0    0 -0.11664801637E+02  0.49660741917E+01  0.16669773616E+02  0.20943038044E+02  0.00000000000E+00 0. -1.
         -5    1    3    3    0  503 -0.31426837097E+02  0.71147296582E+02  0.19076947981E+02  0.80222215409E+02  0.47000000000E+01 0.  1.
         11    1    4    4    0    0  0.25237036547E+02  0.56336947815E+01 -0.52099086938E+01  0.26377825520E+02  0.00000000000E+00 0. -1.
        -12    1    4    4    0    0 -0.45365025425E+02  0.12543287765E+01 -0.10341837886E+03  0.11293768174E+03  0.00000000000E+00 0.  1.
</event>
<event>
12    1  0.8356052E-002  0.2047802E+03  0.7818608E-02  0.1146379E+00
         21   -1    0    0  503  502  0.00000000000E+00  0.00000000000E+00  0.19140597769E+03  0.19140597769E+03  0.00000000000E+00 0.  1.
         21   -1    0    0  501  503 -0.00000000000E+00 -0.00000000000E+00 -0.22804955584E+03  0.22804955584E+03  0.00000000000E+00 0.  1.
          6    2    1    2  501    0 -0.10713372117E+03  0.34416707889E+01 -0.66548078975E+02  0.21250334350E+03  0.17099574519E+03 0.  0.
         24    2    3    3    0    0 -0.14247917487E+03 -0.10005304695E+02 -0.48622450757E+02  0.17038992053E+03  0.79171717835E+02 0.  0.
         -6    2    1    2    0  502  0.10713372117E+03 -0.34416707889E+01  0.29904500825E+02  0.20695219003E+03  0.17448624725E+03 0.  0.
        -24    2    5    5    0    0  0.80750219546E+02  0.64492299384E+02  0.29244378040E+02  0.13392042144E+03  0.79997443674E+02 0.  0.
          5    1    3    3  501    0  0.35345453703E+02  0.13446975484E+02 -0.17925628218E+02  0.42113422969E+02  0.47000000000E+01 0. -1.
        -11    1    4    4    0    0 -0.77113641898E+02  0.31903885627E+02 -0.11218240141E+02  0.84203447654E+02  0.00000000000E+00 0.  1.
         12    1    4    4    0    0 -0.65365532975E+02 -0.41909190322E+02 -0.37404210616E+02  0.86186472873E+02  0.00000000000E+00 0. -1.
         -5    1    5    5    0  502  0.26383501623E+02 -0.67933970173E+02  0.66012278469E+00  0.73031768590E+02  0.47000000000E+01 0.  1.
         11    1    6    6    0    0  0.94823276704E+02  0.56913980126E+02  0.13377501273E+02  0.11139844020E+03  0.00000000000E+00 0. -1.
        -12    1    6    6    0    0 -0.14073057157E+02  0.75783192573E+01  0.15866876767E+02  0.22521981237E+02  0.00000000000E+00 0.  1.
</event>
<event>
12    1  0.8356052E-002  0.2227680E+03  0.7818608E-02  0.1132038E+00
         21   -1    0    0  503  502  0.00000000000E+00  0.00000000000E+00  0.19254040661E+03  0.19254040661E+03  0.00000000000E+00 0. -1.
         21   -1    0    0  501  503 -0.00000000000E+00 -0.00000000000E+00 -0.31558961644E+03  0.31558961644E+03  0.00000000000E+00 0.  1.
          6    2    1    2  501    0 -0.12496627771E+02  0.14013150744E+03 -0.17136343057E+03  0.28018302199E+03  0.17130118328E+03 0.  0.
         24    2    3    3    0    0  0.50727241327E+02  0.88014461250E+02 -0.64338942867E+02  0.14531354771E+03  0.81588780944E+02 0.  0.
         -6    2    1    2    0  502  0.12496627771E+02 -0.14013150744E+03  0.48314220744E+02  0.22794700106E+03  0.17272106497E+03 0.  0.
        -24    2    5    5    0    0  0.27713277166E+02 -0.32792099430E+02  0.74923943326E+02  0.11621758565E+03  0.77779061550E+02 0.  0.
          5    1    3    3  501    0 -0.63223869097E+02  0.52117046189E+02 -0.10702448770E+03  0.13486947429E+03  0.47000000000E+01 0. -1.
        -11    1    4    4    0    0  0.62346793611E+02  0.78221522323E+02 -0.76436739088E+02  0.12589004850E+03  0.00000000000E+00 0.  1.
         12    1    4    4    0    0 -0.11619552284E+02  0.97929389269E+01  0.12097796221E+02  0.19423499209E+02  0.00000000000E+00 0. -1.
         -5    1    5    5    0  502 -0.15216649396E+02 -0.10733940801E+03 -0.26609722583E+02  0.11172941540E+03  0.47000000000E+01 0.  1.
         13    1    6    6    0    0  0.38601386353E+02 -0.48879845680E+02  0.34101089826E+02  0.71008384500E+02  0.00000000000E+00 0. -1.
        -14    1    6    6    0    0 -0.10888109186E+02  0.16087746251E+02  0.40822853501E+02  0.45209201154E+02  0.00000000000E+00 0.  1.
</event>
<event>
12    1  0.8356052E-002  0.2330447E+03  0.7818608E-02  0.1124565E+00
         21   -1    0    0  501  502  0.00000000000E+00  0.00000000000E+00  0.36838341966E+02  0.36838341966E+02  0.00000000000E+00 0. -1.
         21   -1    0    0  502  503 -0.00000000000E+00 -0.00000000000E+00 -0.15487164269E+04  0.15487164269E+04  0.00000000000E+00 0. -1.
         -6    2    1    2    0  503  0.15541357439E+03 -0.28292241116E+02 -0.57953485791E+03  0.62452732872E+03  0.17093830109E+03 0.  0.
        -24    2    3    3    0    0  0.90179287407E+02  0.86801213021E+01 -0.23593535961E+03  0.27280986682E+03  0.10272332322E+03 0.  0.
          6    2    1    2  501    0 -0.15541357439E+03  0.28292241116E+02 -0.93234322705E+03  0.96102744017E+03  0.17133597905E+03 0.  0.
         24    2    5    5    0    0 -0.70084479031E+02  0.64076133754E+02 -0.34517902240E+03  0.36659877775E+03  0.78920980866E+02 0.  0.
          5    1    5    5  501    0 -0.85329095362E+02 -0.35783892638E+02 -0.58716420465E+03  0.59442866242E+03  0.47000000000E+01 0. -1.
        -13    1    6    6    0    0 -0.57178301323E+02  0.77534240363E+02 -0.32563484365E+03  0.33958646611E+03  0.00000000000E+00 0.  1.
         14    1    6    6    0    0 -0.12906177709E+02 -0.13458106609E+02 -0.19544178758E+02  0.27012311635E+02  0.00000000000E+00 0. -1.
         -5    1    3    3    0  503  0.65234286987E+02 -0.36972362418E+02 -0.34359949829E+03  0.35171746190E+03  0.47000000000E+01 0.  1.
         11    1    4    4    0    0  0.86453220616E+02 -0.34336958608E+02 -0.14724427641E+03  0.17416676783E+03  0.00000000000E+00 0. -1.
        -12    1    4    4    0    0  0.37260667912E+01  0.43017079910E+02 -0.88691083209E+02  0.98643098991E+02  0.00000000000E+00 0.  1.
</event>
<event>
12    1  0.8356052E-002  0.1814191E+03  0.7818608E-02  0.1166446E+00
         21   -1    0    0  503  502  0.00000000000E+00  0.00000000000E+00  0.44201021144E+03  0.44201021144E+03  0.00000000000E+00 0. -1.
         21   -1    0    0  501  503 -0.00000000000E+00 -0.00000000000E+00 -0.12445735512E+03  0.12445735512E+03  0.00000000000E+00 0. -1.
          6    2    1    2  501    0 -0.51567259483E+02 -0.21812133138E+02 -0.20757650115E+02  0.18260279400E+03  0.17256288400E+03 0.  0.
         24    2    3    3    0    0 -0.30551861231E+02 -0.50796560157E+02 -0.69757652356E+02  0.12173544485E+03  0.80247627513E+02 0.  0.
         -6    2    1    2    0  502  0.51567259483E+02  0.21812133138E+02  0.33831050644E+03  0.38386477256E+03  0.17252018271E+03 0.  0.
        -24    2    5    5    0    0 -0.29013516821E+02 -0.20367019202E+02  0.17998686202E+03  0.20121535760E+03  0.82678594606E+02 0.  0.
          5    1    3    3  501    0 -0.21015398252E+02  0.28984427018E+02  0.49000002241E+02  0.60867349153E+02  0.47000000000E+01 0. -1.
        -11    1    4    4    0    0  0.21046231927E+02 -0.17993541839E+02  0.16366132695E+01  0.27737878961E+02  0.00000000000E+00 0.  1.
         12    1    4    4    0    0 -0.51598093158E+02 -0.32803018318E+02 -0.71394265626E+02  0.93997565886E+02  0.00000000000E+00 0. -1.
         -5    1    5    5    0  502  0.80580776304E+02  0.42179152341E+02  0.15832364442E+03  0.18264941496E+03  0.47000000000E+01 0.  1.
         11    1    6    6    0    0 -0.82495413868E+01 -0.51707363575E+02  0.10419199545E+03  0.11660908325E+03  0.00000000000E+00 0. -1.
        -12    1    6    6    0    0 -0.20763975434E+02  0.31340344373E+02  0.75794866571E+02  0.84606274352E+02  0.00000000000E+00 0.  1.
</event>
<event>
12    1  0.8356052E-002  0.2048852E+03  0.7818608E-02  0.1145694E+00
         21   -1    0    0  503  502  0.00000000000E+00  0.00000000000E+00  0.57941615154E+03  0.57941615154E+03  0.00000000000E+00 0. -1.
         21   -1    0    0  501  503 -0.00000000000E+00 -0.00000000000E+00 -0.13561326100E+03  0.13561326100E+03  0.00000000000E+00 0. -1.
          6    2    1    2  501    0 -0.62759726675E+02  0.91864245074E+02 -0.22116772195E+02  0.20607550424E+03  0.17204690936E+03 0.  0.
         24    2    3    3    0    0 -0.35706840167E+02  0.13013193383E+03 -0.94178206407E+01  0.15729407292E+03  0.80270987237E+02 0.  0.
         -6    2    1    2    0  502  0.62759726675E+02 -0.91864245074E+02  0.46591966274E+03  0.50895390830E+03  0.17197420107E+03 0.  0.
        -24    2    5    5    0    0  0.28785970271E+02  0.17436776219E+02  0.15933417377E+03  0.18166553175E+03  0.80512814169E+02 0.  0.
          5    1    3    3  501    0 -0.27052886509E+02 -0.38267688760E+02 -0.12698951554E+02  0.48781431324E+02  0.47000000000E+01 0. -1.
        -13    1    4    4    0    0  0.13619664040E+02  0.11985628113E+02  0.18869478880E+02  0.26176473464E+02  0.00000000000E+00 0.  1.
         14    1    4    4    0    0 -0.49326504207E+02  0.11814630572E+03 -0.28287299521E+02  0.13111759946E+03  0.00000000000E+00 0. -1.
         -5    1    5    5    0  502  0.33973756404E+02 -0.10930102129E+03  0.30658548897E+03  0.32728837655E+03  0.47000000000E+01 0.  1.
         13    1    6    6    0    0 -0.22935685496E+02 -0.10473405351E+02  0.72948447621E+02  0.77182989701E+02  0.00000000000E+00 0. -1.
        -14    1    6    6    0    0  0.51721655768E+02  0.27910181570E+02  0.86385726146E+02  0.10448254205E+03  0.00000000000E+00 0.  1.
</event>
<event>
12    1  0.8356052E-002  0.2284543E+03  0.7818608E-02  0.1128007E+00
         21   -1    0    0  501  502  0.00000000000E+00  0.00000000000E+00  0.28637111380E+03  0.28637111380E+03  0.00000000000E+00 0.  1.
         21   -1    0    0  502  503 -0.00000000000E+00 -0.00000000000E+00 -0.25605201161E+03  0.25605201161E+03  0.00000000000E+00 0. -1.
         -6    2    1    2    0  503 -0.14819115220E+03 -0.25495617743E+01  0.16200491315E+03  0.28006598461E+03  0.17385121798E+03 0.  0.
        -24    2    3    3    0    0 -0.55357974485E+02 -0.11145944105E+02  0.55384537615E+01  0.97869004421E+02  0.79742900294E+02 0.  0.
          6    2    1    2  501    0  0.14819115220E+03  0.25495617743E+01 -0.13168581096E+03  0.26235714080E+03  0.17182257903E+03 0.  0.
         24    2    5    5    0    0  0.15273462573E+03  0.49937631034E+02 -0.98885817975E+02  0.20435540118E+03  0.78492624504E+02 0.  0.
          5    1    5    5  501    0 -0.45434735320E+01 -0.47388069260E+02 -0.32799992983E+02  0.58001739626E+02  0.47000000000E+01 0. -1.
        -11    1    6    6    0    0  0.49939415957E+02  0.49905556437E+02 -0.16209667898E+02  0.72437995297E+02  0.00000000000E+00 0.  1.
         12    1    6    6    0    0  0.10279520978E+03  0.32074597417E-01 -0.82676150077E+02  0.13191740588E+03  0.00000000000E+00 0. -1.
         -5    1    3    3    0  503 -0.92833177718E+02  0.85963823305E+01  0.15646645939E+03  0.18219698019E+03  0.47000000000E+01 0.  1.
         13    1    4    4    0    0  0.18344320053E+02  0.87416835362E+01  0.70694110558E+01  0.21515289492E+02  0.00000000000E+00 0. -1.
        -14    1    4    4    0    0 -0.73702294537E+02 -0.19887627641E+02 -0.15309572942E+01  0.76353714929E+02  0.00000000000E+00 0.  1.
</event>
<event>
12    1  0.8356052E-002  0.2012260E+03  0.7818608E-02  0.1149096E+00
         21   -1    0    0  501  502  0.00000000000E+00  0.00000000000E+00  0.12729502498E+03  0.12729502498E+03  0.00000000000E+00 0. -1.
         21   -1    0    0  502  503 -0.00000000000E+00 -0.00000000000E+00 -0.31590129316E+03  0.31590129316E+03  0.00000000000E+00 0.  1.
         -6    2    1    2    0  503  0.36979509454E+01  0.10113486580E+03 -0.10438086620E+03  0.22505455610E+03  0.17179130383E+03 0.  0.
        -24    2    3    3    0    0 -0.31550948189E+02  0.12851124125E+03 -0.77929263834E+02  0.17296110076E+03  0.79573681296E+02 0.  0.
          6    2    1    2  501    0 -0.36979509454E+01 -0.10113486580E+03 -0.84225401988E+02  0.21814176203E+03  0.17392519679E+03 0.  0.
         24    2    5    5    0    0 -0.39600768513E+02 -0.94713611356E+02 -0.11211978572E+03  0.17198516487E+03  0.80431098110E+02 0.  0.
          5    1    5    5  501    0  0.35902817568E+02 -0.64212544475E+01  0.27894383728E+02  0.46156597162E+02  0.47000000000E+01 0. -1.
        -11    1    6    6    0    0 -0.45559610211E+02 -0.89196021469E+02 -0.12286498035E+03  0.15851628221E+03  0.00000000000E+00 0.  1.
         12    1    6    6    0    0  0.59588416977E+01 -0.55175898868E+01  0.10745194631E+02  0.13468882664E+02  0.00000000000E+00 0. -1.
         -5    1    3    3    0  503  0.35248899134E+02 -0.27376375441E+02 -0.26451602363E+02  0.52093455348E+02  0.47000000000E+01 0.  1.
         11    1    4    4    0    0 -0.23931508276E+02  0.12097227565E+03 -0.93009485270E+02  0.15445961581E+03  0.00000000000E+00 0. -1.
        -12    1    4    4    0    0 -0.76194399127E+01  0.75389655935E+01  0.15080221436E+02  0.18501484950E+02  0.00000000000E+00 0.  1.
</event>
<event>
12    1  0.8356052E-002  0.2004576E+03  0.7818608E-02  0.1150027E+00
         21   -1    0    0  501  502  0.00000000000E+00  0.00000000000E+00  0.30117767385E+03  0.30117767385E+03  0.00000000000E+00 0.  1.
         21   -1    0    0  502  503 -0.00000000000E+00 -0.00000000000E+00 -0.19285540321E+03  0.19285540321E+03  0.00000000000E+00 0.  1.
         -6    2    1    2    0  503 -0.55087865039E+02 -0.81775919484E+02 -0.85079243485E+02  0.21776526038E+03  0.17453153604E+03 0.  0.
        -24    2    3    3    0    0 -0.61106739349E+02 -0.10891659837E+03 -0.24420279639E+02  0.15087398147E+03  0.81053989632E+02 0.  0.
          6    2    1    2  501    0  0.55087865039E+02  0.81775919484E+02  0.19340151412E+03  0.27626781669E+03  0.17087359946E+03 0.  0.
         24    2    5    5    0    0  0.97095973387E+01  0.63513585135E+02  0.20077633297E+03  0.22657699270E+03  0.83052669825E+02 0.  0.
          5    1    5    5  501    0  0.45378267700E+02  0.18262334349E+02 -0.73748188471E+01  0.49690823986E+02  0.47000000000E+01 0. -1.
        -11    1    6    6    0    0 -0.15122127867E+02  0.70371871827E+02  0.10433591658E+03  0.12675512843E+03  0.00000000000E+00 0.  1.
         12    1    6    6    0    0  0.24831725206E+02 -0.68582866921E+01  0.96440416387E+02  0.99821864268E+02  0.00000000000E+00 0. -1.
         -5    1    3    3    0  503  0.60188743097E+01  0.27140678881E+02 -0.60658963846E+02  0.66891278900E+02  0.47000000000E+01 0.  1.
         11    1    4    4    0    0 -0.17921599013E+02 -0.72445399112E+02  0.21919574645E+02  0.77781664397E+02  0.00000000000E+00 0. -1.
        -12    1    4    4    0    0 -0.43185140336E+02 -0.36471199253E+02 -0.46339854284E+02  0.73092317078E+02  0.00000000000E+00 0.  1.
</event>
<event>
12    1  0.8356052E-002  0.1755691E+03  0.7818608E-02  0.1172209E+00
         21   -1    0    0  501  502  0.00000000000E+00  0.00000000000E+00  0.41956611189E+02  0.41956611189E+02  0.00000000000E+00 0. -1.
         21   -1    0    0  502  503 -0.00000000000E+00 -0.00000000000E+00 -0.73421163939E+03  0.73421163939E+03  0.00000000000E+00 0. -1.
         -6    2    1    2    0  503  0.12128772515E+02 -0.32180009949E+02 -0.33780456962E+03  0.38061845242E+03  0.17197621611E+03 0.  0.
        -24    2    3    3    0    0  0.57574806566E+02 -0.64901243541E+00 -0.11347044319E+03  0.14951796325E+03  0.78516242198E+02 0.  0.
          6    2    1    2  501    0 -0.12128772515E+02  0.32180009949E+02 -0.35445045859E+03  0.39554979816E+03  0.17216810119E+03 0.  0.
         24    2    5    5    0    0 -0.57082882660E+02  0.30440267186E+02 -0.32685671700E+03  0.34256486352E+03  0.79563225861E+02 0.  0.
          5    1    5    5  501    0  0.44954110145E+02  0.17397427636E+01 -0.27593741581E+02  0.52984934635E+02  0.47000000000E+01 0. -1.
        -13    1    6    6    0    0  0.53871480559E+01 -0.89338878822E+01 -0.36851180877E+01  0.11064167939E+02  0.00000000000E+00 0.  1.
         14    1    6    6    0    0 -0.62470030716E+02  0.39374155068E+02 -0.32317159892E+03  0.33150069558E+03  0.00000000000E+00 0. -1.
         -5    1    3    3    0  503 -0.45446034051E+02 -0.31530997514E+02 -0.22433412643E+03  0.23110048917E+03  0.47000000000E+01 0.  1.
         13    1    4    4    0    0  0.38279473294E+01 -0.30185355677E+02 -0.63484853833E+02  0.70399826309E+02  0.00000000000E+00 0. -1.
        -14    1    4    4    0    0  0.53746859236E+02  0.29536343241E+02 -0.49985589352E+02  0.79118136939E+02  0.00000000000E+00 0.  1.
</event>
<event>
12    1  0.8356052E-002  0.1939136E+03  0.7818608E-02  0.1155002E+00
         21   -1    0    0  501  502  0.00000000000E+00  0.00000000000E+00  0.45993798411E+02  0.45993798411E+02  0.00000000000E+00 0.  1.
         21   -1    0    0  502  503 -0.00000000000E+00 -0.00000000000E+00 -0.81730242382E+03  0.81730242382E+03  0.00000000000E+00 0. -1.
         -6    2    1    2    0  503  0.42914837402E+02  0.78437066175E+02 -0.37884706935E+03  0.42559086765E+03  0.17207099713E+03 0.  0.
        -24    2    3    3    0    0  0.83037652944E+02  0.95695797458E+02 -0.31797633730E+03  0.35052396314E+03  0.75532510849E+02 0.  0.
          6    2    1    2  501    0 -0.42914837402E+02 -0.78437066175E+02 -0.39246155606E+03  0.43770535458E+03  0.17194722395E+03 0.  0.
         24    2    5    5    0    0 -0.37919702103E+02 -0.11985820963E+03 -0.32993073506E+03  0.36238698978E+03  0.81646470844E+02 0.  0.
          5    1    5    5  501    0 -0.49951352991E+01  0.41421143453E+02 -0.62530821002E+02  0.75318364805E+02  0.47000000000E+01 0. -1.
        -11    1    6    6    0    0  0.10482652297E+02  0.26668209056E+01 -0.53027786205E+01  0.12046468114E+02  0.00000000000E+00 0.  1.
         12    1    6    6    0    0 -0.48402354400E+02 -0.12252503053E+03 -0.32462795644E+03  0.35034052166E+03  0.00000000000E+00 0. -1.
         -5    1    3    3    0  503 -0.40122815542E+02 -0.17258731283E+02 -0.60870732050E+02  0.75066904511E+02  0.47000000000E+01 0.  1.
         11    1    4    4    0    0 -0.10571903176E+02 -0.34678438457E+01 -0.22812315625E+02  0.25380953919E+02  0.00000000000E+00 0. -1.
        -12    1    4    4    0    0  0.93609556120E+02  0.99163641304E+02 -0.29516402168E+03  0.32514300922E+03  0.00000000000E+00 0.  1.
</event>
<event>
12    1  0.8356052E-002  0.1878877E+03  0.7818608E-02  0.1160513E+00
         21   -1    0    0  501  502  0.00000000000E+00  0.00000000000E+00  0.15169426216E+03  0.15169426216E+03  0.00000000000E+00 0.  1.
         21   -1    0    0  502  503 -0.00000000000E+00 -0.00000000000E+00 -0.50878498681E+03  0.50878498681E+03  0.00000000000E+00 0.  1.
         -6    2    1    2    0  503  0.70226773104E+02  0.25143770858E+02 -0.42224691057E+03  0.46216255362E+03  0.17244640792E+03 0.  0.
        -24    2    3    3    0    0 -0.89878421548E+01  0.39794115303E+02 -0.12211262131E+03  0.15136958481E+03  0.79604685825E+02 0.  0.
          6    2    1    2  501    0 -0.70226773104E+02 -0.25143770858E+02  0.65156185923E+02  0.19831669536E+03  0.17181435977E+03 0.  0.
         24    2    5    5    0    0 -0.30318845926E+02  0.21024946555E+02  0.95545617092E+02  0.12998075573E+03  0.80029688976E+02 0.  0.
          5    1    5    5  501    0 -0.39907927178E+02 -0.46168717413E+02 -0.30389431169E+02  0.68335939637E+02  0.47000000000E+01 0. -1.
        -13    1    6    6    0    0  0.13686275498E+02 -0.81032409355E+01  0.69187532924E+02  0.70992192266E+02  0.00000000000E+00 0.  1.
         14    1    6    6    0    0 -0.44005121424E+02  0.29128187491E+02  0.26358084168E+02  0.58988563460E+02  0.00000000000E+00 0. -1.
         -5    1    3    3    0  503  0.79214615259E+02 -0.14650344445E+02 -0.30013428927E+03  0.31079296880E+03  0.47000000000E+01 0.  1.
         11    1    4    4    0    0 -0.17237889295E+01  0.10685075757E+02  0.10694658014E+02  0.15215715634E+02  0.00000000000E+00 0. -1.
        -12    1    4    4    0    0 -0.72640532253E+01  0.29109039546E+02 -0.13280727932E+03  0.13615386918E+03  0.00000000000E+00 0.  1.
</event>
<event>
12    1  0.8356052E-002  0.1787982E+03  0.7818608E-02  0.1169069E+00
         21   -1    0    0  503  502  0.00000000000E+00  0.00000000000E+00  0.41342337963E+03  0.41342337963E+03  0.00000000000E+00 0. -1.
         21   -1    0    0  501  503 -0.00000000000E+00 -0.00000000000E+00 -0.10385358945E+03  0.10385358945E+03  0.00000000000E+00 0. -1.
          6    2    1    2  501    0  0.86378165992E+01  0.49308085452E+02  0.23515032991E+02  0.17994015862E+03  0.17122968417E+03 0.  0.
         24    2    3    3    0    0  0.29866106163E+02 -0.15189296142E+02 -0.33181791303E+02  0.91355891416E+02  0.78244288019E+02 0.  0.
         -6    2    1    2    0  502 -0.86378165992E+01 -0.49308085452E+02  0.28605475720E+03  0.33733681046E+03  0.17164760532E+03 0.  0.
        -24    2    5    5    0    0 -0.36034078544E+01 -0.82030348276E+02  0.28110175228E+03  0.30353275725E+03  0.79824664135E+02 0.  0.
          5    1    3    3  501    0 -0.21228289564E+02  0.64497381593E+02  0.56696824295E+02  0.88584267200E+02  0.47000000000E+01 0. -1.
        -11    1    4    4    0    0  0.23770092518E+02 -0.46245915886E+02 -0.12279955591E+02  0.53427514857E+02  0.00000000000E+00 0.  1.
         12    1    4    4    0    0  0.60960136452E+01  0.31056619744E+02 -0.20901835712E+02  0.37928376559E+02  0.00000000000E+00 0. -1.
         -5    1    5    5    0  502 -0.50344087449E+01  0.32722262825E+02  0.49530049165E+01  0.33804053211E+02  0.47000000000E+01 0.  1.
         11    1    6    6    0    0 -0.41591252962E+02 -0.46569694485E+02  0.16004134693E+03  0.17178999242E+03  0.00000000000E+00 0. -1.
        -12    1    6    6    0    0  0.37987845108E+02 -0.35460653791E+02  0.12106040535E+03  0.13174276483E+03  0.00000000000E+00 0.  1.
</event>
<event>
12    1  0.8356052E-002  0.2374260E+03  0.7818608E-02  0.1121702E+00
         21   -1    0    0  503  502  0.00000000000E+00  0.00000000000E+00  0.29736098426E+03  0.29736098426E+03  0.00000000000E+00 0. -1.
         21   -1    0    0  501  503 -0.00000000000E+00 -0.00000000000E+00 -0.83320228953E+03  0.83320228953E+03  0.00000000000E+00 0.  1.
          6    2    1    2  501    0  0.35418386477E+02  0.16010735249E+03 -0.76522097943E+03  0.80120798786E+03  0.17170400704E+03 0.  0.
         24    2    3    3    0    0  0.63340746851E+02  0.10497396550E+03 -0.68297953986E+03  0.69822695586E+03  0.77641782448E+02 0.  0.
         -6    2    1    2    0  502 -0.35418386477E+02 -0.16010735249E+03  0.22937967416E+03  0.32935528594E+03  0.17020882185E+03 0.  0.
        -24    2    5    5    0    0  0.44656132403E+02 -0.74710260191E+02  0.99200367482E+02  0.15421724371E+03  0.79790050823E+02 0.  0.
          5    1    3    3  501    0 -0.27922360374E+02  0.55133386987E+02 -0.82241439572E+02  0.10298103200E+03  0.47000000000E+01 0. -1.
        -11    1    4    4    0    0  0.72757788283E+02  0.61061658068E+02 -0.54220717754E+03  0.55046420884E+03  0.00000000000E+00 0.  1.
         12    1    4    4    0    0 -0.94170414320E+01  0.43912307437E+02 -0.14077236232E+03  0.14776274702E+03  0.00000000000E+00 0. -1.
         -5    1    5    5    0  502 -0.80074518880E+02 -0.85397092301E+02  0.13017930668E+03  0.17513804222E+03  0.47000000000E+01 0.  1.
         11    1    6    6    0    0  0.40101286804E+02 -0.54360763908E+02  0.11123546825E+03  0.13014044434E+03  0.00000000000E+00 0. -1.
        -12    1    6    6    0    0  0.45548455993E+01 -0.20349496283E+02 -0.12035100770E+02  0.24076799371E+02  0.00000000000E+00 0.  1.
</event>
<event>
12    1  0.8356052E-002  0.3333475E+03  0.7818608E-02  0.1069726E+00
         21   -1    0    0  503  502  0.00000000000E+00  0.00000000000E+00  0.34794515941E+03  0.34794515941E+03  0.00000000000E+00 0.  1.
         21   -1    0    0  501  503 -0.00000000000E+00 -0.00000000000E+00 -0.34365762149E+03  0.34365762149E+03  0.00000000000E+00 0. -1.
          6    2    1    2  501    0 -0.12499263959E+03  0.25607822617E+03 -0.90800270092E+02  0.34549271258E+03  0.17297776599E+03 0.  0.
         24    2    3    3    0    0 -0.11460329046E+03  0.87839110878E+02 -0.39063456700E+02  0.16910924865E+03  0.78881941816E+02 0.  0.
         -6    2    1    2    0  502  0.12499263959E+03 -0.25607822617E+03  0.95087808015E+02  0.34611006832E+03  0.17190482917E+03 0.  0.
        -24    2    5    5    0    0  0.47586684561E+02 -0.22823372789E+03  0.79439810723E+02  0.26224143427E+03  0.90026436264E+02 0.  0.
          5    1    3    3  501    0 -0.10389349132E+02  0.16823911529E+03 -0.51736813392E+02  0.17638346393E+03  0.47000000000E+01 0. -1.
        -13    1    4    4    0    0 -0.10779635238E+03  0.53988935628E+02 -0.53229231825E+02  0.13178850435E+03  0.00000000000E+00 0.  1.
         14    1    4    4    0    0 -0.68069380813E+01  0.33850175251E+02  0.14165775125E+02  0.37320744304E+02  0.00000000000E+00 0. -1.
         -5    1    5    5    0  502  0.77405955033E+02 -0.27844498277E+02  0.15647997293E+02  0.83868634054E+02  0.47000000000E+01 0.  1.
         13    1    6    6    0    0 -0.22700037103E+02 -0.25156809217E+02  0.24613590768E+01  0.33973740197E+02  0.00000000000E+00 0. -1.
        -14    1    6    6    0    0  0.70286721664E+02 -0.20307691867E+03  0.76978451646E+02  0.22826769407E+03  0.00000000000E+00 0.  1.
</event>
<event>
12    1  0.8356052E-002  0.1956255E+03  0.7818608E-02  0.1153709E+00
         21   -1    0    0  503  502  0.00000000000E+00  0.00000000000E+00  0.33861226251E+03  0.33861226251E+03  0.00000000000E+00 0.  1.
         21   -1    0    0  501  503 -0.00000000000E+00 -0.00000000000E+00 -0.15875617146E+03  0.15875617146E+03  0.00000000000E+00 0. -1.
          6    2    1    2  501    0  0.87195859875E+02  0.23957757809E+02 -0.44255997090E+02  0.20056902204E+03  0.17347117105E+03 0.  0.
         24    2    3    3    0    0  0.12199422294E+03  0.38557908332E+02 -0.15416593789E+02  0.15284175887E+03  0.82180467039E+02 0.  0.
         -6    2    1    2    0  502 -0.87195859875E+02 -0.23957757809E+02  0.22411208814E+03  0.29679941193E+03  0.17229791272E+03 0.  0.
        -24    2    5    5    0    0 -0.11648038549E+03 -0.55509050067E+02  0.20333539277E+03  0.24876995686E+03  0.62388096930E+02 0.  0.
          5    1    3    3  501    0 -0.34798363069E+02 -0.14600150524E+02 -0.28839403301E+02  0.47727263177E+02  0.47000000000E+01 0. -1.
        -11    1    4    4    0    0  0.53872259846E+02  0.70798118477E+01  0.32965839673E+02  0.63553840970E+02  0.00000000000E+00 0.  1.
         12    1    4    4    0    0  0.68121963098E+02  0.31478096485E+02 -0.48382433462E+02  0.89287917897E+02  0.00000000000E+00 0. -1.
         -5    1    5    5    0  502  0.29284525616E+02  0.31551292258E+02  0.20776695376E+02  0.48029455071E+02  0.47000000000E+01 0.  1.
         13    1    6    6    0    0 -0.77423048323E+02 -0.10842818738E+02  0.79743583541E+02  0.11167333722E+03  0.00000000000E+00 0. -1.
        -14    1    6    6    0    0 -0.39057337168E+02 -0.44666231329E+02  0.12359180923E+03  0.13709661964E+03  0.00000000000E+00 0.  1.
</event>
<event>
12    1  0.8356052E-002  0.2326245E+03  0.7818608E-02  0.1125028E+00
         21   -1    0    0  501  502  0.00000000000E+00  0.00000000000E+00  0.51943764448E+03  0.51943764448E+03  0.00000000000E+00 0. -1.
         21   -1    0    0  502  503 -0.00000000000E+00 -0.00000000000E+00 -0.11609098913E+03  0.11609098913E+03  0.00000000000E+00 0. -1.
         -6    2    1    2    0  503  0.44333344855E+00 -0.15394001921E+03  0.96974767929E+02  0.25084967642E+03  0.17269547905E+03 0.  0.
        -24    2    3    3    0    0 -0.81586705872E+00 -0.11983589215E+03 -0.42402125362E+01  0.14393270237E+03  0.79607391136E+02 0.  0.
          6    2    1    2  501    0 -0.44333344855E+00  0.15394001921E+03  0.30637188742E+03  0.38467895719E+03  0.17440309817E+03 0.  0.
         24    2    5    5    0    0 -0.26182553828E+02  0.17272192250E+03  0.21043709220E+03  0.28348191035E+03  0.74564301678E+02 0.  0.
          5    1    5    5  501    0  0.25739220379E+02 -0.18781903288E+02  0.95934795220E+02  0.10119704685E+03  0.47000000000E+01 0. -1.
        -13    1    6    6    0    0 -0.16039256755E+02  0.19012507259E+02  0.29291797820E+01  0.25046222943E+02  0.00000000000E+00 0.  1.
         14    1    6    6    0    0 -0.10143297073E+02  0.15370941524E+03  0.20750791241E+03  0.25843568740E+03  0.00000000000E+00 0. -1.
         -5    1    3    3    0  503  0.12592005073E+01 -0.34104127066E+02  0.10121498047E+03  0.10691697405E+03  0.47000000000E+01 0.  1.
         11    1    4    4    0    0 -0.31340437043E+02 -0.31517628888E+02 -0.20730725816E+02  0.49044336244E+02  0.00000000000E+00 0. -1.
        -12    1    4    4    0    0  0.30524569984E+02 -0.88318263257E+02  0.16490513280E+02  0.94888366124E+02  0.00000000000E+00 0.  1.
</event>
<event>
12    1  0.8356052E-002  0.1754011E+03  0.7818608E-02  0.1172614E+00
         21   -1    0    0  501  502  0.00000000000E+00  0.00000000000E+00  0.26324196987E+03  0.26324196987E+03  0.00000000000E+00 0.  1.
         21   -1    0    0  502  503 -0.00000000000E+00 -0.00000000000E+00 -0.48381858335E+03  0.48381858335E+03  0.00000000000E+00 0.  1.
         -6    2    1    2    0  503 -0.24604060218E+02  0.59659528024E+01 -0.43583756595E+03  0.46938662496E+03  0.17241945200E+03 0.  0.
        -24    2    3    3    0    0 -0.52374863699E+01 -0.22926627150E+02 -0.42416799874E+03  0.43239859774E+03  0.80603937089E+02 0.  0.
          6    2    1    2  501    0  0.24604060218E+02 -0.59659528024E+01  0.21526095247E+03  0.27767392825E+03  0.17356434081E+03 0.  0.
         24    2    5    5    0    0  0.79746323003E+01 -0.23836281926E+02  0.27066207111E+02  0.87844429182E+02  0.79701324171E+02 0.  0.
          5    1    5    5  501    0  0.16629427918E+02  0.17870329123E+02  0.18819474536E+03  0.18982949907E+03  0.47000000000E+01 0. -1.
        -13    1    6    6    0    0 -0.13004872489E+01 -0.30808258695E+02  0.51936422894E+02  0.60400596801E+02  0.00000000000E+00 0.  1.
         14    1    6    6    0    0  0.92751195492E+01  0.69719767690E+01 -0.24870215782E+02  0.27443832381E+02  0.00000000000E+00 0. -1.
         -5    1    3    3    0  503 -0.19366573849E+02  0.28892579952E+02 -0.11669567208E+02  0.36988027221E+02  0.47000000000E+01 0.  1.
         13    1    4    4    0    0  0.36767552539E+02 -0.16949679783E+02 -0.17316353836E+03  0.17783350523E+03  0.00000000000E+00 0. -1.
        -14    1    4    4    0    0 -0.42005038909E+02 -0.59769473663E+01 -0.25100446038E+03  0.25456509251E+03  0.00000000000E+00 0.  1.
</event>
<event>
12    1  0.8356052E-002  0.3753711E+03  0.7818608E-02  0.1052990E+00
         21   -1    0    0  501  502  0.00000000000E+00  0.00000000000E+00  0.12469864103E+03  0.12469864103E+03  0.00000000000E+00 0.  1.
         21   -1    0    0  502  503 -0.00000000000E+00 -0.00000000000E+00 -0.17089116880E+04  0.17089116880E+04  0.00000000000E+00 0.  1.
         -6    2    1    2    0  503  0.87830054135E+01  0.32982546669E+03 -0.13281425998E+04  0.13792145202E+04  0.17148745595E+03 0.  0.
        -24    2    3    3    0    0  0.11417613681E+02  0.23550309609E+03 -0.67631783224E+03  0.72057860529E+03  0.78966106751E+02 0.  0.
          6    2    1    2  501    0 -0.87830054135E+01 -0.32982546669E+03 -0.25607044713E+03  0.45439580883E+03  0.17900138973E+03 0.  0.
         24    2    5    5    0    0  0.23741747864E+02 -0.28396326135E+03 -0.14436412221E+03  0.32924951651E+03  0.79783707296E+02 0.  0.
          5    1    5    5  501    0 -0.32524753277E+02 -0.45862205337E+02 -0.11170632492E+03  0.12514629232E+03  0.47000000000E+01 0. -1.
        -11    1    6    6    0    0 -0.28627420371E+02 -0.11072436124E+03 -0.46047861100E+02  0.12328754552E+03  0.00000000000E+00 0.  1.
         12    1    6    6    0    0  0.52369168234E+02 -0.17323890012E+03 -0.98316261114E+02  0.20596197099E+03  0.00000000000E+00 0. -1.
         -5    1    3    3    0  503 -0.26346082676E+01  0.94322370596E+02 -0.65182476757E+03  0.65863591488E+03  0.47000000000E+01 0.  1.
         11    1    4    4    0    0 -0.19170597765E+02  0.19870595890E+03 -0.51591470569E+03  0.55319034108E+03  0.00000000000E+00 0. -1.
        -12    1    4    4    0    0  0.30588211446E+02  0.36797137196E+02 -0.16040312655E+03  0.16738826420E+03  0.00000000000E+00 0.  1.
</event>
<event>
12    1  0.8356052E-002  0.2786565E+03  0.7818608E-02  0.1096455E+00
         21   -1    0    0  501  502  0.00000000000E+00  0.00000000000E+00  0.38687939701E+03  0.38687939701E+03  0.00000000000E+00 0.  1.
         21   -1    0    0  502  503 -0.00000000000E+00 -0.00000000000E+00 -0.22805600701E+03  0.22805600701E+03  0.00000000000E+00 0. -1.
         -6    2    1    2    0  503 -0.93063668685E+02 -0.19878757149E+03  0.18616872956E+03  0.33494041756E+03  0.17131533043E+03 0.  0.
        -24    2    3    3    0    0 -0.44161257675E+02 -0.20768438473E+03  0.16532559316E+03  0.28083750245E+03  0.80337604471E+02 0.  0.
          6    2    1    2  501    0  0.93063668685E+02  0.19878757149E+03 -0.27345339561E+02  0.27999498646E+03  0.17167434240E+03 0.  0.
         24    2    5    5    0    0  0.34008738220E+02  0.18735791848E+03  0.14027208996E+02  0.20683830834E+03  0.79534516465E+02 0.  0.
          5    1    5    5  501    0  0.59054930465E+02  0.11429653005E+02 -0.41372548557E+02  0.73156678124E+02  0.47000000000E+01 0. -1.
        -13    1    6    6    0    0 -0.12645729712E+02  0.77130460039E+01  0.15209270152E+02  0.21230342842E+02  0.00000000000E+00 0.  1.
         14    1    6    6    0    0  0.46654467932E+02  0.17964487248E+03 -0.11820611565E+01  0.18560796550E+03  0.00000000000E+00 0. -1.
         -5    1    3    3    0  503 -0.48902411010E+02  0.88968132355E+01  0.20843136407E+02  0.54102915112E+02  0.47000000000E+01 0.  1.
         13    1    4    4    0    0 -0.70699202466E+01 -0.27261439202E+02 -0.65403094412E+01  0.28912721893E+02  0.00000000000E+00 0. -1.
        -14    1    4    4    0    0 -0.37091337429E+02 -0.18042294552E+03  0.17186590260E+03  0.25192478056E+03  0.00000000000E+00 0.  1.
</event>
<event>
12    1  0.8356052E-002  0.2120470E+03  0.7818608E-02  0.1140020E+00
         21   -1    0    0  501  502  0.00000000000E+00  0.00000000000E+00  0.41892240430E+03  0.41892240430E+03  0.00000000000E+00 0.  1.
         21   -1    0    0  502  503 -0.00000000000E+00 -0.00000000000E+00 -0.10878798813E+03  0.10878798813E+03  0.00000000000E+00 0. -1.
         -6    2    1    2    0  503  0.12037180110E+03 -0.32657230965E+02  0.12272769512E+03  0.24471705839E+03  0.17108035037E+03 0.  0.
        -24    2    3    3    0    0  0.13174259024E+03  0.15898341670E+02  0.63047825893E+02  0.16680226345E+03  0.78987969918E+02 0.  0.
          6    2    1    2  501    0 -0.12037180110E+03  0.32657230965E+02  0.18740672105E+03  0.28299333404E+03  0.17148785026E+03 0.  0.
         24    2    5    5    0    0 -0.25472198729E+02  0.30492814392E+02  0.16129994132E+03  0.18443232159E+03  0.80118446931E+02 0.  0.
          5    1    5    5  501    0 -0.94899602371E+02  0.21644165733E+01  0.26106779727E+02  0.98561012459E+02  0.47000000000E+01 0. -1.
        -13    1    6    6    0    0 -0.53402456058E+02  0.14670324922E+02  0.11966931649E+03  0.13186275462E+03  0.00000000000E+00 0.  1.
         14    1    6    6    0    0  0.27930257330E+02  0.15822489470E+02  0.41630624830E+02  0.52569566969E+02  0.00000000000E+00 0. -1.
         -5    1    3    3    0  503 -0.11370789140E+02 -0.48555572635E+02  0.59679869228E+02  0.77914794941E+02  0.47000000000E+01 0.  1.
         11    1    4    4    0    0  0.55272839174E+02 -0.38534044886E+00  0.68979291481E+02  0.88393313609E+02  0.00000000000E+00 0. -1.
        -12    1    4    4    0    0  0.76469751065E+02  0.16283682118E+02 -0.59314655871E+01  0.78408949842E+02  0.00000000000E+00 0.  1.
</event>
<event>
12    1  0.8356052E-002  0.2333131E+03  0.7818608E-02  0.1125617E+00
         21   -1    0    0  503  502  0.00000000000E+00  0.00000000000E+00  0.13521377157E+03  0.13521377157E+03  0.00000000000E+00 0. -1.
         21   -1    0    0  501  503 -0.00000000000E+00 -0.00000000000E+00 -0.15446325995E+04  0.15446325995E+04  0.00000000000E+00 0. -1.
          6    2    1    2  501    0  0.25217236788E+01 -0.14741266676E+03 -0.14280219201E+04  0.14457928214E+04  0.17127003439E+03 0.  0.
         24    2    3    3    0    0  0.52762299153E+02 -0.82728850793E+02 -0.11277963307E+04  0.11345604226E+04  0.75331707924E+02 0.  0.
         -6    2    1    2    0  502 -0.25217236788E+01  0.14741266676E+03  0.18603092184E+02  0.23405354967E+03  0.18082625822E+03 0.  0.
        -24    2    5    5    0    0 -0.70590028712E+02  0.11814977698E+03  0.28874513395E+02  0.15910554795E+03  0.74421206048E+02 0.  0.
          5    1    3    3  501    0 -0.50240575474E+02 -0.64683815968E+02 -0.30022558944E+03  0.31123239874E+03  0.47000000000E+01 0. -1.
        -13    1    4    4    0    0  0.68380241014E+02 -0.42986651901E+02 -0.70391204945E+03  0.70853079182E+03  0.00000000000E+00 0.  1.
         14    1    4    4    0    0 -0.15617941861E+02 -0.39742198892E+02 -0.42388428121E+03  0.42602963082E+03  0.00000000000E+00 0. -1.
         -5    1    5    5    0  502  0.68068305033E+02  0.29262889780E+02 -0.10271421211E+02  0.74948001722E+02  0.47000000000E+01 0.  1.
         13    1    6    6    0    0 -0.13769080513E+02  0.62984627939E+02 -0.18180112666E+02  0.66986322719E+02  0.00000000000E+00 0. -1.
        -14    1    6    6    0    0 -0.56820948199E+02  0.55165149041E+02  0.47054626061E+02  0.92119225228E+02  0.00000000000E+00 0.  1.
</event>
<event>
12    1  0.8356052E-002  0.1876868E+03  0.7818608E-02  0.1160578E+00
         21   -1    0    0  501  502  0.00000000000E+00  0.00000000000E+00  0.16350211361E+03  0.16350211361E+03  0.00000000000E+00 0. -1.
         21   -1    0    0  502  503 -0.00000000000E+00 -0.00000000000E+00 -0.26625902587E+03  0.26625902587E+03  0.00000000000E+00 0. -1.
         -6    2    1    2    0  503 -0.74545914821E+02  0.38928238995E+01 -0.14530155409E+03  0.23731274392E+03  0.17214107387E+03 0.  0.
        -24    2    3    3    0    0 -0.84608531796E+02 -0.35050939671E+02 -0.15310033132E+03  0.19607218248E+03  0.81347509289E+02 0.  0.
          6    2    1    2  501    0  0.74545914821E+02 -0.38928238995E+01  0.42544641819E+02  0.19244839557E+03  0.17220363212E+03 0.  0.
         24    2    5    5    0    0  0.79325589230E+02  0.50183843878E+02  0.60983150472E+02  0.13492275010E+03  0.75327528559E+02 0.  0.
          5    1    5    5  501    0 -0.47796744086E+01 -0.54076667778E+02 -0.18438508653E+02  0.57525645470E+02  0.47000000000E+01 0. -1.
        -11    1    6    6    0    0  0.13251963948E+01  0.41714643650E+02  0.24511470808E+02  0.48401238016E+02  0.00000000000E+00 0.  1.
         12    1    6    6    0    0  0.78000392835E+02  0.84692002280E+01  0.36471679664E+02  0.86521512079E+02  0.00000000000E+00 0. -1.
         -5    1    3    3    0  503  0.10062616975E+02  0.38943763571E+02  0.77987772332E+01  0.41240561439E+02  0.47000000000E+01 0.  1.
         11    1    4    4    0    0 -0.52374057574E+02 -0.13722639414E+01 -0.21809291909E+02  0.56750068094E+02  0.00000000000E+00 0. -1.
        -12    1    4    4    0    0 -0.32234474222E+02 -0.33678675730E+02 -0.13129103941E+03  0.13932211438E+03  0.00000000000E+00 0.  1.
</event>
<event>
12    1  0.8356052E-002  0.2008071E+03  0.7818608E-02  0.1149804E+00
         21   -1    0    0  503  502  0.00000000000E+00  0.00000000000E+00  0.20997999733E+04  0.20997999733E+04  0.00000000000E+00 0. -1.
         21   -1    0    0  501  503 -0.00000000000E+00 -0.00000000000E+00 -0.20421533826E+02  0.20421533826E+02  0.00000000000E+00 0. -1.
          6    2    1    2  501    0 -0.54778334872E+01 -0.10385581385E+03  0.13404802380E+04  0.13554374826E+04  0.17177736757E+03 0.  0.
         24    2    3    3    0    0  0.47940502239E+02 -0.11059637507E+03  0.10527664800E+04  0.10626914317E+04  0.80411241171E+02 0.  0.
         -6    2    1    2    0  502  0.54778334872E+01  0.10385581385E+03  0.73889820147E+03  0.76478402454E+03  0.16765445212E+03 0.  0.
        -24    2    5    5    0    0  0.18584778644E+02  0.13731209786E+03  0.62582754414E+03  0.64604827381E+03  0.80735685232E+02 0.  0.
          5    1    3    3  501    0 -0.53418335727E+02  0.67405612192E+01  0.28771375804E+03  0.29274605091E+03  0.47000000000E+01 0. -1.
        -13    1    4    4    0    0  0.12151373077E+00  0.11016832170E+02  0.16398145198E+03  0.16435115440E+03  0.00000000000E+00 0.  1.
         14    1    4    4    0    0  0.47818988509E+02 -0.12161320724E+03  0.88878502800E+03  0.89834027731E+03  0.00000000000E+00 0. -1.
         -5    1    5    5    0  502 -0.13106945156E+02 -0.33456284012E+02  0.11307065733E+03  0.11873575073E+03  0.47000000000E+01 0.  1.
         13    1    6    6    0    0 -0.15993920485E+02  0.11351363487E+03  0.38939233642E+03  0.40591568393E+03  0.00000000000E+00 0. -1.
        -14    1    6    6    0    0  0.34578699128E+02  0.23798462990E+02  0.23643520772E+03  0.24013258988E+03  0.00000000000E+00 0.  1.
</event>
<event>
12    1  0.8356052E-002  0.2421600E+03  0.7818608E-02  0.1118408E+00
         21   -1    0    0  501  502  0.00000000000E+00  0.00000000000E+00  0.86335356439E+02  0.86335356439E+02  0.00000000000E+00 0. -1.
         21   -1    0    0  502  503 -0.00000000000E+00 -0.00000000000E+00 -0.96945024911E+03  0.96945024911E+03  0.00000000000E+00 0. -1.
         -6    2    1    2    0  503  0.99243945422E+02 -0.13830536974E+03 -0.15215495600E+03  0.28575711685E+03  0.17183789801E+03 0.  0.
        -24    2    3    3    0    0  0.96976901273E+01 -0.41965266819E+02 -0.11914582976E+03  0.15006761953E+03  0.80432784786E+02 0.  0.
          6    2    1    2  501    0 -0.99243945422E+02  0.13830536974E+03 -0.73095993667E+03  0.77002848870E+03  0.17223155456E+03 0.  0.
         24    2    5    5    0    0  0.17540381127E+02  0.61700872375E+02 -0.34980278597E+03  0.36406088966E+03  0.77869632598E+02 0.  0.
          5    1    5    5  501    0 -0.11678432655E+03  0.76604497370E+02 -0.38115715070E+03  0.40596759904E+03  0.47000000000E+01 0. -1.
        -11    1    6    6    0    0  0.44434611695E+02  0.46161227162E+02 -0.17160551232E+03  0.18317681477E+03  0.00000000000E+00 0.  1.
         12    1    6    6    0    0 -0.26894230568E+02  0.15539645213E+02 -0.17819727365E+03  0.18088407489E+03  0.00000000000E+00 0. -1.
         -5    1    3    3    0  503  0.89546255295E+02 -0.96340102926E+02 -0.33009126243E+02  0.13568949733E+03  0.47000000000E+01 0.  1.
         13    1    4    4    0    0  0.28302437783E+02  0.13339717535E+02 -0.55573871239E+02  0.63776415805E+02  0.00000000000E+00 0. -1.
        -14    1    4    4    0    0 -0.18604747656E+02 -0.55304984354E+02 -0.63571958519E+02  0.86291203721E+02  0.00000000000E+00 0.  1.
</event>
<event>
12    1  0.8356052E-002  0.2080929E+03  0.7818608E-02  0.1143608E+00
         21   -1    0    0  501  502  0.00000000000E+00  0.00000000000E+00  0.51628813670E+02  0.51628813670E+02  0.00000000000E+00 0.  1.
         21   -1    0    0  502  503 -0.00000000000E+00 -0.00000000000E+00 -0.82891883446E+03  0.82891883446E+03  0.00000000000E+00 0.  1.
         -6    2    1    2    0  503 -0.11126296411E+03 -0.14940812423E+02 -0.40289624650E+03  0.45346229109E+03  0.17521412312E+03 0.  0.
        -24    2    3    3    0    0 -0.57198334189E+02 -0.70974515386E+02 -0.16538809751E+03  0.20347234947E+03  0.75754491167E+02 0.  0.
          6    2    1    2  501    0  0.11126296411E+03  0.14940812423E+02 -0.37439377430E+03  0.42708535704E+03  0.17212939583E+03 0.  0.
         24    2    5    5    0    0  0.14542326275E+03  0.23035141243E+02 -0.27878775375E+03  0.32512926195E+03  0.79422177356E+02 0.  0.
          5    1    5    5  501    0 -0.34160298633E+02 -0.80943288200E+01 -0.95606020551E+02  0.10195609510E+03  0.47000000000E+01 0. -1.
        -11    1    6    6    0    0  0.82479085241E+02 -0.25549788452E+02 -0.16624295884E+03  0.18732942256E+03  0.00000000000E+00 0.  1.
         12    1    6    6    0    0  0.62944177505E+02  0.48584929695E+02 -0.11254479491E+03  0.13779983939E+03  0.00000000000E+00 0. -1.
         -5    1    3    3    0  503 -0.54064629925E+02  0.56033702963E+02 -0.23750814898E+03  0.24998994162E+03  0.47000000000E+01 0.  1.
         11    1    4    4    0    0 -0.48232935189E+01 -0.16781107649E+02  0.41416312830E+01  0.17944994957E+02  0.00000000000E+00 0. -1.
        -12    1    4    4    0    0 -0.52375040670E+02 -0.54193407737E+02 -0.16952972880E+03  0.18552735451E+03  0.00000000000E+00 0.  1.
</event>
<event>
12    1  0.8356052E-002  0.3050827E+03  0.7818608E-02  0.1082805E+00
         21   -1    0    0  501  502  0.00000000000E+00  0.00000000000E+00  0.88559046799E+03  0.88559046799E+03  0.00000000000E+00 0.  1.
         21   -1    0    0  502  503 -0.00000000000E+00 -0.00000000000E+00 -0.13215283619E+03  0.13215283619E+03  0.00000000000E+00 0. -1.
         -6    2    1    2    0  503  0.24966370686E+03 -0.34149009826E+02  0.14524191836E+03  0.33731883510E+03  0.17085274441E+03 0.  0.
        -24    2    3    3    0    0  0.19738330082E+03 -0.50627432935E+02  0.17050275823E+03  0.27677976248E+03  0.77540582570E+02 0.  0.
          6    2    1    2  501    0 -0.24966370686E+03  0.34149009826E+02  0.60819571344E+03  0.68042446908E+03  0.17198055381E+03 0.  0.
         24    2    5    5    0    0 -0.24360817113E+03  0.72592517020E+02  0.52240849144E+03  0.58610527583E+03  0.77421882283E+02 0.  0.
          5    1    5    5  501    0 -0.60555357322E+01 -0.38443507194E+02  0.85787221998E+02  0.94319193256E+02  0.47000000000E+01 0. -1.
        -13    1    6    6    0    0 -0.23873730211E+02 -0.60533902294E+01  0.10531047957E+03  0.10815218738E+03  0.00000000000E+00 0.  1.
         14    1    6    6    0    0 -0.21973444092E+03  0.78645907249E+02  0.41709801187E+03  0.47795308845E+03  0.00000000000E+00 0. -1.
         -5    1    3    3    0  503  0.52280406038E+02  0.16478423109E+02 -0.25260839867E+02  0.60539072627E+02  0.47000000000E+01 0.  1.
         11    1    4    4    0    0  0.40183828169E+02 -0.42916541867E+02  0.30997199838E+02  0.66463493814E+02  0.00000000000E+00 0. -1.
        -12    1    4    4    0    0  0.15719947265E+03 -0.77108910683E+01  0.13950555839E+03  0.21031626866E+03  0.00000000000E+00 0.  1.
</event>
<event>
12    1  0.8356052E-002  0.2261381E+03  0.7818608E-02  0.1131631E+00
         21   -1    0    0  503  502  0.00000000000E+00  0.00000000000E+00  0.54493906721E+03  0.54493906721E+03  0.00000000000E+00 0.  1.
         21   -1    0    0  501  503 -0.00000000000E+00 -0.00000000000E+00 -0.39388682385E+03  0.39388682385E+03  0.00000000000E+00 0.  1.
          6    2    1    2  501    0  0.95581910809E+02 -0.84444811061E+02 -0.33797427504E+03  0.40004449732E+03  0.17187833329E+03 0.  0.
         24    2    3    3    0    0  0.93478309154E+02 -0.12004055158E+03 -0.30201748749E+03  0.34918722198E+03  0.87001292742E+02 0.  0.
         -6    2    1    2    0  502 -0.95581910809E+02  0.84444811061E+02  0.48902651840E+03  0.53878139375E+03  0.18673946226E+03 0.  0.
        -24    2    5    5    0    0 -0.11703874502E+03  0.11112229988E+03  0.45736518178E+03  0.49191334087E+03  0.82155900917E+02 0.  0.
          5    1    3    3  501    0  0.21036016548E+01  0.35595740523E+02 -0.35956787549E+02  0.50857275332E+02  0.47000000000E+01 0. -1.
        -13    1    4    4    0    0  0.98549653161E+02 -0.71009972197E+02 -0.24743197723E+03  0.27563931803E+03  0.00000000000E+00 0.  1.
         14    1    4    4    0    0 -0.50713440071E+01 -0.49030579387E+02 -0.54585510264E+02  0.73547903952E+02  0.00000000000E+00 0. -1.
         -5    1    5    5    0  502  0.21456834213E+02 -0.26677488820E+02  0.31661336616E+02  0.46868052877E+02  0.47000000000E+01 0.  1.
         13    1    6    6    0    0 -0.31190204658E+02  0.27424157766E+02  0.39977929442E+02  0.57646753059E+02  0.00000000000E+00 0. -1.
        -14    1    6    6    0    0 -0.85848540364E+02  0.83698142114E+02  0.41738725234E+03  0.43426658781E+03  0.00000000000E+00 0.  1.
</event>
<event>
12    1  0.8356052E-002  0.1771675E+03  0.7818608E-02  0.1170634E+00
         21   -1    0    0  501  502  0.00000000000E+00  0.00000000000E+00  0.13523996752E+04  0.13523996752E+04  0.00000000000E+00 0. -1.
         21   -1    0    0  502  503 -0.00000000000E+00 -0.00000000000E+00 -0.25314320178E+02  0.25314320178E+02  0.00000000000E+00 0. -1.
         -6    2    1    2    0  503 -0.41653751495E+02 -0.13577482737E+02  0.46380280057E+03  0.49648903207E+03  0.17166519185E+03 0.  0.
        -24    2    3    3    0    0 -0.59489883063E+02  0.49422380836E+02  0.23877837122E+03  0.26208511955E+03  0.75444558529E+02 0.  0.
          6    2    1    2  501    0  0.41653751495E+02  0.13577482737E+02  0.86328255445E+03  0.88122496330E+03  0.17140969661E+03 0.  0.
         24    2    5    5    0    0 -0.44658020325E+01  0.32000597562E+01  0.19219982953E+03  0.20846288217E+03  0.80534557820E+02 0.  0.
          5    1    5    5  501    0  0.46119553528E+02  0.10377422981E+02  0.67108272492E+03  0.67276208113E+03  0.47000000000E+01 0. -1.
        -11    1    6    6    0    0 -0.13499507623E+02  0.27692508415E+01  0.19750005091E+03  0.19798024034E+03  0.00000000000E+00 0.  1.
         12    1    6    6    0    0  0.90337055903E+01  0.43080891474E+00 -0.53002213840E+01  0.10482641830E+02  0.00000000000E+00 0. -1.
         -5    1    3    3    0  503  0.17836131567E+02 -0.62999863573E+02  0.22502442935E+03  0.23440391252E+03  0.47000000000E+01 0.  1.
         11    1    4    4    0    0 -0.60124957211E+02  0.81713827897E+01  0.18237328702E+03  0.19220249164E+03  0.00000000000E+00 0. -1.
        -12    1    4    4    0    0  0.63507414826E+00  0.41250998046E+02  0.56405084202E+02  0.69882627904E+02  0.00000000000E+00 0.  1.
</event>
<event>
12    1  0.8356052E-002  0.1832023E+03  0.7818608E-02  0.1164937E+00
         21   -1    0    0  503  502  0.00000000000E+00  0.00000000000E+00  0.65333699665E+02  0.65333699665E+02  0.00000000000E+00 0.  1.
         21   -1    0    0  501  503 -0.00000000000E+00 -0.00000000000E+00 -0.70102876021E+03  0.70102876021E+03  0.00000000000E+00 0.  1.
          6    2    1    2  501    0  0.32514273459E+02 -0.52960210702E+02 -0.51662034394E+03  0.54786329406E+03  0.17145158882E+03 0.  0.
         24    2    3    3    0    0 -0.25342765443E+02  0.16356515225E+02 -0.32261672734E+03  0.33382652456E+03  0.80304448133E+02 0.  0.
         -6    2    1    2    0  502 -0.32514273459E+02  0.52960210702E+02 -0.11907471660E+03  0.21849916582E+03  0.17234017359E+03 0.  0.
        -24    2    5    5    0    0 -0.70997775552E+02  0.77631955473E+02 -0.10523904927E+03  0.17050759766E+03  0.83247695013E+02 0.  0.
          5    1    3    3  501    0  0.57857038902E+02 -0.69316725927E+02 -0.19400361661E+03  0.21403676950E+03  0.47000000000E+01 0. -1.
        -11    1    4    4    0    0 -0.47747674767E+02 -0.12366284827E+02 -0.18107968448E+03  0.18767689676E+03  0.00000000000E+00 0.  1.
         12    1    4    4    0    0  0.22404909324E+02  0.28722800052E+02 -0.14153704286E+03  0.14614962780E+03  0.00000000000E+00 0. -1.
         -5    1    5    5    0  502  0.38483502093E+02 -0.24671744771E+02 -0.13835667333E+02  0.47991568154E+02  0.47000000000E+01 0.  1.
         11    1    6    6    0    0 -0.85436529131E+02  0.55455588294E+02 -0.60331977119E+02  0.11838357253E+03  0.00000000000E+00 0. -1.
        -12    1    6    6    0    0  0.14438753579E+02  0.22176367179E+02 -0.44907072153E+02  0.52124025128E+02  0.00000000000E+00 0.  1.
</event>
<event>
12    1  0.8356052E-002  0.1751617E+03  0.7818608E-02  0.1172769E+00
         21   -1    0    0  503  502  0.00000000000E+00  0.00000000000E+00  0.92985880673E+02  0.92985880673E+02  0.00000000000E+00 0.  1.
         21   -1    0    0  501  503 -0.00000000000E+00 -0.00000000000E+00 -0.50319239792E+03  0.50319239792E+03  0.00000000000E+00 0. -1.
          6    2    1    2  501    0  0.15801122691E+02 -0.29027301839E+02 -0.38045266704E+03  0.41850745224E+03  0.17120746476E+03 0.  0.
         24    2    3    3    0    0  0.35484854662E+02  0.12425189201E+02 -0.99241846728E+02  0.13353837711E+03  0.81055498165E+02 0.  0.
         -6    2    1    2    0  502 -0.15801122691E+02  0.29027301839E+02 -0.29753850209E+02  0.17767082636E+03  0.17201561326E+03 0.  0.
        -24    2    5    5    0    0 -0.63079136139E+02  0.60018622833E+02 -0.28787089222E+02  0.12093726346E+03  0.78841059630E+02 0.  0.
          5    1    3    3  501    0 -0.19683731972E+02 -0.41452491040E+02 -0.28121082031E+03  0.28496907513E+03  0.47000000000E+01 0. -1.
        -11    1    4    4    0    0  0.40019211808E+02 -0.13473059154E+02 -0.14239385630E+02  0.44562548623E+02  0.00000000000E+00 0.  1.
         12    1    4    4    0    0 -0.45343571454E+01  0.25898248355E+02 -0.85002461098E+02  0.88975828489E+02  0.00000000000E+00 0. -1.
         -5    1    5    5    0  502  0.47278013448E+02 -0.30991320994E+02 -0.96676098656E+00  0.56733562901E+02  0.47000000000E+01 0.  1.
         11    1    6    6    0    0 -0.41587549711E+02  0.20386669493E+02 -0.52489587362E+02  0.70002124006E+02  0.00000000000E+00 0. -1.
        -12    1    6    6    0    0 -0.21491586428E+02  0.39631953340E+02  0.23702498140E+02  0.50935139450E+02  0.00000000000E+00 0.  1.
</event>
<event>
12    1  0.8356052E-002  0.2036090E+03  0.7818608E-02  0.1147546E+00
         21   -1    0    0  501  502  0.00000000000E+00  0.00000000000E+00  0.84480973751E+02  0.84480973751E+02  0.00000000000E+00 0.  1.
         21   -1    0    0  502  503 -0.00000000000E+00 -0.00000000000E+00 -0.49272185462E+03  0.49272185462E+03  0.00000000000E+00 0. -1.
         -6    2    1    2    0  503 -0.10238571484E+03  0.58980886529E+01 -0.15828027388E+03  0.25481031966E+03  0.17134185668E+03 0.  0.
        -24    2    3    3    0    0 -0.10660926592E+03 -0.48478051977E+02 -0.92048711489E+02  0.16888411347E+03  0.79581539261E+02 0.  0.
          6    2    1    2  501    0  0.10238571484E+03 -0.58980886529E+01 -0.24996060698E+03  0.32239250871E+03  0.17589486228E+03 0.  0.
         24    2    5    5    0    0  0.40954645990E+01 -0.45294501654E+02 -0.78532316199E+02  0.12084152377E+03  0.79793386124E+02 0.  0.
          5    1    5    5  501    0  0.98290250239E+02  0.39396413001E+02 -0.17142829079E+03  0.20155098494E+03  0.47000000000E+01 0. -1.
        -13    1    6    6    0    0 -0.21566166163E+02  0.15029384850E+02 -0.22870705462E+02  0.34843236077E+02  0.00000000000E+00 0.  1.
         14    1    6    6    0    0  0.25661630762E+02 -0.60323886505E+02 -0.55661610736E+02  0.85998287693E+02  0.00000000000E+00 0. -1.
         -5    1    3    3    0  503  0.42235510801E+01  0.54376140630E+02 -0.66231562395E+02  0.85926206193E+02  0.47000000000E+01 0.  1.
         11    1    4    4    0    0 -0.43087266996E+02 -0.62986174461E+02 -0.53151034879E+02  0.92998942247E+02  0.00000000000E+00 0. -1.
        -12    1    4    4    0    0 -0.63521998922E+02  0.14508122484E+02 -0.38897676610E+02  0.75885171218E+02  0.00000000000E+00 0.  1.
</event>
<event>
12    1  0.8356052E-002  0.2028261E+03  0.7818608E-02  0.1148489E+00
         21   -1    0    0  503  502  0.00000000000E+00  0.00000000000E+00  0.94382512293E+03  0.94382512293E+03  0.00000000000E+00 0. -1.
         21   -1    0    0  501  503 -0.00000000000E+00 -0.00000000000E+00 -0.44065431303E+02  0.44065431303E+02  0.00000000000E+00 0. -1.
          6    2    1    2  501    0 -0.38873184743E+02 -0.89676798686E+02  0.54998595542E+03  0.58619363772E+03  0.17772275328E+03 0.  0.
         24    2    3    3    0    0 -0.19309074732E+02 -0.73542065463E+02  0.54943574687E+03  0.56039680175E+03  0.79897807979E+02 0.  0.
         -6    2    1    2    0  502  0.38873184743E+02  0.89676798686E+02  0.34977373621E+03  0.40169691651E+03  0.17165574118E+03 0.  0.
        -24    2    5    5    0    0 -0.20486689532E+02  0.35566886228E+02  0.28443842567E+03  0.29805199332E+03  0.79025722909E+02 0.  0.
          5    1    3    3  501    0 -0.19564110011E+02 -0.16134733223E+02  0.55020855329E+00  0.25796835971E+02  0.47000000000E+01 0. -1.
        -13    1    4    4    0    0 -0.21851026009E+02  0.93355893875E+01  0.72146696143E+02  0.75958977950E+02  0.00000000000E+00 0.  1.
         14    1    4    4    0    0  0.25419512768E+01 -0.82877654851E+02  0.47728905072E+03  0.48443782380E+03  0.00000000000E+00 0. -1.
         -5    1    5    5    0  502  0.59359874275E+02  0.54109912458E+02  0.65335310541E+02  0.10364492319E+03  0.47000000000E+01 0.  1.
         11    1    6    6    0    0 -0.23808439702E+02  0.42096655803E+02  0.80000810794E+02  0.93483153340E+02  0.00000000000E+00 0. -1.
        -12    1    6    6    0    0  0.33217501698E+01 -0.65297695750E+01  0.20443761488E+03  0.20456883998E+03  0.00000000000E+00 0.  1.
</event>
<event>
12    1  0.8356052E-002  0.1903980E+03  0.7818608E-02  0.1158835E+00
         21   -1    0    0  501  502  0.00000000000E+00  0.00000000000E+00  0.33476276853E+03  0.33476276853E+03  0.00000000000E+00 0.  1.
         21   -1    0    0  502  503 -0.00000000000E+00 -0.00000000000E+00 -0.24344275596E+03  0.24344275596E+03  0.00000000000E+00 0.  1.
         -6    2    1    2    0  503  0.81932146702E+02 -0.14941419497E+02 -0.17102665751E+03  0.25593264600E+03  0.17121705240E+03 0.  0.
        -24    2    3    3    0    0  0.21952297523E+01  0.29743733865E+02 -0.51939257535E+02  0.10573731422E+03  0.87138880004E+02 0.  0.
          6    2    1    2  501    0 -0.81932146702E+02  0.14941419497E+02  0.26234667007E+03  0.32227287849E+03  0.16762431278E+03 0.  0.
         24    2    5    5    0    0 -0.75719032828E+02  0.15907972907E+02  0.75033501015E+02  0.13479527900E+03  0.80952488732E+02 0.  0.
          5    1    5    5  501    0 -0.62131138737E+01 -0.96655340975E+00  0.18731316906E+03  0.18747759949E+03  0.47000000000E+01 0. -1.
        -13    1    6    6    0    0  0.12622370465E+01 -0.24627230679E+02  0.20920975717E+02  0.32338536736E+02  0.00000000000E+00 0.  1.
         14    1    6    6    0    0 -0.76981269875E+02  0.40535203586E+02  0.54112525298E+02  0.10245674226E+03  0.00000000000E+00 0. -1.
         -5    1    3    3    0  503  0.79736916949E+02 -0.44685153363E+02 -0.11908739997E+03  0.15019533178E+03  0.47000000000E+01 0.  1.
         11    1    4    4    0    0  0.27197609482E+02 -0.43119768584E+01  0.11232493121E+02  0.29740074104E+02  0.00000000000E+00 0. -1.
        -12    1    4    4    0    0 -0.25002379730E+02  0.34055710724E+02 -0.63171750656E+02  0.75997240121E+02  0.00000000000E+00 0.  1.
</event>
<event>
12    1  0.8356052E-002  0.1775272E+03  0.7818608E-02  0.1170858E+00
         21   -1    0    0  503  502  0.00000000000E+00  0.00000000000E+00  0.35586443080E+03  0.35586443080E+03  0.00000000000E+00 0.  1.
         21   -1    0    0  501  503 -0.00000000000E+00 -0.00000000000E+00 -0.10404359694E+03  0.10404359694E+03  0.00000000000E+00 0.  1.
          6    2    1    2  501    0  0.42940814215E+02  0.33186985272E+01  0.32835696030E+02  0.17800306849E+03  0.16956409459E+03 0.  0.
         24    2    3    3    0    0  0.96003499402E+01 -0.39077015701E+02  0.56753195824E+02  0.11881590823E+03  0.96317781007E+02 0.  0.
         -6    2    1    2    0  502 -0.42940814215E+02 -0.33186985272E+01  0.21898513783E+03  0.28190495924E+03  0.17222365740E+03 0.  0.
        -24    2    5    5    0    0 -0.33160697081E+02 -0.48956277225E+02  0.21090254677E+03  0.23430393447E+03  0.83199162041E+02 0.  0.
          5    1    3    3  501    0  0.33340464275E+02  0.42395714228E+02 -0.23917499794E+02  0.59187160257E+02  0.47000000000E+01 0. -1.
        -13    1    4    4    0    0  0.12645935399E+02  0.31140233640E+02  0.23848209383E+02  0.41211296073E+02  0.00000000000E+00 0.  1.
         14    1    4    4    0    0 -0.30455854587E+01 -0.70217249341E+02  0.32904986441E+02  0.77604612160E+02  0.00000000000E+00 0. -1.
         -5    1    5    5    0  502 -0.97801171341E+01  0.45637578698E+02  0.80825910572E+01  0.47601024766E+02  0.47000000000E+01 0.  1.
         13    1    6    6    0    0 -0.13481613778E+02  0.22560395123E+02  0.38427539165E+02  0.46555355272E+02  0.00000000000E+00 0. -1.
        -14    1    6    6    0    0 -0.19679083303E+02 -0.71516672348E+02  0.17247500761E+03  0.18774857920E+03  0.00000000000E+00 0.  1.
</event>
<event>
12    1  0.8356052E-002  0.1839492E+03  0.7818608E-02  0.1164283E+00
         21   -1    0    0  501  502  0.00000000000E+00  0.00000000000E+00  0.76326897101E+03  0.76326897101E+03  0.00000000000E+00 0.  1.
         21   -1    0    0  502  503 -0.00000000000E+00 -0.00000000000E+00 -0.58332084081E+02  0.58332084081E+02  0.00000000000E+00 0.  1.
         -6    2    1    2    0  503 -0.16978643192E+01 -0.62716239724E+02  0.15016946463E+03  0.23746198345E+03  0.17291939165E+03 0.  0.
        -24    2    3    3    0    0 -0.58424042121E+02 -0.83884988419E+01  0.82413217805E+02  0.13362383217E+03  0.87061210908E+02 0.  0.
          6    2    1    2  501    0  0.16978643192E+01  0.62716239724E+02  0.55476742230E+03  0.58413907164E+03  0.17180032801E+03 0.  0.
         24    2    5    5    0    0 -0.18448338947E+02 -0.28646466077E+00  0.46934372958E+03  0.47599792524E+03  0.77136664897E+02 0.  0.
          5    1    5    5  501    0  0.20146203266E+02  0.63002704385E+02  0.85423692723E+02  0.10814114640E+03  0.47000000000E+01 0. -1.
        -11    1    6    6    0    0 -0.52649311394E+01 -0.38507483385E+02  0.22525201011E+03  0.22858043187E+03  0.00000000000E+00 0.  1.
         12    1    6    6    0    0 -0.13183407807E+02  0.38221018724E+02  0.24409171947E+03  0.24741749337E+03  0.00000000000E+00 0. -1.
         -5    1    3    3    0  503  0.56726177802E+02 -0.54327740882E+02  0.67756246827E+02  0.10383815128E+03  0.47000000000E+01 0.  1.
         13    1    4    4    0    0 -0.53547237037E+02 -0.43707747871E+02  0.48696006044E+02  0.84551610410E+02  0.00000000000E+00 0. -1.
        -14    1    4    4    0    0 -0.48768050845E+01  0.35319249029E+02  0.33717211761E+02  0.49072221763E+02  0.00000000000E+00 0.  1.
</event>
<event>
12    1  0.8356052E-002  0.2202606E+03  0.7818608E-02  0.1134446E+00
         21   -1    0    0  503  502  0.00000000000E+00  0.00000000000E+00  0.77435270984E+02  0.77435270984E+02  0.00000000000E+00 0. -1.
         21   -1    0    0  501  503 -0.00000000000E+00 -0.00000000000E+00 -0.61623849528E+03  0.61623849528E+03  0.00000000000E+00 0. -1.
          6    2    1    2  501    0  0.13557124548E+03 -0.27747205400E+01 -0.28177752048E+03  0.35518162352E+03  0.16842848026E+03 0.  0.
         24    2    3    3    0    0  0.65542330382E+02 -0.56715612314E+02 -0.21267415674E+03  0.24288276495E+03  0.79052405486E+02 0.  0.
         -6    2    1    2    0  502 -0.13557124548E+03  0.27747205400E+01 -0.25702570382E+03  0.33849214275E+03  0.17357262631E+03 0.  0.
        -24    2    5    5    0    0 -0.16699576650E+03 -0.65715662972E+01 -0.20185783367E+03  0.27414591134E+03  0.80489901103E+02 0.  0.
          5    1    3    3  501    0  0.70028915100E+02  0.53940891774E+02 -0.69103363734E+02  0.11229885856E+03  0.47000000000E+01 0. -1.
        -13    1    4    4    0    0 -0.11528731835E+02 -0.17707761783E+02 -0.11749850025E+02  0.24177168170E+02  0.00000000000E+00 0.  1.
         14    1    4    4    0    0  0.77071062217E+02 -0.39007850530E+02 -0.20092430672E+03  0.21870559678E+03  0.00000000000E+00 0. -1.
         -5    1    5    5    0  502  0.31424521021E+02  0.93462868372E+01 -0.55167870152E+02  0.64346231406E+02  0.47000000000E+01 0.  1.
         13    1    6    6    0    0 -0.11836137004E+03 -0.19079872324E+01 -0.19001729514E+03  0.22387413157E+03  0.00000000000E+00 0. -1.
        -14    1    6    6    0    0 -0.48634396466E+02 -0.46635790649E+01 -0.11840538528E+02  0.50271779776E+02  0.00000000000E+00 0.  1.
</event>
<event>
12    1  0.8356052E-002  0.2634771E+03  0.7818608E-02  0.1105539E+00
         21   -1    0    0  503  502  0.00000000000E+00  0.00000000000E+00  0.40297690084E+03  0.40297690084E+03  0.00000000000E+00 0.  1.
         21   -1    0    0  501  503 -0.00000000000E+00 -0.00000000000E+00 -0.18407337259E+03  0.18407337259E+03  0.00000000000E+00 0.  1.
          6    2    1    2  501    0  0.26515232646E+02  0.19674200696E+03  0.28314995436E+02  0.26186696254E+03  0.16841048732E+03 0.  0.
         24    2    3    3    0    0  0.67676448462E+02  0.66865529489E+02  0.16954826286E+02  0.12507044018E+03  0.79398036257E+02 0.  0.
         -6    2    1    2    0  502 -0.26515232646E+02 -0.19674200696E+03  0.19058853282E+03  0.32518331089E+03  0.17323314341E+03 0.  0.
        -24    2    5    5    0    0 -0.36982217814E+02 -0.21252598607E+03  0.12590978880E+03  0.25762502714E+03  0.63106263595E+02 0.  0.
          5    1    3    3  501    0 -0.41161215816E+02  0.12987647747E+03  0.11360169150E+02  0.13679652236E+03  0.47000000000E+01 0. -1.
        -11    1    4    4    0    0  0.27404957408E+02  0.74942858557E+02 -0.20285793391E+01  0.79822170313E+02  0.00000000000E+00 0.  1.
         12    1    4    4    0    0  0.40271491054E+02 -0.80773290687E+01  0.18983405625E+02  0.45248269864E+02  0.00000000000E+00 0. -1.
         -5    1    5    5    0  502  0.10466985167E+02  0.15783979114E+02  0.64678744020E+02  0.67558283750E+02  0.47000000000E+01 0.  1.
         11    1    6    6    0    0  0.11995147360E+02 -0.92776612282E+02  0.69212069584E+02  0.11636878414E+03  0.00000000000E+00 0. -1.
        -12    1    6    6    0    0 -0.48977365174E+02 -0.11974937379E+03  0.56697719214E+02  0.14125624300E+03  0.00000000000E+00 0.  1.
</event>
<event>
12    1  0.8356052E-002  0.2636662E+03  0.7818608E-02  0.1105167E+00
         21   -1    0    0  501  502  0.00000000000E+00  0.00000000000E+00  0.24802504538E+03  0.24802504538E+03  0.00000000000E+00 0.  1.
         21   -1    0    0  502  503 -0.00000000000E+00 -0.00000000000E+00 -0.30514504442E+03  0.30514504442E+03  0.00000000000E+00 0. -1.
         -6    2    1    2    0  503 -0.19489093323E+03  0.35673579547E+02 -0.10987838001E+03  0.28564507810E+03  0.17396773297E+03 0.  0.
        -24    2    3    3    0    0 -0.98855557280E+02  0.30194686991E+01  0.11581460679E+02  0.12732998946E+03  0.79355261882E+02 0.  0.
          6    2    1    2  501    0  0.19489093323E+03 -0.35673579547E+02  0.52758380970E+02  0.26752501170E+03  0.17184616663E+03 0.  0.
         24    2    5    5    0    0  0.13386861222E+03 -0.28033957235E+02 -0.32936640008E+02  0.16194180228E+03  0.80209830904E+02 0.  0.
          5    1    5    5  501    0  0.61022321009E+02 -0.76396223120E+01  0.85695020978E+02  0.10558320942E+03  0.47000000000E+01 0. -1.
        -11    1    6    6    0    0  0.57364123202E+02 -0.52619832914E+02 -0.10782974129E+02  0.78586016426E+02  0.00000000000E+00 0.  1.
         12    1    6    6    0    0  0.76504489023E+02  0.24585875679E+02 -0.22153665879E+02  0.83355785855E+02  0.00000000000E+00 0. -1.
         -5    1    3    3    0  503 -0.96035375954E+02  0.32654110848E+02 -0.12145984069E+03  0.15831508864E+03  0.47000000000E+01 0.  1.
         11    1    4    4    0    0 -0.19677339314E+02 -0.14592564885E+02 -0.27891086731E+02  0.37122140987E+02  0.00000000000E+00 0. -1.
        -12    1    4    4    0    0 -0.79178217966E+02  0.17612033584E+02  0.39472547410E+02  0.90207848474E+02  0.00000000000E+00 0.  1.
</event>
<event>
12    1  0.8356052E-002  0.2125906E+03  0.7818608E-02  0.1139902E+00
         21   -1    0    0  501  502  0.00000000000E+00  0.00000000000E+00  0.48947281235E+03  0.48947281235E+03  0.00000000000E+00 0. -1.
         21   -1    0    0  502  503 -0.00000000000E+00 -0.00000000000E+00 -0.10778851277E+03  0.10778851277E+03  0.00000000000E+00 0.  1.
         -6    2    1    2    0  503  0.10250699291E+03 -0.72797675728E+02  0.74069862542E+02  0.22333429536E+03  0.16907003804E+03 0.  0.
        -24    2    3    3    0    0  0.10721370350E+03 -0.10337641330E+03  0.86214037747E+02  0.18976670225E+03  0.79981747495E+02 0.  0.
          6    2    1    2  501    0 -0.10250699291E+03  0.72797675728E+02  0.30761443703E+03  0.37392702976E+03  0.17142810891E+03 0.  0.
         24    2    5    5    0    0 -0.65258389107E+01  0.74424014384E+02  0.12012339287E+03  0.16323766471E+03  0.81457873626E+02 0.  0.
          5    1    5    5  501    0 -0.95981154001E+02 -0.16263386554E+01  0.18749104417E+03  0.21068936505E+03  0.47000000000E+01 0. -1.
        -11    1    6    6    0    0 -0.14884942025E+02  0.37415915771E+02  0.32944933308E+01  0.40402548661E+02  0.00000000000E+00 0.  1.
         12    1    6    6    0    0  0.83591031139E+01  0.37008098613E+02  0.11682889954E+03  0.12283511605E+03  0.00000000000E+00 0. -1.
         -5    1    3    3    0  503 -0.47067105898E+01  0.30578737572E+02 -0.12144175206E+02  0.33567593114E+02  0.47000000000E+01 0.  1.
         11    1    4    4    0    0  0.39752125251E+01  0.67149821614E+01  0.26217211374E+02  0.27353893183E+02  0.00000000000E+00 0. -1.
        -12    1    4    4    0    0  0.10323849098E+03 -0.11009139546E+03  0.59996826373E+02  0.16241280907E+03  0.00000000000E+00 0.  1.
</event>
<event>
12    1  0.8356052E-002  0.1745306E+03  0.7818608E-02  0.1173492E+00
         21   -1    0    0  503  502  0.00000000000E+00  0.00000000000E+00  0.16788991888E+04  0.16788991888E+04  0.00000000000E+00 0. -1.
         21   -1    0    0  501  503 -0.00000000000E+00 -0.00000000000E+00 -0.40294717444E+02  0.40294717444E+02  0.00000000000E+00 0. -1.
          6    2    1    2  501    0  0.29297826098E+02 -0.21008630623E+02  0.17906587826E+03  0.24925722535E+03  0.16960203553E+03 0.  0.
         24    2    3    3    0    0  0.41463191434E+02  0.27167934692E+02  0.17778332883E+03  0.19933015361E+03  0.75288147865E+02 0.  0.
         -6    2    1    2    0  502 -0.29297826098E+02  0.21008630623E+02  0.14595385931E+04  0.14699366809E+04  0.17076655390E+03 0.  0.
        -24    2    5    5    0    0 -0.10572747013E+02  0.48666644677E+02  0.13845319629E+04  0.13876950923E+04  0.79301245237E+02 0.  0.
          5    1    3    3  501    0 -0.12165365335E+02 -0.48176565315E+02  0.12825494307E+01  0.49927071738E+02  0.47000000000E+01 0. -1.
        -11    1    4    4    0    0 -0.79166319025E+01  0.36027430754E+02  0.50666956314E+02  0.62672077431E+02  0.00000000000E+00 0.  1.
         12    1    4    4    0    0  0.49379823336E+02 -0.88594960623E+01  0.12711637252E+03  0.13665807618E+03  0.00000000000E+00 0. -1.
         -5    1    5    5    0  502 -0.18725079085E+02 -0.27658014054E+02  0.75006630157E+02  0.82241588601E+02  0.47000000000E+01 0.  1.
         13    1    6    6    0    0 -0.40878720755E+02  0.30249795886E+02  0.10625124974E+04  0.10637287846E+04  0.00000000000E+00 0. -1.
        -14    1    6    6    0    0  0.30305973742E+02  0.18416848791E+02  0.32201946551E+03  0.32396630771E+03  0.00000000000E+00 0.  1.
</event>
<event>
12    1  0.8356052E-002  0.2179175E+03  0.7818608E-02  0.1135694E+00
         21   -1    0    0  503  502  0.00000000000E+00  0.00000000000E+00  0.28046660642E+03  0.28046660642E+03  0.00000000000E+00 0.  1.
         21   -1    0    0  501  503 -0.00000000000E+00 -0.00000000000E+00 -0.18793271181E+03  0.18793271181E+03  0.00000000000E+00 0.  1.
          6    2    1    2  501    0 -0.76096848374E+02 -0.10852770451E+03 -0.29553442085E+02  0.21861274367E+03  0.17131588594E+03 0.  0.
         24    2    3    3    0    0 -0.11617480288E+03 -0.58938838638E+02 -0.24961966944E+02  0.15451539817E+03  0.79256147745E+02 0.  0.
         -6    2    1    2    0  502  0.76096848374E+02  0.10852770451E+03  0.12208733669E+03  0.24978657457E+03  0.17297115967E+03 0.  0.
        -24    2    5    5    0    0 -0.12733668741E+02  0.83437188747E+02  0.99871720710E+02  0.15472860097E+03  0.82720424165E+02 0.  0.
          5    1    3    3  501    0  0.40077954502E+02 -0.49588865870E+02 -0.45914751413E+01  0.64097345494E+02  0.47000000000E+01 0. -1.
        -11    1    4    4    0    0 -0.63304369265E+02 -0.40941657994E+02 -0.52870172954E+02  0.92081038849E+02  0.00000000000E+00 0.  1.
         12    1    4    4    0    0 -0.52870433611E+02 -0.17997180644E+02  0.27908206011E+02  0.62434359323E+02  0.00000000000E+00 0. -1.
         -5    1    5    5    0  502  0.88830517115E+02  0.25090515761E+02  0.22215615984E+02  0.95057973604E+02  0.47000000000E+01 0.  1.
         11    1    6    6    0    0 -0.47332347391E+02  0.47542970742E+02  0.68193554806E+02  0.95661100211E+02  0.00000000000E+00 0. -1.
        -12    1    6    6    0    0  0.34598678650E+02  0.35894218006E+02  0.31678165904E+02  0.59067500757E+02  0.00000000000E+00 0.  1.
</event>
<event>
12    1  0.8356052E-002  0.2377875E+03  0.7818608E-02  0.1121452E+00
         21   -1    0    0  501  502  0.00000000000E+00  0.00000000000E+00  0.29280020882E+03  0.29280020882E+03  0.00000000000E+00 0.  1.
         21   -1    0    0  502  503 -0.00000000000E+00 -0.00000000000E+00 -0.59024934331E+03  0.59024934331E+03  0.00000000000E+00 0.  1.
         -6    2    1    2    0  503 -0.24131022332E+01 -0.16422965265E+03 -0.51138341549E+03  0.56396442545E+03  0.17194671753E+03 0.  0.
        -24    2    3    3    0    0 -0.61875907110E+02 -0.86652148859E+02 -0.24803340997E+03  0.28302064164E+03  0.85105160530E+02 0.  0.
          6    2    1    2  501    0  0.24131022332E+01  0.16422965265E+03  0.21393428099E+03  0.31908512668E+03  0.17049996953E+03 0.  0.
         24    2    5    5    0    0  0.29222868256E+02  0.18182104959E+03  0.20190545653E+03  0.28451630520E+03  0.79188663625E+02 0.  0.
          5    1    5    5  501    0 -0.26809766023E+02 -0.17591396936E+02  0.12028824467E+02  0.34568821478E+02  0.47000000000E+01 0. -1.
        -11    1    6    6    0    0  0.27732750524E+02  0.16086048814E+03  0.20627978451E+03  0.26305237424E+03  0.00000000000E+00 0.  1.
         12    1    6    6    0    0  0.14901177316E+01  0.20960561441E+02 -0.43743279818E+01  0.21463930955E+02  0.00000000000E+00 0. -1.
         -5    1    3    3    0  503  0.59462804876E+02 -0.77577503791E+02 -0.26335000552E+03  0.28094378382E+03  0.47000000000E+01 0.  1.
         11    1    4    4    0    0 -0.12195993064E+02 -0.85671675083E+02 -0.15274037164E+03  0.17555056048E+03  0.00000000000E+00 0. -1.
        -12    1    4    4    0    0 -0.49679914045E+02 -0.98047377585E+00 -0.95293038334E+02  0.10747008115E+03  0.00000000000E+00 0.  1.
</event>
<event>
12    1  0.8356052E-002  0.1742244E+03  0.7818608E-02  0.1173679E+00
         21   -1    0    0  501  502  0.00000000000E+00  0.00000000000E+00  0.52762437005E+03  0.52762437005E+03  0.00000000000E+00 0. -1.
         21   -1    0    0  502  503 -0.00000000000E+00 -0.00000000000E+00 -0.63479540858E+02  0.63479540858E+02  0.00000000000E+00 0. -1.
         -6    2    1    2    0  503 -0.11788821319E+02  0.10527767241E+02  0.13956621755E+03  0.22272175999E+03  0.17284803471E+03 0.  0.
        -24    2    3    3    0    0 -0.64206265894E+01  0.69534884068E+02  0.12058530115E+03  0.16032766942E+03  0.79295789178E+02 0.  0.
          6    2    1    2  501    0  0.11788821319E+02 -0.10527767241E+02  0.32457861164E+03  0.36838215091E+03  0.17350597622E+03 0.  0.
         24    2    5    5    0    0 -0.58041369403E+02  0.14967883308E+02  0.20277728099E+03  0.22560982207E+03  0.78665926789E+02 0.  0.
          5    1    5    5  501    0  0.69830190723E+02 -0.25495650550E+02  0.12180133066E+03  0.14277232884E+03  0.47000000000E+01 0. -1.
        -13    1    6    6    0    0 -0.10565797184E+02  0.36628748807E+02  0.42699607143E+02  0.57241224301E+02  0.00000000000E+00 0.  1.
         14    1    6    6    0    0 -0.47475572219E+02 -0.21660865499E+02  0.16007767385E+03  0.16836859777E+03  0.00000000000E+00 0. -1.
         -5    1    3    3    0  503 -0.53681947299E+01 -0.59007116827E+02  0.18980916400E+02  0.62394090572E+02  0.47000000000E+01 0.  1.
         13    1    4    4    0    0 -0.24000688897E+02  0.34641953085E+02  0.11289760257E+03  0.12050712281E+03  0.00000000000E+00 0. -1.
        -14    1    4    4    0    0  0.17580062307E+02  0.34892930982E+02  0.76876985759E+01  0.39820546614E+02  0.00000000000E+00 0.  1.
</event>
<event>
12    1  0.8356052E-002  0.1888478E+03  0.7818608E-02  0.1160192E+00
         21   -1    0    0  501  502  0.00000000000E+00  0.00000000000E+00  0.72254221000E+02  0.72254221000E+02  0.00000000000E+00 0. -1.
         21   -1    0    0  502  503 -0.00000000000E+00 -0.00000000000E+00 -0.48638173062E+03  0.48638173062E+03  0.00000000000E+00 0.  1.
         -6    2    1    2    0  503 -0.56317699860E+02  0.47524740140E+02 -0.21520514055E+03  0.28434851245E+03  0.17061811092E+03 0.  0.
        -24    2    3    3    0    0 -0.10364725022E+03  0.45756686537E+02 -0.15163997302E+03  0.20493923797E+03  0.78542873652E+02 0.  0.
          6    2    1    2  501    0  0.56317699860E+02 -0.47524740140E+02 -0.19892236907E+03  0.27428743917E+03  0.17387698561E+03 0.  0.
         24    2    5    5    0    0 -0.33844993490E+01 -0.82208486173E+02 -0.92674705019E+02  0.14748850011E+03  0.79966034538E+02 0.  0.
          5    1    5    5  501    0  0.59702199209E+02  0.34683746034E+02 -0.10624766405E+03  0.12679893905E+03  0.47000000000E+01 0. -1.
        -11    1    6    6    0    0  0.22544242328E+02 -0.73087769603E+02 -0.92467930818E+02  0.12000159648E+03  0.00000000000E+00 0.  1.
         12    1    6    6    0    0 -0.25928741677E+02 -0.91207165704E+01 -0.20677420174E+00  0.27486903632E+02  0.00000000000E+00 0. -1.
         -5    1    3    3    0  503  0.47329550360E+02  0.17680536028E+01 -0.63565167526E+02  0.79409274480E+02  0.47000000000E+01 0.  1.
         11    1    4    4    0    0 -0.44958731920E+02  0.23668028155E+02 -0.12502512881E+02  0.52323760960E+02  0.00000000000E+00 0. -1.
        -12    1    4    4    0    0 -0.58688518300E+02  0.22088658382E+02 -0.13913746014E+03  0.15261547701E+03  0.00000000000E+00 0.  1.
</event>
<event>
12    1  0.8356052E-002  0.2551331E+03  0.7818608E-02  0.1110333E+00
         21   -1    0    0  503  502  0.00000000000E+00  0.00000000000E+00  0.79670810899E+03  0.79670810899E+03  0.00000000000E+00 0.  1.
         21   -1    0    0  501  503 -0.00000000000E+00 -0.00000000000E+00 -0.90241133990E+02  0.90241133990E+02  0.00000000000E+00 0.  1.
          6    2    1    2  501    0 -0.68183774826E+01  0.18807888993E+03  0.21400000720E+03  0.33299983165E+03  0.17225773041E+03 0.  0.
         24    2    3    3    0    0  0.60122721264E+02  0.65567367641E+02  0.95974632463E+02  0.15012757329E+03  0.73575382248E+02 0.  0.
         -6    2    1    2    0  502  0.68183774826E+01 -0.18807888993E+03  0.49246696780E+03  0.55394941133E+03  0.17004727824E+03 0.  0.
        -24    2    5    5    0    0 -0.33750077538E+02 -0.10758293560E+03  0.40493091015E+03  0.42821139165E+03  0.81748383313E+02 0.  0.
          5    1    3    3  501    0 -0.66941098746E+02  0.12251152229E+03  0.11802537474E+03  0.18287225836E+03  0.47000000000E+01 0. -1.
        -13    1    4    4    0    0  0.66777269974E+02  0.65473089195E+02  0.54746261596E+02  0.10836550352E+03  0.00000000000E+00 0.  1.
         14    1    4    4    0    0 -0.66545487106E+01  0.94278445777E-01  0.41228370868E+02  0.41762069769E+02  0.00000000000E+00 0. -1.
         -5    1    5    5    0  502  0.40568455020E+02 -0.80495954328E+02  0.87536057644E+02  0.12573801968E+03  0.47000000000E+01 0.  1.
         13    1    6    6    0    0 -0.55378651440E+02 -0.44924579813E+02  0.17660640327E+03  0.19045953529E+03  0.00000000000E+00 0. -1.
        -14    1    6    6    0    0  0.21628573902E+02 -0.62658355790E+02  0.22832450688E+03  0.23775185636E+03  0.00000000000E+00 0.  1.
</event>
<event>
12    1  0.8356052E-002  0.1814849E+03  0.7818608E-02  0.1166767E+00
         21   -1    0    0  503  502  0.00000000000E+00  0.00000000000E+00  0.16130618081E+03  0.16130618081E+03  0.00000000000E+00 0.  1.
         21   -1    0    0  501  503 -0.00000000000E+00 -0.00000000000E+00 -0.22072424351E+03  0.22072424351E+03  0.00000000000E+00 0.  1.
          6    2    1    2  501    0  0.55841880718E+02 -0.34877256973E+01  0.25524145613E+02  0.18165087996E+03  0.17092419463E+03 0.  0.
         24    2    3    3    0    0  0.70061424599E+02  0.53536776720E+02  0.31350264454E+02  0.12240543318E+03  0.78901592581E+02 0.  0.
         -6    2    1    2    0  502 -0.55841880718E+02  0.34877256973E+01 -0.84942208316E+02  0.20037954436E+03  0.17264502069E+03 0.  0.
        -24    2    5    5    0    0 -0.21030186204E+01  0.49948921784E+02 -0.62259788204E+01  0.94243580483E+02  0.79647800819E+02 0.  0.
          5    1    3    3  501    0 -0.14219543880E+02 -0.57024502418E+02 -0.58261188417E+01  0.59245446786E+02  0.47000000000E+01 0. -1.
        -13    1    4    4    0    0  0.59400992506E+02 -0.41835064052E+01  0.13565243803E+02  0.61073688901E+02  0.00000000000E+00 0.  1.
         14    1    4    4    0    0  0.10660432093E+02  0.57720283126E+02  0.17785020651E+02  0.61331744277E+02  0.00000000000E+00 0. -1.
         -5    1    5    5    0  502 -0.53738862098E+02 -0.46461196087E+02 -0.78716229495E+02  0.10613596387E+03  0.47000000000E+01 0.  1.
         13    1    6    6    0    0  0.37531963081E+02  0.12667990216E+02 -0.18712270059E+01  0.39656370476E+02  0.00000000000E+00 0. -1.
        -14    1    6    6    0    0 -0.39634981701E+02  0.37280931567E+02 -0.43547518145E+01  0.54587210007E+02  0.00000000000E+00 0.  1.
</event>
<event>
12    1  0.8356052E-002  0.2118316E+03  0.7818608E-02  0.1140624E+00
         21   -1    0    0  501  502  0.00000000000E+00  0.00000000000E+00  0.22777277229E+02  0.22777277229E+02  0.00000000000E+00 0. -1.
         21   -1    0    0  502  503 -0.00000000000E+00 -0.00000000000E+00 -0.29881013689E+04  0.29881013689E+04  0.00000000000E+00 0. -1.
         -6    2    1    2    0  503 -0.25103997876E+02 -0.11467741052E+03 -0.23772919229E+04  0.23867110269E+04  0.17632787730E+03 0.  0.
        -24    2    3    3    0    0 -0.31545013241E+01 -0.45066109178E+02 -0.74816814347E+03  0.75594620872E+03  0.98276113620E+02 0.  0.
          6    2    1    2  501    0  0.25103997876E+02  0.11467741052E+03 -0.58803216879E+03  0.62416761919E+03  0.17326934560E+03 0.  0.
         24    2    5    5    0    0 -0.26862374548E+02  0.27254476033E+02 -0.40813176635E+03  0.41745642420E+03  0.78955264367E+02 0.  0.
          5    1    5    5  501    0  0.51966372423E+02  0.87422934486E+02 -0.17990040243E+03  0.20671119499E+03  0.47000000000E+01 0. -1.
        -11    1    6    6    0    0  0.24035895317E+02 -0.44176090925E+01 -0.17690158381E+03  0.17858166168E+03  0.00000000000E+00 0.  1.
         12    1    6    6    0    0 -0.50898269865E+02  0.31672085125E+02 -0.23123018254E+03  0.23887476252E+03  0.00000000000E+00 0. -1.
         -5    1    3    3    0  503 -0.21949496552E+02 -0.69611301341E+02 -0.16291237794E+04  0.16307648182E+04  0.47000000000E+01 0.  1.
         13    1    4    4    0    0  0.25572510799E+02 -0.60378629997E+02 -0.62910802810E+03  0.63251596288E+03  0.00000000000E+00 0. -1.
        -14    1    4    4    0    0 -0.28727012123E+02  0.15312520819E+02 -0.11906011536E+03  0.12343024585E+03  0.00000000000E+00 0.  1.
</event>
<event>
12    1  0.8356052E-002  0.3458661E+03  0.7818608E-02  0.1064327E+00
         21   -1    0    0  501  502  0.00000000000E+00  0.00000000000E+00  0.14605709912E+03  0.14605709912E+03  0.00000000000E+00 0.  1.
         21   -1    0    0  502  503 -0.00000000000E+00 -0.00000000000E+00 -0.11973634258E+04  0.11973634258E+04  0.00000000000E+00 0. -1.
         -6    2    1    2    0  503  0.27429342069E+02 -0.29917296336E+03 -0.90325005630E+03  0.96719717836E+03  0.17132684207E+03 0.  0.
        -24    2    3    3    0    0 -0.14808692648E+02 -0.28636544785E+03 -0.80117206886E+03  0.85588639923E+03  0.91871526459E+02 0.  0.
          6    2    1    2  501    0 -0.27429342069E+02  0.29917296336E+03 -0.14805627038E+03  0.37622334656E+03  0.17136661426E+03 0.  0.
         24    2    5    5    0    0 -0.77315491042E+02  0.15570290311E+03 -0.59022622811E+02  0.20009451176E+03  0.79580553160E+02 0.  0.
          5    1    5    5  501    0  0.49886148973E+02  0.14347006025E+03 -0.89033647565E+02  0.17612883480E+03  0.47000000000E+01 0. -1.
        -11    1    6    6    0    0 -0.31527903124E+00  0.81125815196E+02 -0.42656325344E+02  0.91657293130E+02  0.00000000000E+00 0.  1.
         12    1    6    6    0    0 -0.77000212011E+02  0.74577087912E+02 -0.16366297467E+02  0.10843721863E+03  0.00000000000E+00 0. -1.
         -5    1    3    3    0  503  0.42238034716E+02 -0.12807515511E+02 -0.10207798744E+03  0.11131077913E+03  0.47000000000E+01 0.  1.
         13    1    4    4    0    0 -0.13331598652E+02 -0.45941795527E+02 -0.25033432049E+03  0.25486398748E+03  0.00000000000E+00 0. -1.
        -14    1    4    4    0    0 -0.14770939956E+01 -0.24042365232E+03 -0.55083774837E+03  0.60102241176E+03  0.00000000000E+00 0.  1.
</event>
<event>
12    1  0.8356052E-002  0.2038637E+03  0.7818608E-02  0.1147440E+00
         21   -1    0    0  501  502  0.00000000000E+00  0.00000000000E+00  0.85916955468E+03  0.85916955468E+03  0.00000000000E+00 0. -1.
         21   -1    0    0  502  503 -0.00000000000E+00 -0.00000000000E+00 -0.51330233841E+02  0.51330233841E+02  0.00000000000E+00 0.  1.
         -6    2    1    2    0  503 -0.68228937100E+02 -0.71491156799E+02  0.27273760655E+03  0.33787927490E+03  0.17323518413E+03 0.  0.
        -24    2    3    3    0    0 -0.42631717237E+02 -0.55202771217E+02  0.28550556472E+03  0.30462811062E+03  0.80125208449E+02 0.  0.
          6    2    1    2  501    0  0.68228937100E+02  0.71491156799E+02  0.53510171429E+03  0.57262051362E+03  0.17830937896E+03 0.  0.
         24    2    5    5    0    0  0.84465316528E+01 -0.31281580746E+02  0.20421446427E+03  0.22098912451E+03  0.77992080002E+02 0.  0.
          5    1    5    5  501    0  0.59782405448E+02  0.10277273755E+03  0.33088725002E+03  0.35163138911E+03  0.47000000000E+01 0. -1.
        -11    1    6    6    0    0 -0.20278686469E+02 -0.13541198898E+01  0.10486638528E+02  0.22869813143E+02  0.00000000000E+00 0.  1.
         12    1    6    6    0    0  0.28725218122E+02 -0.29927460857E+02  0.19372782574E+03  0.19811931136E+03  0.00000000000E+00 0. -1.
         -5    1    3    3    0  503 -0.25597219864E+02 -0.16288385582E+02 -0.12767958177E+02  0.33251164275E+02  0.47000000000E+01 0.  1.
         11    1    4    4    0    0 -0.49697351228E+02 -0.61282888718E+02  0.15629306455E+03  0.17507981379E+03  0.00000000000E+00 0. -1.
        -12    1    4    4    0    0  0.70656339914E+01  0.60801175008E+01  0.12921250017E+03  0.12954829683E+03  0.00000000000E+00 0.  1.
</event>
<event>
12    1  0.8356052E-002  0.1823256E+03  0.7818608E-02  0.1166235E+00
         21   -1    0    0  503  502  0.00000000000E+00  0.00000000000E+00  0.63114101401E+02  0.63114101401E+02  0.00000000000E+00 0.  1.
         21   -1    0    0  501  503 -0.00000000000E+00 -0.00000000000E+00 -0.54967412973E+03  0.54967412973E+03  0.00000000000E+00 0.  1.
          6    2    1    2  501    0  0.12423526005E+02  0.55686804189E+02 -0.31420677322E+03  0.36189328929E+03  0.17025126237E+03 0.  0.
         24    2    3    3    0    0 -0.36017097656E+02 -0.33439706705E+01 -0.24004211397E+03  0.25533995484E+03  0.79182463940E+02 0.  0.
         -6    2    1    2    0  502 -0.12423526005E+02 -0.55686804189E+02 -0.17235325511E+03  0.25089494184E+03  0.17316830868E+03 0.  0.
        -24    2    5    5    0    0  0.13948471873E+02  0.26757088620E+02 -0.12308887886E+03  0.15118763769E+03  0.82439844924E+02 0.  0.
          5    1    3    3  501    0  0.48440623661E+02  0.59030774860E+02 -0.74164659244E+02  0.10655333445E+03  0.47000000000E+01 0. -1.
        -11    1    4    4    0    0 -0.54063621377E+02  0.11759110502E+02 -0.10939568992E+03  0.12259106333E+03  0.00000000000E+00 0.  1.
         12    1    4    4    0    0  0.18046523721E+02 -0.15103081172E+02 -0.13064642406E+03  0.13274889151E+03  0.00000000000E+00 0. -1.
         -5    1    5    5    0  502 -0.26371997878E+02 -0.82443892809E+02 -0.49264376251E+02  0.99707304151E+02  0.47000000000E+01 0.  1.
         13    1    6    6    0    0 -0.19086251132E+02  0.40499956784E+02 -0.37431353637E+02  0.58357841949E+02  0.00000000000E+00 0. -1.
        -14    1    6    6    0    0  0.33034723005E+02 -0.13742868164E+02 -0.85657525222E+02  0.92829795736E+02  0.00000000000E+00 0.  1.
</event>
<event>
12    1  0.8356052E-002  0.1807935E+03  0.7818608E-02  0.1167156E+00
         21   -1    0    0  501  502  0.00000000000E+00  0.00000000000E+00  0.47244769979E+03  0.47244769979E+03  0.00000000000E+00 0.  1.
         21   -1    0    0  502  503 -0.00000000000E+00 -0.00000000000E+00 -0.84506357501E+02  0.84506357501E+02  0.00000000000E+00 0.  1.
         -6    2    1    2    0  503  0.43405589933E+02 -0.28050238074E+02  0.74886967363E+02  0.19568937273E+03  0.17324956458E+03 0.  0.
        -24    2    3    3    0    0  0.45599174160E+02 -0.27722384104E+02  0.12078092388E+03  0.14950209586E+03  0.70107273711E+02 0.  0.
          6    2    1    2  501    0 -0.43405589933E+02  0.28050238074E+02  0.31305437493E+03  0.36126468456E+03  0.17273757424E+03 0.  0.
         24    2    5    5    0    0  0.15556940958E+02  0.40747050812E+02  0.27528966528E+03  0.28994811988E+03  0.79894754835E+02 0.  0.
          5    1    5    5  501    0 -0.58962530890E+02 -0.12696812738E+02  0.37764709644E+02  0.71316564676E+02  0.47000000000E+01 0. -1.
        -13    1    6    6    0    0  0.35283526787E+02  0.16998136767E+02  0.23950563575E+03  0.24268665698E+03  0.00000000000E+00 0.  1.
         14    1    6    6    0    0 -0.19726585829E+02  0.23748914044E+02  0.35784029527E+02  0.47261462906E+02  0.00000000000E+00 0. -1.
         -5    1    3    3    0  503 -0.21935842278E+01 -0.32785397001E+00 -0.45893956521E+02  0.46187276875E+02  0.47000000000E+01 0.  1.
         11    1    4    4    0    0  0.91931388202E+01 -0.38461359044E+02  0.96897882214E+02  0.10465653118E+03  0.00000000000E+00 0. -1.
        -12    1    4    4    0    0  0.36406035340E+02  0.10738974941E+02  0.23883041671E+02  0.44845564679E+02  0.00000000000E+00 0.  1.
</event>
<event>
12    1  0.8356052E-002  0.1990218E+03  0.7818608E-02  0.1150922E+00
         21   -1    0    0  501  502  0.00000000000E+00  0.00000000000E+00  0.18535745298E+03  0.18535745298E+03  0.00000000000E+00 0. -1.
         21   -1    0    0  502  503 -0.00000000000E+00 -0.00000000000E+00 -0.36074482002E+03  0.36074482002E+03  0.00000000000E+00 0. -1.
         -6    2    1    2    0  503 -0.66448075105E+02 -0.70636968002E+02 -0.26286397963E+03  0.32870440726E+03  0.17188422741E+03 0.  0.
        -24    2    3    3    0    0 -0.92666302907E+02 -0.31817114014E+02 -0.25148549001E+03  0.28026953801E+03  0.75542635734E+02 0.  0.
          6    2    1    2  501    0  0.66448075105E+02  0.70636968002E+02  0.87476612588E+02  0.21739786574E+03  0.17379512751E+03 0.  0.
         24    2    5    5    0    0 -0.26439004419E+02  0.12643513930E+02  0.21653605993E+02  0.89546356348E+02  0.81797260856E+02 0.  0.
          5    1    5    5  501    0  0.92887079524E+02  0.57993454072E+02  0.65823006595E+02  0.12785150940E+03  0.47000000000E+01 0. -1.
        -11    1    6    6    0    0  0.19326426899E+02 -0.13904966152E+02 -0.12181582889E+02  0.26744154914E+02  0.00000000000E+00 0.  1.
         12    1    6    6    0    0 -0.45765431317E+02  0.26548480082E+02  0.33835188882E+02  0.62802201434E+02  0.00000000000E+00 0. -1.
         -5    1    3    3    0  503  0.26218227802E+02 -0.38819853988E+02 -0.11378489617E+02  0.48434869244E+02  0.47000000000E+01 0.  1.
         11    1    4    4    0    0 -0.48323171198E+02 -0.55326075388E+02 -0.15400850524E+03  0.17063037004E+03  0.00000000000E+00 0. -1.
        -12    1    4    4    0    0 -0.44343131709E+02  0.23508961375E+02 -0.97476984767E+02  0.10963916797E+03  0.00000000000E+00 0.  1.
</event>
<event>
12    1  0.8356052E-002  0.2101648E+03  0.7818608E-02  0.1141993E+00
         21   -1    0    0  501  502  0.00000000000E+00  0.00000000000E+00  0.20222455365E+03  0.20222455365E+03  0.00000000000E+00 0.  1.
         21   -1    0    0  502  503 -0.00000000000E+00 -0.00000000000E+00 -0.28799393356E+03  0.28799393356E+03  0.00000000000E+00 0.  1.
         -6    2    1    2    0  503 -0.80298200342E+02  0.84028015739E+02 -0.16605570898E+03  0.26785026130E+03  0.17510212902E+03 0.  0.
        -24    2    3    3    0    0  0.27095672864E+02  0.32801744695E+02 -0.58016740725E+02  0.10706443012E+03  0.79288839371E+02 0.  0.
          6    2    1    2  501    0  0.80298200342E+02 -0.84028015739E+02  0.80286329073E+02  0.22236822591E+03  0.17173591602E+03 0.  0.
         24    2    5    5    0    0  0.11555260089E+03 -0.33488797910E+02  0.51218482843E+02  0.15407389978E+03  0.81495585471E+02 0.  0.
          5    1    5    5  501    0 -0.35254400549E+02 -0.50539217829E+02  0.29067846230E+02  0.68294326128E+02  0.47000000000E+01 0. -1.
        -13    1    6    6    0    0  0.75551209566E+02 -0.51377450386E+02  0.60104854202E+02  0.10936279611E+03  0.00000000000E+00 0.  1.
         14    1    6    6    0    0  0.40001391325E+02  0.17888652476E+02 -0.88863713595E+01  0.44711103669E+02  0.00000000000E+00 0. -1.
         -5    1    3    3    0  503 -0.10739387321E+03  0.51226271044E+02 -0.10803896825E+03  0.16078583118E+03  0.47000000000E+01 0.  1.
         13    1    4    4    0    0  0.47885720917E+02  0.29693906859E+02 -0.63940984128E+02  0.85224525951E+02  0.00000000000E+00 0. -1.
        -14    1    4    4    0    0 -0.20790048053E+02  0.31078378356E+01  0.59242434030E+01  0.21839904165E+02  0.00000000000E+00 0.  1.
</event>
<event>
12    1  0.8356052E-002  0.2904665E+03  0.7818608E-02  0.1090959E+00
         21   -1    0    0  503  502  0.00000000000E+00  0.00000000000E+00  0.81646614954E+02  0.81646614954E+02  0.00000000000E+00 0.  1.
         21   -1    0    0  501  503 -0.00000000000E+00 -0.00000000000E+00 -0.10130729762E+04  0.10130729762E+04  0.00000000000E+00 0.  1.
          6    2    1    2  501    0 -0.11025631049E+03  0.20617700954E+03 -0.44322411101E+03  0.52992300379E+03  0.17235244150E+03 0.  0.
         24    2    3    3    0    0 -0.26227182164E+02  0.18188431370E+03 -0.27509742075E+03  0.34034530611E+03  0.79916004837E+02 0.  0.
         -6    2    1    2    0  502  0.11025631049E+03 -0.20617700954E+03 -0.48820225020E+03  0.56479658734E+03  0.16120897834E+03 0.  0.
        -24    2    5    5    0    0  0.10319326363E+02 -0.13873713734E+03 -0.23872125635E+03  0.28767135671E+03  0.80078021093E+02 0.  0.
          5    1    3    3  501    0 -0.84029128329E+02  0.24292695838E+02 -0.16812669026E+03  0.18957769768E+03  0.47000000000E+01 0. -1.
        -11    1    4    4    0    0 -0.41467967851E+02  0.60912569594E+02 -0.69386391153E+02  0.10121464701E+03  0.00000000000E+00 0.  1.
         12    1    4    4    0    0  0.15240785687E+02  0.12097174411E+03 -0.20571102960E+03  0.23913065910E+03  0.00000000000E+00 0. -1.
         -5    1    5    5    0  502  0.99936984130E+02 -0.67439872206E+02 -0.24948099385E+03  0.27712523063E+03  0.47000000000E+01 0.  1.
         11    1    6    6    0    0  0.76709789828E+01 -0.11243362558E+03 -0.11445489776E+03  0.16062405704E+03  0.00000000000E+00 0. -1.
        -12    1    6    6    0    0  0.26483473806E+01 -0.26303511760E+02 -0.12426635859E+03  0.12704729967E+03  0.00000000000E+00 0.  1.
</event>
<event>
12    1  0.8356052E-002  0.2585235E+03  0.7818608E-02  0.1108065E+00
         21   -1    0    0  501  502  0.00000000000E+00  0.00000000000E+00  0.48979362986E+03  0.48979362986E+03  0.00000000000E+00 0.  1.
         21   -1    0    0  502  503 -0.00000000000E+00 -0.00000000000E+00 -0.25494882290E+03  0.25494882290E+03  0.00000000000E+00 0.  1.
         -6    2    1    2    0  503  0.19042320310E+03 -0.28194655999E+02 -0.13658112084E+03  0.29220334707E+03  0.17225695504E+03 0.  0.
        -24    2    3    3    0    0  0.13025918802E+03  0.48941535792E+02 -0.78731689129E+02  0.17845648977E+03  0.79279946267E+02 0.  0.
          6    2    1    2  501    0 -0.19042320310E+03  0.28194655999E+02  0.37142592780E+03  0.45253910569E+03  0.17256444430E+03 0.  0.
         24    2    5    5    0    0 -0.19082625249E+03  0.36711742777E+02  0.38324100952E+03  0.43722932542E+03  0.80829455843E+02 0.  0.
          5    1    5    5  501    0  0.40304938892E+00 -0.85170867782E+01 -0.11815081723E+02  0.15309780276E+02  0.47000000000E+01 0. -1.
        -11    1    6    6    0    0 -0.57598625551E+02  0.66741376912E+01  0.20282901306E+03  0.21095438919E+03  0.00000000000E+00 0.  1.
         12    1    6    6    0    0 -0.13322762694E+03  0.30037605086E+02  0.18041199646E+03  0.22627493623E+03  0.00000000000E+00 0. -1.
         -5    1    3    3    0  503  0.60164015087E+02 -0.77136191791E+02 -0.57849431707E+02  0.11374685729E+03  0.47000000000E+01 0.  1.
         11    1    4    4    0    0  0.96477764796E+02  0.56228731075E+02 -0.88566351501E+02  0.14252588508E+03  0.00000000000E+00 0. -1.
        -12    1    4    4    0    0  0.33781423221E+02 -0.72871952828E+01  0.98346623715E+01  0.35930604697E+02  0.00000000000E+00 0.  1.
</event>
<event>
12    1  0.8356052E-002  0.2971685E+03  0.7818608E-02  0.1086735E+00
         21   -1    0    0  503  502  0.00000000000E+00  0.00000000000E+00  0.12066902581E+03  0.12066902581E+03  0.00000000000E+00 0. -1.
         21   -1    0    0  501  503 -0.00000000000E+00 -0.00000000000E+00 -0.74747602351E+03  0.74747602351E+03  0.00000000000E+00 0.  1.
          6    2    1    2  501    0 -0.58591431053E+02 -0.23495696557E+03 -0.37862078507E+03  0.48096873247E+03  0.17128774404E+03 0.  0.
         24    2    3    3    0    0  0.83457387329E+01 -0.20455556408E+03 -0.31443894735E+03  0.38326393112E+03  0.78145755740E+02 0.  0.
         -6    2    1    2    0  502  0.58591431053E+02  0.23495696557E+03 -0.24818621263E+03  0.38717631686E+03  0.17225380326E+03 0.  0.
        -24    2    5    5    0    0  0.69514516932E+02  0.16880519790E+03 -0.25014772106E+03  0.31993564698E+03  0.80358403123E+02 0.  0.
          5    1    3    3  501    0 -0.66937169786E+02 -0.30401401492E+02 -0.64181837724E+02  0.97704801342E+02  0.47000000000E+01 0. -1.
        -11    1    4    4    0    0  0.92858890116E+01 -0.27485958649E+02 -0.10534061389E+03  0.10926275940E+03  0.00000000000E+00 0.  1.
         12    1    4    4    0    0 -0.94015027872E+00 -0.17706960543E+03 -0.20909833346E+03  0.27400117172E+03  0.00000000000E+00 0. -1.
         -5    1    5    5    0  502 -0.10923085879E+02  0.66151767669E+02  0.19615084355E+01  0.67240669882E+02  0.47000000000E+01 0.  1.
         13    1    6    6    0    0  0.57271946184E+02  0.59087692130E+02 -0.67121860615E+02  0.10619216239E+03  0.00000000000E+00 0. -1.
        -14    1    6    6    0    0  0.12242570749E+02  0.10971750577E+03 -0.18302586045E+03  0.21374348459E+03  0.00000000000E+00 0.  1.
</event>
<event>
12    1  0.8356052E-002  0.1942810E+03  0.7818608E-02  0.1154841E+00
         21   -1    0    0  501  502  0.00000000000E+00  0.00000000000E+00  0.11053628532E+03  0.11053628532E+03  0.00000000000E+00 0. -1.
         21   -1    0    0  502  503 -0.00000000000E+00 -0.00000000000E+00 -0.43975723109E+03  0.43975723109E+03  0.00000000000E+00 0. -1.
         -6    2    1    2    0  503  0.88711082628E+02  0.98928036794E+01 -0.29594201991E+03  0.35401521921E+03  0.17256179338E+03 0.  0.
        -24    2    3    3    0    0  0.12283702503E+03 -0.19583911845E+02 -0.24101073225E+03  0.28279027227E+03  0.80073096029E+02 0.  0.
          6    2    1    2  501    0 -0.88711082628E+02 -0.98928036794E+01 -0.33278925855E+02  0.19627829720E+03  0.17161048715E+03 0.  0.
         24    2    5    5    0    0 -0.11473637601E+03  0.19668048993E+01  0.13684691859E+02  0.14109100156E+03  0.80938838805E+02 0.  0.
          5    1    5    5  501    0  0.26025293383E+02 -0.11859608579E+02 -0.46963617714E+02  0.55187295641E+02  0.47000000000E+01 0. -1.
        -11    1    6    6    0    0 -0.37428066158E+02  0.11233165652E+02 -0.32269960748E+02  0.50679330240E+02  0.00000000000E+00 0.  1.
         12    1    6    6    0    0 -0.77308309854E+02 -0.92663607527E+01  0.45954652607E+02  0.90411671317E+02  0.00000000000E+00 0. -1.
         -5    1    3    3    0  503 -0.34125942400E+02  0.29476715524E+02 -0.54931287660E+02  0.71224946941E+02  0.47000000000E+01 0.  1.
         13    1    4    4    0    0  0.99265708045E+01  0.20708185160E+02 -0.16503487366E+02  0.28279512652E+02  0.00000000000E+00 0. -1.
        -14    1    4    4    0    0  0.11291045422E+03 -0.40292097005E+02 -0.22450724489E+03  0.25451075962E+03  0.00000000000E+00 0.  1.
</event>
<event>
12    1  0.8356052E-002  0.2040414E+03  0.7818608E-02  0.1147375E+00
         21   -1    0    0  501  502  0.00000000000E+00  0.00000000000E+00  0.16883974729E+03  0.16883974729E+03  0.00000000000E+00 0. -1.
         21   -1    0    0  502  503 -0.00000000000E+00 -0.00000000000E+00 -0.28768419174E+03  0.28768419174E+03  0.00000000000E+00 0. -1.
         -6    2    1    2    0  503 -0.99100877409E+02  0.15515054991E+02 -0.15096968697E+03  0.24996902165E+03  0.17213647076E+03 0.  0.
        -24    2    3    3    0    0 -0.33599625336E+02  0.58933425620E+02 -0.13472471103E+03  0.16958520378E+03  0.77500387751E+02 0.  0.
          6    2    1    2  501    0  0.99100877409E+02 -0.15515054991E+02  0.32125242519E+02  0.20655491738E+03  0.17768286876E+03 0.  0.
         24    2    5    5    0    0  0.36262039865E+02 -0.49519881490E+02 -0.35064325250E+02  0.10836339154E+03  0.82133814737E+02 0.  0.
          5    1    5    5  501    0  0.62838837544E+02  0.34004826499E+02  0.67189567769E+02  0.98191525837E+02  0.47000000000E+01 0. -1.
        -11    1    6    6    0    0  0.56281932033E+02 -0.92543112722E+01 -0.25038175006E+02  0.62291318481E+02  0.00000000000E+00 0.  1.
         12    1    6    6    0    0 -0.20019892168E+02 -0.40265570218E+02 -0.10026150244E+02  0.46072073061E+02  0.00000000000E+00 0. -1.
         -5    1    3    3    0  503 -0.65501252073E+02 -0.43418370629E+02 -0.16244975939E+02  0.80383817865E+02  0.47000000000E+01 0.  1.
         11    1    4    4    0    0 -0.16204923566E+02 -0.47179126362E+01 -0.85791145353E+02  0.87435569812E+02  0.00000000000E+00 0. -1.
        -12    1    4    4    0    0 -0.17394701770E+02  0.63651338256E+02 -0.48933565677E+02  0.82149633970E+02  0.00000000000E+00 0.  1.
</event>
<event>
12    1  0.8356052E-002  0.2198848E+03  0.7818608E-02  0.1134095E+00
         21   -1    0    0  503  502  0.00000000000E+00  0.00000000000E+00  0.11435343912E+04  0.11435343912E+04  0.00000000000E+00 0.  1.
         21   -1    0    0  501  503 -0.00000000000E+00 -0.00000000000E+00 -0.43118836515E+02  0.43118836515E+02  0.00000000000E+00 0.  1.
          6    2    1    2  501    0 -0.11463705600E+03  0.71379148450E+02  0.46050038709E+03  0.51001392454E+03  0.17267587926E+03 0.  0.
         24    2    3    3    0    0 -0.57930627782E+01 -0.15616912635E+02  0.15504475178E+03  0.17424530683E+03  0.77750269189E+02 0.  0.
         -6    2    1    2    0  502  0.11463705600E+03 -0.71379148450E+02  0.63991516761E+03  0.67663930318E+03  0.17353007646E+03 0.  0.
        -24    2    5    5    0    0  0.30654123074E+02 -0.83715002579E+02  0.23971507812E+03  0.26750911858E+03  0.78421508091E+02 0.  0.
          5    1    3    3  501    0 -0.10884399322E+03  0.86996061085E+02  0.30545563530E+03  0.33576861772E+03  0.47000000000E+01 0. -1.
        -11    1    4    4    0    0  0.33893748619E+01  0.25641571329E+02  0.19868932975E+02  0.32615219450E+02  0.00000000000E+00 0.  1.
         12    1    4    4    0    0 -0.91824376401E+01 -0.41258483964E+02  0.13517581881E+03  0.14163008738E+03  0.00000000000E+00 0. -1.
         -5    1    5    5    0  502  0.83982932925E+02  0.12335854129E+02  0.40020008949E+03  0.40913018460E+03  0.47000000000E+01 0.  1.
         11    1    6    6    0    0  0.42118056933E+02 -0.11533559544E+02  0.67094002425E+02  0.80053475109E+02  0.00000000000E+00 0. -1.
        -12    1    6    6    0    0 -0.11463933859E+02 -0.72181443035E+02  0.17262107569E+03  0.18745564348E+03  0.00000000000E+00 0.  1.
</event>
<event>
12    1  0.8356052E-002  0.2625411E+03  0.7818608E-02  0.1105687E+00
         21   -1    0    0  503  502  0.00000000000E+00  0.00000000000E+00  0.67513136008E+03  0.67513136008E+03  0.00000000000E+00 0.  1.
         21   -1    0    0  501  503 -0.00000000000E+00 -0.00000000000E+00 -0.10525204825E+03  0.10525204825E+03  0.00000000000E+00 0. -1.
          6    2    1    2  501    0 -0.14917023128E+03  0.13028768427E+03  0.21547119456E+03  0.33932451078E+03  0.17171677075E+03 0.  0.
         24    2    3    3    0    0 -0.15636164673E+03  0.12012072608E+03  0.12547731999E+03  0.24835159747E+03  0.84000028171E+02 0.  0.
         -6    2    1    2    0  502  0.14917023128E+03 -0.13028768427E+03  0.35440811727E+03  0.44105889755E+03  0.17234035787E+03 0.  0.
        -24    2    5    5    0    0  0.15308259371E+03 -0.15483083753E+03  0.28794489637E+03  0.36994544816E+03  0.80873373397E+02 0.  0.
          5    1    3    3  501    0  0.71914154572E+01  0.10166958195E+02  0.89993874569E+02  0.90972913305E+02  0.47000000000E+01 0. -1.
        -11    1    4    4    0    0 -0.11141331699E+03  0.39234101799E+02  0.92805178324E+02  0.15021665377E+03  0.00000000000E+00 0.  1.
         12    1    4    4    0    0 -0.44948329743E+02  0.80886624279E+02  0.32672141663E+02  0.98134943699E+02  0.00000000000E+00 0. -1.
         -5    1    5    5    0  502 -0.39123624293E+01  0.24543153260E+02  0.66463220899E+02  0.71113449389E+02  0.47000000000E+01 0.  1.
         11    1    6    6    0    0  0.33567300859E+02 -0.88424012475E+02  0.13447435143E+03  0.16440474708E+03  0.00000000000E+00 0. -1.
        -12    1    6    6    0    0  0.11951529285E+03 -0.66406825058E+02  0.15347054494E+03  0.20554070109E+03  0.00000000000E+00 0.  1.
</event>
<event>
12    1  0.8356052E-002  0.1961675E+03  0.7818608E-02  0.1153666E+00
         21   -1    0    0  501  502  0.00000000000E+00  0.00000000000E+00  0.10682701264E+03  0.10682701264E+03  0.00000000000E+00 0. -1.
         21   -1    0    0  502  503 -0.00000000000E+00 -0.00000000000E+00 -0.41188031021E+03  0.41188031021E+03  0.00000000000E+00 0. -1.
         -6    2    1    2    0  503 -0.56760099378E+02  0.66258354769E+02 -0.25012652656E+03  0.31787571396E+03  0.17569806993E+03 0.  0.
        -24    2    3    3    0    0 -0.83083479978E+02  0.60890702707E+01 -0.95661215719E+02  0.14996238686E+03  0.79985672832E+02 0.  0.
          6    2    1    2  501    0  0.56760099378E+02 -0.66258354769E+02 -0.54926771006E+02  0.20083160889E+03  0.17234995357E+03 0.  0.
         24    2    5    5    0    0  0.66275900880E+02  0.11178179480E+01 -0.78032599798E+02  0.12881724607E+03  0.78173215990E+02 0.  0.
          5    1    5    5  501    0 -0.95158015025E+01 -0.67376172717E+02  0.23105828791E+02  0.72014362820E+02  0.47000000000E+01 0. -1.
        -13    1    6    6    0    0  0.10617773551E+02  0.34781987690E+02 -0.19262623770E+02  0.41153037037E+02  0.00000000000E+00 0.  1.
         14    1    6    6    0    0  0.55658127330E+02 -0.33664169742E+02 -0.58769976028E+02  0.87664209029E+02  0.00000000000E+00 0. -1.
         -5    1    3    3    0  503  0.26323380600E+02  0.60169284498E+02 -0.15446531084E+03  0.16791332710E+03  0.47000000000E+01 0.  1.
         11    1    4    4    0    0 -0.52108433091E+02 -0.32875134763E+02 -0.72256878422E+02  0.94958516017E+02  0.00000000000E+00 0. -1.
        -12    1    4    4    0    0 -0.30975046887E+02  0.38964205034E+02 -0.23404337298E+02  0.55003870845E+02  0.00000000000E+00 0.  1.
</event>
<event>
12    1  0.8356052E-002  0.2174340E+03  0.7818608E-02  0.1136448E+00
         21   -1    0    0  503  502  0.00000000000E+00  0.00000000000E+00  0.48647108499E+02  0.48647108499E+02  0.00000000000E+00 0.  1.
         21   -1    0    0  501  503 -0.00000000000E+00 -0.00000000000E+00 -0.11382398404E+04  0.11382398404E+04  0.00000000000E+00 0.  1.
          6    2    1    2  501    0  0.19654637635E+01 -0.12656595219E+03 -0.77806339907E+03  0.80698158057E+03  0.17266677477E+03 0.  0.
         24    2    3    3    0    0 -0.26285508594E+01 -0.15785570797E+03 -0.58680577499E+03  0.61306994462E+03  0.81168994198E+02 0.  0.
         -6    2    1    2    0  502 -0.19654637635E+01  0.12656595219E+03 -0.31152933285E+03  0.37990536834E+03  0.17679015915E+03 0.  0.
        -24    2    5    5    0    0 -0.24922636256E+02  0.97725160931E+02 -0.31895437067E+03  0.34201019456E+03  0.71188044895E+02 0.  0.
          5    1    3    3  501    0  0.45940146229E+01  0.31289755788E+02 -0.19125762408E+03  0.19391163595E+03  0.47000000000E+01 0. -1.
        -13    1    4    4    0    0  0.34445096922E+02 -0.10931805650E+03 -0.33914565379E+03  0.35798977173E+03  0.00000000000E+00 0.  1.
         14    1    4    4    0    0 -0.37073647781E+02 -0.48537651476E+02 -0.24766012120E+03  0.25508017289E+03  0.00000000000E+00 0. -1.
         -5    1    5    5    0  502  0.22957172493E+02  0.28840791256E+02  0.74250378263E+01  0.37895173781E+02  0.47000000000E+01 0.  1.
         13    1    6    6    0    0  0.20485137446E+02  0.34798595974E+02 -0.16151009026E+03  0.16648150766E+03  0.00000000000E+00 0. -1.
        -14    1    6    6    0    0 -0.45407773702E+02  0.62926564957E+02 -0.15744428042E+03  0.17552868690E+03  0.00000000000E+00 0.  1.
</event>
<event>
12    1  0.8356052E-002  0.2484173E+03  0.7818608E-02  0.1114425E+00
         21   -1    0    0  501  502  0.00000000000E+00  0.00000000000E+00  0.20084875224E+04  0.20084875224E+04  0.00000000000E+00 0.  1.
         21   -1    0    0  502  503 -0.00000000000E+00 -0.00000000000E+00 -0.32801373971E+02  0.32801373971E+02  0.00000000000E+00 0.  1.
         -6    2    1    2    0  503 -0.17818851307E+03 -0.86872895625E+01  0.72420721371E+03  0.76539285926E+03  0.17182411185E+03 0.  0.
        -24    2    3    3    0    0 -0.25321306695E+02 -0.38066664730E+02  0.24049571507E+03  0.25722907228E+03  0.78983334470E+02 0.  0.
          6    2    1    2  501    0  0.17818851307E+03  0.86872895625E+01  0.12514789347E+04  0.12758960371E+04  0.17287150805E+03 0.  0.
         24    2    5    5    0    0  0.64480746168E+02 -0.16103534636E+02  0.89068582163E+03  0.89676835193E+03  0.80343971301E+02 0.  0.
          5    1    5    5  501    0  0.11370776690E+03  0.24790824199E+02  0.36079311304E+03  0.37912768514E+03  0.47000000000E+01 0. -1.
        -13    1    6    6    0    0  0.67255908221E+02 -0.30161433294E+02  0.46199013769E+03  0.46783325723E+03  0.00000000000E+00 0.  1.
         14    1    6    6    0    0 -0.27751620534E+01  0.14057898657E+02  0.42869568394E+03  0.42893509470E+03  0.00000000000E+00 0. -1.
         -5    1    3    3    0  503 -0.15286720638E+03  0.29379375168E+02  0.48371149864E+03  0.50816378697E+03  0.47000000000E+01 0.  1.
         13    1    4    4    0    0  0.20450583802E+01 -0.24737949079E+02  0.21792559707E+03  0.21933470826E+03  0.00000000000E+00 0. -1.
        -14    1    4    4    0    0 -0.27366365075E+02 -0.13328715651E+02  0.22570118001E+02  0.37894364026E+02  0.00000000000E+00 0.  1.
</event>
<event>
12    1  0.8356052E-002  0.2234071E+03  0.7818608E-02  0.1131657E+00
         21   -1    0    0  501  502  0.00000000000E+00  0.00000000000E+00  0.27087472459E+04  0.27087472459E+04  0.00000000000E+00 0. -1.
         21   -1    0    0  502  503 -0.00000000000E+00 -0.00000000000E+00 -0.23504416851E+02  0.23504416851E+02  0.00000000000E+00 0.  1.
         -6    2    1    2    0  503 -0.13792176198E+03 -0.12158994048E+02  0.69585378871E+03  0.73035768886E+03  0.17331937243E+03 0.  0.
        -24    2    3    3    0    0 -0.13534381474E+03  0.22670811630E+02  0.66406318545E+03  0.68289724606E+03  0.80850606156E+02 0.  0.
          6    2    1    2  501    0  0.13792176198E+03  0.12158994048E+02  0.19893890404E+04  0.20018939739E+04  0.17532961900E+03 0.  0.
         24    2    5    5    0    0  0.33092221187E+02 -0.25235291200E+01  0.14295537368E+04  0.14321199256E+04  0.79007160148E+02 0.  0.
          5    1    5    5  501    0  0.10482954079E+03  0.14682523168E+02  0.55983530351E+03  0.56977404835E+03  0.47000000000E+01 0. -1.
        -11    1    6    6    0    0  0.14253922047E+02  0.37902279809E+02  0.76534681814E+03  0.76641732048E+03  0.00000000000E+00 0.  1.
         12    1    6    6    0    0  0.18838299140E+02 -0.40425808929E+02  0.66420691871E+03  0.66570260507E+03  0.00000000000E+00 0. -1.
         -5    1    3    3    0  503 -0.25779472343E+01 -0.34829805679E+02  0.31790603256E+02  0.47460442802E+02  0.47000000000E+01 0.  1.
         13    1    4    4    0    0 -0.62316922691E+02 -0.12902548770E+00  0.47299153422E+03  0.47707903637E+03  0.00000000000E+00 0. -1.
        -14    1    4    4    0    0 -0.73026892053E+02  0.22799837118E+02  0.19107165124E+03  0.20581820969E+03  0.00000000000E+00 0.  1.
</event>
<event>
12    1  0.8356052E-002  0.1836008E+03  0.7818608E-02  0.1165751E+00
         21   -1    0    0  503  502  0.00000000000E+00  0.00000000000E+00  0.15547073081E+03  0.15547073081E+03  0.00000000000E+00 0. -1.
         21   -1    0    0  501  503 -0.00000000000E+00 -0.00000000000E+00 -0.32905078073E+03  0.32905078073E+03  0.00000000000E+00 0. -1.
          6    2    1    2  501    0  0.37488816742E+01 -0.49040295305E+02 -0.23158655983E+03  0.29197539217E+03  0.17087507210E+03 0.  0.
         24    2    3    3    0    0 -0.59962306052E+02 -0.17115363055E+02 -0.16861055451E+03  0.19675783084E+03  0.79973189906E+02 0.  0.
         -6    2    1    2    0  502 -0.37488816742E+01  0.49040295305E+02  0.58006509908E+02  0.19254611936E+03  0.17689049780E+03 0.  0.
        -24    2    5    5    0    0 -0.56005656889E+02  0.40031536096E+02 -0.11230995152E+02  0.10520855353E+03  0.78762598978E+02 0.  0.
          5    1    3    3  501    0  0.63711187727E+02 -0.31924932250E+02 -0.62976005315E+02  0.95217561333E+02  0.47000000000E+01 0. -1.
        -11    1    4    4    0    0 -0.81198583041E+01  0.30137157635E+02 -0.54890842055E+02  0.63144159752E+02  0.00000000000E+00 0.  1.
         12    1    4    4    0    0 -0.51842447748E+02 -0.47252520690E+02 -0.11371971246E+03  0.13361367109E+03  0.00000000000E+00 0. -1.
         -5    1    5    5    0  502  0.52256775215E+02  0.90087592090E+01  0.69237505059E+02  0.87337565831E+02  0.47000000000E+01 0.  1.
         11    1    6    6    0    0  0.73147288942E-01  0.26583819436E+02  0.25499096394E+02  0.36836241981E+02  0.00000000000E+00 0. -1.
        -12    1    6    6    0    0 -0.56078804178E+02  0.13447716660E+02 -0.36730091546E+02  0.68372311548E+02  0.00000000000E+00 0.  1.
</event>
<event>
12    1  0.8356052E-002  0.2019150E+03  0.7818608E-02  0.1148270E+00
         21   -1    0    0  503  502  0.00000000000E+00  0.00000000000E+00  0.31377362384E+03  0.31377362384E+03  0.00000000000E+00 0. -1.
         21   -1    0    0  501  503 -0.00000000000E+00 -0.00000000000E+00 -0.23073529631E+03  0.23073529631E+03  0.00000000000E+00 0. -1.
          6    2    1    2  501    0 -0.10500767192E+03 -0.72249820106E+01 -0.13876784881E+03  0.24500244289E+03  0.17231038748E+03 0.  0.
         24    2    3    3    0    0 -0.40842780310E+02 -0.49108390541E+02 -0.21267978724E+02  0.10464695602E+03  0.80117986497E+02 0.  0.
         -6    2    1    2    0  502  0.10500767192E+03  0.72249820106E+01  0.22180617633E+03  0.29950647725E+03  0.17154398423E+03 0.  0.
        -24    2    5    5    0    0  0.13080451642E+03  0.36754267572E+02  0.15315209647E+03  0.22030465546E+03  0.81350346433E+02 0.  0.
          5    1    3    3  501    0 -0.64164891613E+02  0.41883408530E+02 -0.11749987008E+03  0.14035548687E+03  0.47000000000E+01 0. -1.
        -13    1    4    4    0    0 -0.13747363904E+02  0.22236910195E+02 -0.57461061910E+01  0.26767292088E+02  0.00000000000E+00 0.  1.
         14    1    4    4    0    0 -0.27095416405E+02 -0.71345300736E+02 -0.15521872533E+02  0.77879663933E+02  0.00000000000E+00 0. -1.
         -5    1    5    5    0  502 -0.25796844500E+02 -0.29529285561E+02  0.68654079869E+02  0.79201821788E+02  0.47000000000E+01 0.  1.
         13    1    6    6    0    0  0.11913337061E+03  0.50755131540E+02  0.15501026837E+03  0.20198273855E+03  0.00000000000E+00 0. -1.
        -14    1    6    6    0    0  0.11671145816E+02 -0.14000863968E+02 -0.18581719095E+01  0.18321916913E+02  0.00000000000E+00 0.  1.
</event>
<event>
12    1  0.8356052E-002  0.2799212E+03  0.7818608E-02  0.1095741E+00
         21   -1    0    0  503  502  0.00000000000E+00  0.00000000000E+00  0.10825718820E+04  0.10825718820E+04  0.00000000000E+00 0. -1.
         21   -1    0    0  501  503 -0.00000000000E+00 -0.00000000000E+00 -0.80554806738E+02  0.80554806738E+02  0.00000000000E+00 0. -1.
          6    2    1    2  501    0 -0.17898245820E+03  0.12873259915E+03  0.68641246940E+03  0.74127109933E+03  0.17237738288E+03 0.  0.
         24    2    3    3    0    0 -0.19735901691E+03  0.82049550984E+02  0.53244731345E+03  0.57926997543E+03  0.79817620053E+02 0.  0.
         -6    2    1    2    0  502  0.17898245820E+03 -0.12873259915E+03  0.31560460585E+03  0.42185558940E+03  0.17247918322E+03 0.  0.
        -24    2    5    5    0    0  0.18287042929E+03 -0.88887272319E+02  0.18844730482E+03  0.28846205284E+03  0.79720939184E+02 0.  0.
          5    1    3    3  501    0  0.18376558710E+02  0.46683048166E+02  0.15396515595E+03  0.16200112389E+03  0.47000000000E+01 0. -1.
        -13    1    4    4    0    0 -0.25059352123E+02  0.24760744016E+00  0.14803380470E+03  0.15014006718E+03  0.00000000000E+00 0.  1.
         14    1    4    4    0    0 -0.17229966479E+03  0.81801943543E+02  0.38441350875E+03  0.42912990825E+03  0.00000000000E+00 0. -1.
         -5    1    5    5    0  502 -0.38879710942E+01 -0.39845326831E+02  0.12715730103E+03  0.13339353656E+03  0.47000000000E+01 0.  1.
         11    1    6    6    0    0  0.13674356927E+03 -0.99540771064E+02  0.16215144810E+03  0.23430804716E+03  0.00000000000E+00 0. -1.
        -12    1    6    6    0    0  0.46126860020E+02  0.10653498744E+02  0.26295856717E+02  0.54154005681E+02  0.00000000000E+00 0.  1.
</event>
<event>
12    1  0.8356052E-002  0.1933119E+03  0.7818608E-02  0.1156945E+00
         21   -1    0    0  501  502  0.00000000000E+00  0.00000000000E+00  0.14362607522E+03  0.14362607522E+03  0.00000000000E+00 0.  1.
         21   -1    0    0  502  503 -0.00000000000E+00 -0.00000000000E+00 -0.27828752873E+03  0.27828752873E+03  0.00000000000E+00 0.  1.
         -6    2    1    2    0  503  0.48051948514E+02 -0.74589168800E+02 -0.30871947336E+01  0.19333656121E+03  0.17174679407E+03 0.  0.
        -24    2    3    3    0    0  0.98807975509E+02 -0.47509970071E+02 -0.59296610227E+01  0.13554705616E+03  0.79483522018E+02 0.  0.
          6    2    1    2  501    0 -0.48051948514E+02  0.74589168800E+02 -0.13157425877E+03  0.22857704274E+03  0.16450879927E+03 0.  0.
         24    2    5    5    0    0 -0.39660581823E+02  0.11242309733E+03 -0.87443697199E+02  0.16965830507E+03  0.83220344474E+02 0.  0.
          5    1    5    5  501    0 -0.83913666914E+01 -0.37833928535E+02 -0.44130561576E+02  0.58918737667E+02  0.47000000000E+01 0. -1.
        -11    1    6    6    0    0  0.15876241073E+02 -0.40209988143E+01 -0.97952587140E+01  0.19083253270E+02  0.00000000000E+00 0.  1.
         12    1    6    6    0    0 -0.55536822896E+02  0.11644409615E+03 -0.77648438485E+02  0.15057505180E+03  0.00000000000E+00 0. -1.
         -5    1    3    3    0  503 -0.50756026994E+02 -0.27079198729E+02  0.28424662890E+01  0.57789505056E+02  0.47000000000E+01 0.  1.
         11    1    4    4    0    0  0.87442317361E+02 -0.61380815502E+02 -0.24630396080E+02  0.10963767504E+03  0.00000000000E+00 0. -1.
        -12    1    4    4    0    0  0.11365658147E+02  0.13870845431E+02  0.18700735058E+02  0.25909381116E+02  0.00000000000E+00 0.  1.
</event>
<event>
12    1  0.8356052E-002  0.2165547E+03  0.7818608E-02  0.1136607E+00
         21   -1    0    0  503  502  0.00000000000E+00  0.00000000000E+00  0.10718326091E+03  0.10718326091E+03  0.00000000000E+00 0.  1.
         21   -1    0    0  501  503 -0.00000000000E+00 -0.00000000000E+00 -0.52755745676E+03  0.52755745676E+03  0.00000000000E+00 0.  1.
          6    2    1    2  501    0  0.42685000962E+02 -0.12475144476E+03 -0.34201269780E+03  0.40444420508E+03  0.17093126482E+03 0.  0.
         24    2    3    3    0    0  0.60681738686E+02 -0.95714891739E+02 -0.34387272187E+03  0.36991083471E+03  0.75775740682E+02 0.  0.
         -6    2    1    2    0  502 -0.42685000962E+02  0.12475144476E+03 -0.78361498043E+02  0.23029651258E+03  0.17178773837E+03 0.  0.
        -24    2    5    5    0    0  0.22996609005E+02  0.11904260720E+03 -0.26685608324E+02  0.14639685649E+03  0.77588217809E+02 0.  0.
          5    1    3    3  501    0 -0.17996737724E+02 -0.29036553024E+02  0.18600240679E+01  0.34533370379E+02  0.47000000000E+01 0. -1.
        -13    1    4    4    0    0  0.65660342133E+02 -0.33417420979E+02 -0.17715098981E+03  0.19186056850E+03  0.00000000000E+00 0.  1.
         14    1    4    4    0    0 -0.49786034475E+01 -0.62297470759E+02 -0.16672173206E+03  0.17805026621E+03  0.00000000000E+00 0. -1.
         -5    1    5    5    0  502 -0.65681609967E+02  0.57088375588E+01 -0.51675889719E+02  0.83899656092E+02  0.47000000000E+01 0.  1.
         11    1    6    6    0    0 -0.10751052025E+02 -0.27366025341E+01  0.98678277747E+01  0.14847496020E+02  0.00000000000E+00 0. -1.
        -12    1    6    6    0    0  0.33747661029E+02  0.12177920974E+03 -0.36553436098E+02  0.13154936047E+03  0.00000000000E+00 0.  1.
</event>
<event>
12    1  0.8356052E-002  0.1762289E+03  0.7818608E-02  0.1171567E+00
         21   -1    0    0  503  502  0.00000000000E+00  0.00000000000E+00  0.39794219889E+03  0.39794219889E+03  0.00000000000E+00 0.  1.
         21   -1    0    0  501  503 -0.00000000000E+00 -0.00000000000E+00 -0.92668357435E+02  0.92668357435E+02  0.00000000000E+00 0.  1.
          6    2    1    2  501    0 -0.22890869003E+02  0.32756121756E+02  0.25037206181E+03  0.30602765661E+03  0.17137619986E+03 0.  0.
         24    2    3    3    0    0  0.53824456137E+02  0.24201578040E+02  0.14348607621E+03  0.17409917126E+03  0.78990372256E+02 0.  0.
         -6    2    1    2    0  502  0.22890869003E+02 -0.32756121756E+02  0.54901779647E+02  0.18458289971E+03  0.17163824184E+03 0.  0.
        -24    2    5    5    0    0  0.20870246915E+02 -0.10889396440E+02  0.10299511926E+03  0.13150469416E+03  0.78302898004E+02 0.  0.
          5    1    3    3  501    0 -0.76715325140E+02  0.85545437164E+01  0.10688598560E+03  0.13192848535E+03  0.47000000000E+01 0. -1.
        -13    1    4    4    0    0  0.27081884668E+02  0.44793053213E+02  0.12522420045E+03  0.13572378742E+03  0.00000000000E+00 0.  1.
         14    1    4    4    0    0  0.26742571469E+02 -0.20591475174E+02  0.18261875761E+02  0.38375383840E+02  0.00000000000E+00 0. -1.
         -5    1    5    5    0  502  0.20206220879E+01 -0.21866725316E+02 -0.48093339608E+02  0.53078205549E+02  0.47000000000E+01 0.  1.
         11    1    6    6    0    0  0.49224354133E+01  0.11032570706E+02 -0.97635634642E+01  0.15533034421E+02  0.00000000000E+00 0. -1.
        -12    1    6    6    0    0  0.15947811502E+02 -0.21921967146E+02  0.11275868272E+03  0.11597165974E+03  0.00000000000E+00 0.  1.
</event>
<event>
12    1  0.8356052E-002  0.2113170E+03  0.7818608E-02  0.1140639E+00
         21   -1    0    0  501  502  0.00000000000E+00  0.00000000000E+00  0.52846964961E+02  0.52846964961E+02  0.00000000000E+00 0.  1.
         21   -1    0    0  502  503 -0.00000000000E+00 -0.00000000000E+00 -0.15578148521E+04  0.15578148521E+04  0.00000000000E+00 0.  1.
         -6    2    1    2    0  503 -0.12268778028E+03  0.14340409316E+01 -0.12986616815E+04  0.13157420068E+04  0.17204800909E+03 0.  0.
        -24    2    3    3    0    0 -0.60855648098E+02  0.61243442993E+02 -0.91278625084E+03  0.92036583760E+03  0.80251891479E+02 0.  0.
          6    2    1    2  501    0  0.12268778028E+03 -0.14340409316E+01 -0.20630620569E+03  0.29491981036E+03  0.17135079846E+03 0.  0.
         24    2    5    5    0    0  0.36738737178E+02  0.50520191889E+02 -0.14499594679E+03  0.17715938337E+03  0.80371623918E+02 0.  0.
          5    1    5    5  501    0  0.85949043106E+02 -0.51954232821E+02 -0.61310258896E+02  0.11776042699E+03  0.47000000000E+01 0. -1.
        -11    1    6    6    0    0  0.56753774830E+02  0.15829092967E+02 -0.65212945829E+02  0.87887879968E+02  0.00000000000E+00 0.  1.
         12    1    6    6    0    0 -0.20015037652E+02  0.34691098922E+02 -0.79783000961E+02  0.89271503399E+02  0.00000000000E+00 0. -1.
         -5    1    3    3    0  503 -0.61832132187E+02 -0.59809402061E+02 -0.38587543066E+03  0.39537616916E+03  0.47000000000E+01 0.  1.
         11    1    4    4    0    0  0.45076832922E+01  0.12694142102E+02 -0.46767476649E+03  0.46786872909E+03  0.00000000000E+00 0. -1.
        -12    1    4    4    0    0 -0.65363331390E+02  0.48549300891E+02 -0.44511148435E+03  0.45249710850E+03  0.00000000000E+00 0.  1.
</event>
<event>
12    1  0.8356052E-002  0.1746125E+03  0.7818608E-02  0.1173351E+00
         21   -1    0    0  501  502  0.00000000000E+00  0.00000000000E+00  0.37113760965E+02  0.37113760965E+02  0.00000000000E+00 0. -1.
         21   -1    0    0  502  503 -0.00000000000E+00 -0.00000000000E+00 -0.83765334958E+03  0.83765334958E+03  0.00000000000E+00 0.  1.
         -6    2    1    2    0  503  0.37109665926E+01  0.22906443753E+02 -0.33096028221E+03  0.37377383451E+03  0.17214440022E+03 0.  0.
        -24    2    3    3    0    0 -0.26587780132E+02 -0.23119219320E+02 -0.87142661323E+02  0.12376283881E+03  0.80510797377E+02 0.  0.
          6    2    1    2  501    0 -0.37109665926E+01 -0.22906443753E+02 -0.46957930640E+03  0.50099327603E+03  0.17306374892E+03 0.  0.
         24    2    5    5    0    0 -0.62291162484E+02  0.15548961323E+02 -0.30160462624E+03  0.31892724212E+03  0.81408083581E+02 0.  0.
          5    1    5    5  501    0  0.58580195892E+02 -0.38455405076E+02 -0.16797468016E+03  0.18206603391E+03  0.47000000000E+01 0. -1.
        -13    1    6    6    0    0  0.32243980405E+01 -0.85945367306E+01 -0.16734875546E+03  0.16760032445E+03  0.00000000000E+00 0.  1.
         14    1    6    6    0    0 -0.65515560525E+02  0.24143498054E+02 -0.13425587079E+03  0.15132691766E+03  0.00000000000E+00 0. -1.
         -5    1    3    3    0  503  0.30298746725E+02  0.46025663073E+02 -0.24381762089E+03  0.25001099570E+03  0.47000000000E+01 0.  1.
         13    1    4    4    0    0 -0.26117506635E+02  0.23750072341E+02 -0.59957933740E+02  0.69578329295E+02  0.00000000000E+00 0. -1.
        -14    1    4    4    0    0 -0.47027349710E+00 -0.46869291661E+02 -0.27184727583E+02  0.54184509519E+02  0.00000000000E+00 0.  1.
</event>
<event>
12    1  0.8356052E-002  0.2312930E+03  0.7818608E-02  0.1125925E+00
         21   -1    0    0  501  502  0.00000000000E+00  0.00000000000E+00  0.39953993215E+03  0.39953993215E+03  0.00000000000E+00 0.  1.
         21   -1    0    0  502  503 -0.00000000000E+00 -0.00000000000E+00 -0.42379142631E+03  0.42379142631E+03  0.00000000000E+00 0.  1.
         -6    2    1    2    0  503 -0.99323071042E+02 -0.11716597444E+03 -0.35296756665E+03  0.42139766896E+03  0.17145540028E+03 0.  0.
        -24    2    3    3    0    0 -0.76544930158E+02 -0.83614870191E+01 -0.23103747128E+03  0.25633314115E+03  0.79995783101E+02 0.  0.
          6    2    1    2  501    0  0.99323071042E+02  0.11716597444E+03  0.32871607249E+03  0.40193368951E+03  0.17292627458E+03 0.  0.
         24    2    5    5    0    0  0.12343957830E+03  0.10900866626E+03  0.33002846662E+03  0.37601149868E+03  0.73113880669E+02 0.  0.
          5    1    5    5  501    0 -0.24116507263E+02  0.81573081753E+01 -0.13123941271E+01  0.25922190833E+02  0.47000000000E+01 0. -1.
        -13    1    6    6    0    0  0.95535747734E+02  0.40540771811E+02  0.16140649512E+03  0.19189239156E+03  0.00000000000E+00 0.  1.
         14    1    6    6    0    0  0.27903830571E+02  0.68467894452E+02  0.16862197150E+03  0.18411910711E+03  0.00000000000E+00 0. -1.
         -5    1    3    3    0  503 -0.22778140884E+02 -0.10880448742E+03 -0.12193009537E+03  0.16506452781E+03  0.47000000000E+01 0.  1.
         13    1    4    4    0    0 -0.93446695502E+02 -0.65886582686E+01 -0.18758415272E+03  0.20967477118E+03  0.00000000000E+00 0. -1.
        -14    1    4    4    0    0  0.16901765344E+02 -0.17728287505E+01 -0.43453318563E+02  0.46658369963E+02  0.00000000000E+00 0.  1.
</event>
<event>
12    1  0.8356052E-002  0.1769951E+03  0.7818608E-02  0.1171570E+00
         21   -1    0    0  501  502  0.00000000000E+00  0.00000000000E+00  0.25402314863E+03  0.25402314863E+03  0.00000000000E+00 0. -1.
         21   -1    0    0  502  503 -0.00000000000E+00 -0.00000000000E+00 -0.23746283037E+03  0.23746283037E+03  0.00000000000E+00 0. -1.
         -6    2    1    2    0  503 -0.20720170567E+02 -0.98518593625E+01 -0.16375255361E+03  0.24112688493E+03  0.17550182683E+03 0.  0.
        -24    2    3    3    0    0  0.21662035819E+02  0.55164154981E+01 -0.13669106612E+02  0.84348167134E+02  0.80175396398E+02 0.  0.
          6    2    1    2  501    0  0.20720170567E+02  0.98518593625E+01  0.18031287187E+03  0.25035909407E+03  0.17216433899E+03 0.  0.
         24    2    5    5    0    0  0.18601653869E+02 -0.60888977823E+02  0.11402515306E+03  0.15327713991E+03  0.80241242149E+02 0.  0.
          5    1    5    5  501    0  0.21185166986E+01  0.70740837185E+02  0.66287718811E+02  0.97081954162E+02  0.47000000000E+01 0. -1.
        -11    1    6    6    0    0  0.39476709072E+00 -0.93769545656E+01 -0.12400225904E+02  0.15551486117E+02  0.00000000000E+00 0.  1.
         12    1    6    6    0    0  0.18206886778E+02 -0.51512023257E+02  0.12642537897E+03  0.13772565379E+03  0.00000000000E+00 0. -1.
         -5    1    3    3    0  503 -0.42382206386E+02 -0.15368274861E+02 -0.15008344700E+03  0.15677871779E+03  0.47000000000E+01 0.  1.
         11    1    4    4    0    0 -0.24645074145E+02  0.17115294348E+02 -0.20192354132E+02  0.36166892950E+02  0.00000000000E+00 0. -1.
        -12    1    4    4    0    0  0.46307109964E+02 -0.11598878850E+02  0.65232475193E+01  0.48181274184E+02  0.00000000000E+00 0.  1.
</event>
<event>
12    1  0.8356052E-002  0.1893626E+03  0.7818608E-02  0.1159877E+00
         21   -1    0    0  503  502  0.00000000000E+00  0.00000000000E+00  0.64946761746E+03  0.64946761746E+03  0.00000000000E+00 0.  1.
         21   -1    0    0  501  503 -0.00000000000E+00 -0.00000000000E+00 -0.10773935752E+03  0.10773935752E+03  0.00000000000E+00 0.  1.
          6    2    1    2  501    0 -0.26731005200E+02  0.73925063299E+02  0.51793699510E+01  0.18943337183E+03  0.17227511389E+03 0.  0.
         24    2    3    3    0    0 -0.51299425390E+02  0.67351785495E+02 -0.51329581404E+02  0.12728703779E+03  0.79996062446E+02 0.  0.
         -6    2    1    2    0  502  0.26731005200E+02 -0.73925063299E+02  0.53654888999E+03  0.56777360314E+03  0.16823403775E+03 0.  0.
        -24    2    5    5    0    0 -0.53722816728E+02 -0.53265525636E+02  0.17845164459E+03  0.20013878281E+03  0.49871692068E+02 0.  0.
          5    1    3    3  501    0  0.24568420191E+02  0.65732778042E+01  0.56508951355E+02  0.62146334043E+02  0.47000000000E+01 0. -1.
        -13    1    4    4    0    0 -0.18357617712E+02  0.73611652107E+02 -0.54783431638E+02  0.93578319263E+02  0.00000000000E+00 0.  1.
         14    1    4    4    0    0 -0.32941807678E+02 -0.62598666124E+01  0.34538502340E+01  0.33708718524E+02  0.00000000000E+00 0. -1.
         -5    1    5    5    0  502  0.80453821927E+02 -0.20659537663E+02  0.35809724540E+03  0.36763482034E+03  0.47000000000E+01 0.  1.
         13    1    6    6    0    0 -0.52223156853E+02 -0.18019945823E+02  0.10452161009E+03  0.11822327832E+03  0.00000000000E+00 0. -1.
        -14    1    6    6    0    0 -0.14996598748E+01 -0.35245579813E+02  0.73930034493E+02  0.81915504492E+02  0.00000000000E+00 0.  1.
</event>
<event>
12    1  0.8356052E-002  0.2625812E+03  0.7818608E-02  0.1105631E+00
         21   -1    0    0  503  502  0.00000000000E+00  0.00000000000E+00  0.63668738503E+03  0.63668738503E+03  0.00000000000E+00 0. -1.
         21   -1    0    0  501  503 -0.00000000000E+00 -0.00000000000E+00 -0.11543231040E+03  0.11543231040E+03  0.00000000000E+00 0. -1.
          6    2    1    2  501    0  0.13149640964E+03  0.14855618626E+03  0.35458051384E+03  0.44110638248E+03  0.17171853028E+03 0.  0.
         24    2    3    3    0    0  0.16163465519E+03  0.11394499700E+03  0.27712812048E+03  0.35095533421E+03  0.85208141324E+02 0.  0.
         -6    2    1    2    0  502 -0.13149640964E+03 -0.14855618626E+03  0.16667456079E+03  0.31101331295E+03  0.17201344538E+03 0.  0.
        -24    2    5    5    0    0 -0.10506860997E+03 -0.71973253972E+02  0.32187068401E+02  0.15393896838E+03  0.80259806405E+02 0.  0.
          5    1    3    3  501    0 -0.30138245551E+02  0.34611189258E+02  0.77452393362E+02  0.90151048270E+02  0.47000000000E+01 0. -1.
        -11    1    4    4    0    0  0.67850239970E+02  0.80806712756E+01  0.13005859627E+03  0.14691559065E+03  0.00000000000E+00 0.  1.
         12    1    4    4    0    0  0.93784415223E+02  0.10586432573E+03  0.14706952421E+03  0.20403974356E+03  0.00000000000E+00 0. -1.
         -5    1    5    5    0  502 -0.26427799668E+02 -0.76582932288E+02  0.13448749239E+03  0.15707434457E+03  0.47000000000E+01 0.  1.
         11    1    6    6    0    0 -0.27212534772E+02 -0.65468326231E+02  0.44653279147E+01  0.71039164843E+02  0.00000000000E+00 0. -1.
        -12    1    6    6    0    0 -0.77856075203E+02 -0.65049277416E+01  0.27721740486E+02  0.82899803537E+02  0.00000000000E+00 0.  1.
</event>
<event>
12    1  0.8356052E-002  0.3078063E+03  0.7818608E-02  0.1081492E+00
         21   -1    0    0  501  502  0.00000000000E+00  0.00000000000E+00  0.26028533181E+03  0.26028533181E+03  0.00000000000E+00 0. -1.
         21   -1    0    0  502  503 -0.00000000000E+00 -0.00000000000E+00 -0.46436841716E+03  0.46436841716E+03  0.00000000000E+00 0. -1.
         -6    2    1    2    0  503  0.13940168610E+03  0.21297128282E+03 -0.27131834729E+03  0.41031493340E+03  0.17307542170E+03 0.  0.
        -24    2    3    3    0    0  0.97769978532E+02  0.16668834498E+03 -0.27749096533E+03  0.34758136484E+03  0.80421367140E+02 0.  0.
          6    2    1    2  501    0 -0.13940168610E+03 -0.21297128282E+03  0.67235261944E+02  0.31433881556E+03  0.17175189410E+03 0.  0.
         24    2    5    5    0    0 -0.17971984976E+02 -0.55034491534E+02 -0.17494978868E+02  0.97796657857E+02  0.76852615440E+02 0.  0.
          5    1    5    5  501    0 -0.12142970113E+03 -0.15793679129E+03  0.84730240812E+02  0.21654215771E+03  0.47000000000E+01 0. -1.
        -13    1    6    6    0    0 -0.89605583215E+01 -0.66682022512E+02 -0.34243648220E+02  0.75494444664E+02  0.00000000000E+00 0.  1.
         14    1    6    6    0    0 -0.90114266547E+01  0.11647530978E+02  0.16748669352E+02  0.22302213193E+02  0.00000000000E+00 0. -1.
         -5    1    3    3    0  503  0.41631707569E+02  0.46282937841E+02  0.61726180353E+01  0.62733568556E+02  0.47000000000E+01 0.  1.
         13    1    4    4    0    0  0.85716402285E+02  0.70476806087E+02 -0.16783840085E+03  0.20120638811E+03  0.00000000000E+00 0. -1.
        -14    1    4    4    0    0  0.12053576247E+02  0.96211538891E+02 -0.10965256448E+03  0.14637497673E+03  0.00000000000E+00 0.  1.
</event>
<event>
12    1  0.8356052E-002  0.3237737E+03  0.7818608E-02  0.1073936E+00
         21   -1    0    0  501  502  0.00000000000E+00  0.00000000000E+00  0.68587576180E+02  0.68587576180E+02  0.00000000000E+00 0. -1.
         21   -1    0    0  502  503 -0.00000000000E+00 -0.00000000000E+00 -0.17983455473E+04  0.17983455473E+04  0.00000000000E+00 0. -1.
         -6    2    1    2    0  503  0.17339856995E+03  0.21406139530E+03 -0.12269307642E+04  0.12689320351E+04  0.17011779604E+03 0.  0.
        -24    2    3    3    0    0  0.68477887126E+02  0.10869368693E+03 -0.85538773249E+03  0.86871082368E+03  0.80416314770E+02 0.  0.
          6    2    1    2  501    0 -0.17339856995E+03 -0.21406139530E+03 -0.50282720698E+03  0.59800108845E+03  0.16994339258E+03 0.  0.
         24    2    5    5    0    0 -0.19055229933E+03 -0.22246249556E+03 -0.46428884970E+03  0.55473304136E+03  0.79780138555E+02 0.  0.
          5    1    5    5  501    0  0.17153729375E+02  0.84011002544E+01 -0.38538357283E+02  0.43268047091E+02  0.47000000000E+01 0. -1.
        -11    1    6    6    0    0 -0.15280153822E+03 -0.12025315072E+03 -0.30670055827E+03  0.36314509880E+03  0.00000000000E+00 0.  1.
         12    1    6    6    0    0 -0.37750761109E+02 -0.10220934484E+03 -0.15758829143E+03  0.19158794256E+03  0.00000000000E+00 0. -1.
         -5    1    3    3    0  503  0.10492068283E+03  0.10536770837E+03 -0.37154303167E+03  0.40022121138E+03  0.47000000000E+01 0.  1.
         11    1    4    4    0    0  0.40745344818E+02  0.19289501388E+01 -0.20203977908E+03  0.20611641444E+03  0.00000000000E+00 0. -1.
        -12    1    4    4    0    0  0.27732542309E+02  0.10676473679E+03 -0.65334795341E+03  0.66259440924E+03  0.00000000000E+00 0.  1.
</event>
<event>
12    1  0.8356052E-002  0.2052339E+03  0.7818608E-02  0.1145790E+00
         21   -1    0    0  503  502  0.00000000000E+00  0.00000000000E+00  0.75310823029E+03  0.75310823029E+03  0.00000000000E+00 0.  1.
         21   -1    0    0  501  503 -0.00000000000E+00 -0.00000000000E+00 -0.73999331183E+02  0.73999331183E+02  0.00000000000E+00 0.  1.
          6    2    1    2  501    0 -0.56425653688E+02  0.92097610776E+02  0.13346237645E+03  0.24481251964E+03  0.17451400958E+03 0.  0.
         24    2    3    3    0    0 -0.87763989963E+02  0.92847914260E+02  0.14582627295E+03  0.21078884829E+03  0.82724745777E+02 0.  0.
         -6    2    1    2    0  502  0.56425653688E+02 -0.92097610776E+02  0.54564652265E+03  0.58229504183E+03  0.17225435772E+03 0.  0.
        -24    2    5    5    0    0 -0.35895408149E+02 -0.34624758614E+02  0.26308635343E+03  0.27949371022E+03  0.80093385844E+02 0.  0.
          5    1    3    3  501    0  0.31338336275E+02 -0.75030348380E+00 -0.12363896496E+02  0.34023671353E+02  0.47000000000E+01 0. -1.
        -11    1    4    4    0    0 -0.39501120325E+02  0.92074197525E+02  0.75325279569E+02  0.12534709450E+03  0.00000000000E+00 0.  1.
         12    1    4    4    0    0 -0.48262869637E+02  0.77371673483E+00  0.70500993381E+02  0.85441753791E+02  0.00000000000E+00 0. -1.
         -5    1    5    5    0  502  0.92321061836E+02 -0.57472852162E+02  0.28256016922E+03  0.30280133161E+03  0.47000000000E+01 0.  1.
         13    1    6    6    0    0 -0.47746868448E+02  0.40832191945E+01  0.92575465488E+02  0.10424323928E+03  0.00000000000E+00 0. -1.
        -14    1    6    6    0    0  0.11851460299E+02 -0.38707977808E+02  0.17051088794E+03  0.17525047094E+03  0.00000000000E+00 0.  1.
</event>
<event>
12    1  0.8356052E-002  0.2263781E+03  0.7818608E-02  0.1129618E+00
         21   -1    0    0  503  502  0.00000000000E+00  0.00000000000E+00  0.13817564188E+04  0.13817564188E+04  0.00000000000E+00 0.  1.
         21   -1    0    0  501  503 -0.00000000000E+00 -0.00000000000E+00 -0.37395831648E+02  0.37395831648E+02  0.00000000000E+00 0. -1.
          6    2    1    2  501    0 -0.14165159866E+03 -0.13805400839E+02  0.76403077604E+03  0.79623194082E+03  0.17316614086E+03 0.  0.
         24    2    3    3    0    0 -0.57936254528E+02  0.24359512785E+02  0.59349292923E+03  0.60240194657E+03  0.81879501289E+02 0.  0.
         -6    2    1    2    0  502  0.14165159866E+03  0.13805400839E+02  0.58032981106E+03  0.62292030959E+03  0.17604334123E+03 0.  0.
        -24    2    5    5    0    0  0.76164184508E+02  0.14413023481E+02  0.14330107817E+03  0.18098685986E+03  0.78818311249E+02 0.  0.
          5    1    3    3  501    0 -0.83715344128E+02 -0.38164913624E+02  0.17053784682E+03  0.19382999425E+03  0.47000000000E+01 0. -1.
        -13    1    4    4    0    0 -0.36146352002E+02 -0.22081360198E+02  0.39956498069E+03  0.40180383153E+03  0.00000000000E+00 0.  1.
         14    1    4    4    0    0 -0.21789902526E+02  0.46440872982E+02  0.19392794853E+03  0.20059811504E+03  0.00000000000E+00 0. -1.
         -5    1    5    5    0  502  0.65487414147E+02 -0.60762264159E+00  0.43702873289E+03  0.44193344973E+03  0.47000000000E+01 0.  1.
         13    1    6    6    0    0  0.81319345146E+02  0.11228812246E+01  0.14537948881E+03  0.16658118899E+03  0.00000000000E+00 0. -1.
        -14    1    6    6    0    0 -0.51551606379E+01  0.13290142256E+02 -0.20784106409E+01  0.14405670869E+02  0.00000000000E+00 0.  1.
</event>
<event>
12    1  0.8356052E-002  0.1950589E+03  0.7818608E-02  0.1155245E+00
         21   -1    0    0  503  502  0.00000000000E+00  0.00000000000E+00  0.11744867696E+03  0.11744867696E+03  0.00000000000E+00 0.  1.
         21   -1    0    0  501  503 -0.00000000000E+00 -0.00000000000E+00 -0.41306098327E+03  0.41306098327E+03  0.00000000000E+00 0. -1.
          6    2    1    2  501    0 -0.87277370391E+01  0.77181161493E+02 -0.27568490250E+03  0.33443551858E+03  0.17266107128E+03 0.  0.
         24    2    3    3    0    0 -0.30504455262E+02 -0.88006763491E+01 -0.73825449452E+02  0.11389883074E+03  0.80714143514E+02 0.  0.
         -6    2    1    2    0  502  0.87277370391E+01 -0.77181161493E+02 -0.19927403811E+02  0.19607414166E+03  0.17892697538E+03 0.  0.
        -24    2    5    5    0    0  0.45244532356E+02 -0.49357149523E+01 -0.51160310706E+02  0.10918072787E+03  0.85038961404E+02 0.  0.
          5    1    3    3  501    0  0.21776718223E+02  0.85981837842E+02 -0.20185945305E+03  0.22053668783E+03  0.47000000000E+01 0. -1.
        -11    1    4    4    0    0 -0.56825295099E+02 -0.13764563961E+02 -0.40413982931E+02  0.71076489787E+02  0.00000000000E+00 0.  1.
         12    1    4    4    0    0  0.26320839837E+02  0.49638876123E+01 -0.33411466522E+02  0.42822340957E+02  0.00000000000E+00 0. -1.
         -5    1    5    5    0  502 -0.36516795317E+02 -0.72245446541E+02  0.31232906895E+02  0.86893413785E+02  0.47000000000E+01 0.  1.
         13    1    6    6    0    0 -0.22577371603E+02  0.10173165844E+02 -0.24272430584E+02  0.34675378848E+02  0.00000000000E+00 0. -1.
        -14    1    6    6    0    0  0.67821903959E+02 -0.15108880796E+02 -0.26887880122E+02  0.74505349023E+02  0.00000000000E+00 0.  1.
</event>
<event>
12    1  0.8356052E-002  0.2200383E+03  0.7818608E-02  0.1134094E+00
         21   -1    0    0  503  502  0.00000000000E+00  0.00000000000E+00  0.19733375990E+03  0.19733375990E+03  0.00000000000E+00 0.  1.
         21   -1    0    0  501  503 -0.00000000000E+00 -0.00000000000E+00 -0.24895270154E+03  0.24895270154E+03  0.00000000000E+00 0. -1.
          6    2    1    2  501    0 -0.13418286370E+03  0.28289659009E+02 -0.57584346745E+02  0.22744851814E+03  0.17207999796E+03 0.  0.
         24    2    3    3    0    0 -0.40130633245E+02 -0.23612913478E+02 -0.72050102614E+02  0.11895406124E+03  0.82406395334E+02 0.  0.
         -6    2    1    2    0  502  0.13418286370E+03 -0.28289659009E+02  0.59654051012E+01  0.21883794331E+03  0.17043800531E+03 0.  0.
        -24    2    5    5    0    0  0.14274183294E+03  0.21498406837E+02  0.18239749386E+02  0.16663778064E+03  0.81228376268E+02 0.  0.
          5    1    3    3  501    0 -0.94052230455E+02  0.51902572487E+02  0.14465755870E+02  0.10849445690E+03  0.47000000000E+01 0. -1.
        -11    1    4    4    0    0 -0.34276352894E+02 -0.41765239505E+02 -0.11191290923E+02  0.55176522101E+02  0.00000000000E+00 0.  1.
         12    1    4    4    0    0 -0.58542803502E+01  0.18152326027E+02 -0.60858811691E+02  0.63777539142E+02  0.00000000000E+00 0. -1.
         -5    1    5    5    0  502 -0.85589692367E+01 -0.49788065846E+02 -0.12274344285E+02  0.52200162669E+02  0.47000000000E+01 0.  1.
         13    1    6    6    0    0  0.12803954344E+02  0.28007227239E+02 -0.12030832003E+02  0.33061865391E+02  0.00000000000E+00 0. -1.
        -14    1    6    6    0    0  0.12993787859E+03 -0.65088204014E+01  0.30270581389E+02  0.13357591525E+03  0.00000000000E+00 0.  1.
</event>
<event>
12    1  0.8356052E-002  0.2326957E+03  0.7818608E-02  0.1125772E+00
         21   -1    0    0  503  502  0.00000000000E+00  0.00000000000E+00  0.15631960174E+04  0.15631960174E+04  0.00000000000E+00 0.  1.
         21   -1    0    0  501  503 -0.00000000000E+00 -0.00000000000E+00 -0.53634866447E+02  0.53634866447E+02  0.00000000000E+00 0.  1.
          6    2    1    2  501    0  0.27572813487E+01  0.15573085518E+03  0.25701605849E+03  0.34285423137E+03  0.16502141616E+03 0.  0.
         24    2    3    3    0    0  0.64702504775E+01  0.10634015666E+03  0.26065877192E+03  0.29296849593E+03  0.80854506148E+02 0.  0.
         -6    2    1    2    0  502 -0.27572813487E+01 -0.15573085518E+03  0.12525450925E+04  0.12739766525E+04  0.17288030702E+03 0.  0.
        -24    2    5    5    0    0  0.51285054772E+02 -0.96263490032E+02  0.52541441395E+03  0.54240433531E+03  0.79027464990E+02 0.  0.
          5    1    3    3  501    0 -0.37129691287E+01  0.49390698515E+02 -0.36427134309E+01  0.49885735443E+02  0.47000000000E+01 0. -1.
        -13    1    4    4    0    0 -0.22933139957E+02  0.24685001887E+02  0.25350168912E+02  0.42165261654E+02  0.00000000000E+00 0.  1.
         14    1    4    4    0    0  0.29403390435E+02  0.81655154777E+02  0.23530860301E+03  0.25080323427E+03  0.00000000000E+00 0. -1.
         -5    1    5    5    0  502 -0.54042336120E+02 -0.59467365147E+02  0.72713067851E+03  0.73157231716E+03  0.47000000000E+01 0.  1.
         13    1    6    6    0    0  0.62989157285E+02 -0.37607797219E+02  0.32924409775E+03  0.33731833073E+03  0.00000000000E+00 0. -1.
        -14    1    6    6    0    0 -0.11704102513E+02 -0.58655692813E+02  0.19617031620E+03  0.20508600457E+03  0.00000000000E+00 0.  1.
</event>
<event>
12    1  0.8356052E-002  0.2936208E+03  0.7818608E-02  0.1088488E+00
         21   -1    0    0  503  502  0.00000000000E+00  0.00000000000E+00  0.11283940921E+04  0.11283940921E+04  0.00000000000E+00 0.  1.
         21   -1    0    0  501  503 -0.00000000000E+00 -0.00000000000E+00 -0.77116363866E+02  0.77116363866E+02  0.00000000000E+00 0.  1.
          6    2    1    2  501    0 -0.21950283979E+03  0.91551917938E+02  0.58463642244E+03  0.65417819201E+03  0.17200613392E+03 0.  0.
         24    2    3    3    0    0 -0.19543923162E+03  0.12966108957E+03  0.47954511444E+03  0.53973327418E+03  0.79624111108E+02 0.  0.
         -6    2    1    2    0  502  0.21950283979E+03 -0.91551917938E+02  0.46664130580E+03  0.55133226396E+03  0.17219148251E+03 0.  0.
        -24    2    5    5    0    0  0.39482045375E+02 -0.51771506209E+02  0.11620496715E+03  0.15533013641E+03  0.79904543824E+02 0.  0.
          5    1    3    3  501    0 -0.24063608174E+02 -0.38109171630E+02  0.10509130800E+03  0.11444491784E+03  0.47000000000E+01 0. -1.
        -13    1    4    4    0    0 -0.63132937626E+02  0.51263133960E+01  0.16099692213E+03  0.17300883167E+03  0.00000000000E+00 0.  1.
         14    1    4    4    0    0 -0.13230629399E+03  0.12453477617E+03  0.31854819231E+03  0.36672444251E+03  0.00000000000E+00 0. -1.
         -5    1    5    5    0  502  0.18002079442E+03 -0.39780411729E+02  0.35043633865E+03  0.39600212755E+03  0.47000000000E+01 0.  1.
         11    1    6    6    0    0  0.34446817763E+02 -0.57574069841E+02  0.38716521265E+02  0.77461769867E+02  0.00000000000E+00 0. -1.
        -12    1    6    6    0    0  0.50352276115E+01  0.58025636318E+01  0.77488445887E+02  0.77868366541E+02  0.00000000000E+00 0.  1.
</event>
<event>
12    1  0.8356052E-002  0.2108476E+03  0.7818608E-02  0.1140996E+00
         21   -1    0    0  503  502  0.00000000000E+00  0.00000000000E+00  0.38063316652E+03  0.38063316652E+03  0.00000000000E+00 0.  1.
         21   -1    0    0  501  503 -0.00000000000E+00 -0.00000000000E+00 -0.21243839264E+03  0.21243839264E+03  0.00000000000E+00 0.  1.
          6    2    1    2  501    0 -0.11795117853E+03  0.29548117873E+02 -0.11510633752E+03  0.24022108284E+03  0.17225309262E+03 0.  0.
         24    2    3    3    0    0 -0.10529676435E+03  0.23340563920E+02 -0.90847359985E+01  0.13316344456E+03  0.77574351638E+02 0.  0.
         -6    2    1    2    0  502  0.11795117853E+03 -0.29548117873E+02  0.28330111139E+03  0.35285047632E+03  0.17163439964E+03 0.  0.
        -24    2    5    5    0    0  0.70577834924E+02 -0.33031199990E+02  0.65190723768E+02  0.12957800436E+03  0.80425977111E+02 0.  0.
          5    1    3    3  501    0 -0.12654414175E+02  0.62075539538E+01 -0.10602160152E+03  0.10705763828E+03  0.47000000000E+01 0. -1.
        -11    1    4    4    0    0 -0.94042650864E+02 -0.47539163994E+00  0.17590107912E+02  0.95674751502E+02  0.00000000000E+00 0.  1.
         12    1    4    4    0    0 -0.11254113489E+02  0.23815955559E+02 -0.26674843911E+02  0.37488693059E+02  0.00000000000E+00 0. -1.
         -5    1    5    5    0  502  0.47373343604E+02  0.34830821164E+01  0.21811038763E+03  0.22327247196E+03  0.47000000000E+01 0.  1.
         11    1    6    6    0    0  0.28396266045E+02 -0.17772449999E+01 -0.16188164363E+02  0.32734739812E+02  0.00000000000E+00 0. -1.
        -12    1    6    6    0    0  0.42181568879E+02 -0.31253954990E+02  0.81378888132E+02  0.96843264552E+02  0.00000000000E+00 0.  1.
</event>
<event>
12    1  0.8356052E-002  0.1849637E+03  0.7818608E-02  0.1165038E+00
         21   -1    0    0  501  502  0.00000000000E+00  0.00000000000E+00  0.55441549519E+02  0.55441549519E+02  0.00000000000E+00 0.  1.
         21   -1    0    0  502  503 -0.00000000000E+00 -0.00000000000E+00 -0.64313596392E+03  0.64313596392E+03  0.00000000000E+00 0.  1.
         -6    2    1    2    0  503  0.53620466705E+02 -0.37823145318E+02 -0.40019844782E+03  0.44087454708E+03  0.17293300395E+03 0.  0.
        -24    2    3    3    0    0  0.98171369168E+01 -0.15125122772E+02 -0.66761872956E+02  0.10377519765E+03  0.77375696773E+02 0.  0.
          6    2    1    2  501    0 -0.53620466705E+02  0.37823145318E+02 -0.18749596658E+03  0.25770296635E+03  0.16416557682E+03 0.  0.
         24    2    5    5    0    0 -0.40938736176E+02  0.84639459449E+02 -0.15774277498E+03  0.20060711740E+03  0.80750320593E+02 0.  0.
          5    1    5    5  501    0 -0.12681730529E+02 -0.46816314131E+02 -0.29753191597E+02  0.57095848958E+02  0.47000000000E+01 0. -1.
        -13    1    6    6    0    0 -0.45997310478E+01  0.24710318986E+02  0.29384850854E+01  0.25305969349E+02  0.00000000000E+00 0.  1.
         14    1    6    6    0    0 -0.36339005128E+02  0.59929140464E+02 -0.16068126007E+03  0.17530114805E+03  0.00000000000E+00 0. -1.
         -5    1    3    3    0  503  0.43803329788E+02 -0.22698022547E+02 -0.33343657486E+03  0.33709934943E+03  0.47000000000E+01 0.  1.
         11    1    4    4    0    0 -0.31881443044E+02  0.27426680199E+00 -0.42513162908E+02  0.53140104002E+02  0.00000000000E+00 0. -1.
        -12    1    4    4    0    0  0.41698579961E+02 -0.15399389574E+02 -0.24248710047E+02  0.50635093650E+02  0.00000000000E+00 0.  1.
</event>
<event>
12    1  0.8356052E-002  0.2079046E+03  0.7818608E-02  0.1143283E+00
         21   -1    0    0  501  502  0.00000000000E+00  0.00000000000E+00  0.80873645096E+03  0.80873645096E+03  0.00000000000E+00 0. -1.
         21   -1    0    0  502  503 -0.00000000000E+00 -0.00000000000E+00 -0.89342761964E+02  0.89342761964E+02  0.00000000000E+00 0. -1.
         -6    2    1    2    0  503  0.11616577776E+03  0.16503140285E+02  0.74952522659E+02  0.22100270935E+03  0.17163180161E+03 0.  0.
        -24    2    3    3    0    0  0.29115628022E+02  0.26017433212E+02 -0.20922904021E+02  0.91070273899E+02  0.79570096451E+02 0.  0.
          6    2    1    2  501    0 -0.11616577776E+03 -0.16503140285E+02  0.64444116634E+03  0.67707650358E+03  0.17135149041E+03 0.  0.
         24    2    5    5    0    0 -0.41071689446E+02 -0.66812132554E+02  0.27683204970E+03  0.29848877341E+03  0.79428076757E+02 0.  0.
          5    1    5    5  501    0 -0.75094088318E+02  0.50308992269E+02  0.36760911664E+03  0.37858773017E+03  0.47000000000E+01 0. -1.
        -11    1    6    6    0    0  0.18832075214E+02 -0.35899772546E+02  0.14304943678E+03  0.14868282379E+03  0.00000000000E+00 0.  1.
         12    1    6    6    0    0 -0.59903764660E+02 -0.30912360009E+02  0.13378261292E+03  0.14980594962E+03  0.00000000000E+00 0. -1.
         -5    1    3    3    0  503  0.87050149742E+02 -0.95142929269E+01  0.95875426680E+02  0.12993243545E+03  0.47000000000E+01 0.  1.
         13    1    4    4    0    0  0.55852899543E+02  0.88452082228E+01 -0.97308392684E+01  0.57380077804E+02  0.00000000000E+00 0. -1.
        -14    1    4    4    0    0 -0.26737271521E+02  0.17172224989E+02 -0.11192064753E+02  0.33690196095E+02  0.00000000000E+00 0.  1.
</event>
<event>
12    1  0.8356052E-002  0.1880686E+03  0.7818608E-02  0.1160271E+00
         21   -1    0    0  501  502  0.00000000000E+00  0.00000000000E+00  0.26296309075E+03  0.26296309075E+03  0.00000000000E+00 0. -1.
         21   -1    0    0  502  503 -0.00000000000E+00 -0.00000000000E+00 -0.28717770154E+03  0.28717770154E+03  0.00000000000E+00 0. -1.
         -6    2    1    2    0  503  0.34927937938E+02  0.64089634153E+02 -0.21278009264E+03  0.28382002720E+03  0.17306356625E+03 0.  0.
        -24    2    3    3    0    0  0.27493281472E+02  0.10931949501E+03 -0.13546384226E+03  0.19381498844E+03  0.80666998644E+02 0.  0.
          6    2    1    2  501    0 -0.34927937938E+02 -0.64089634153E+02  0.18856548185E+03  0.26632076509E+03  0.17332734036E+03 0.  0.
         24    2    5    5    0    0  0.13909092851E+02 -0.28149525164E+02  0.19364038422E+02  0.86520972348E+02  0.78262724468E+02 0.  0.
          5    1    5    5  501    0 -0.48837030788E+02 -0.35940108988E+02  0.16920144343E+03  0.17979979274E+03  0.47000000000E+01 0. -1.
        -13    1    6    6    0    0  0.10260121562E+02  0.25966929105E+02  0.15994088932E+02  0.32177047447E+02  0.00000000000E+00 0.  1.
         14    1    6    6    0    0  0.36489712886E+01 -0.54116454270E+02  0.33699494904E+01  0.54343924902E+02  0.00000000000E+00 0. -1.
         -5    1    3    3    0  503  0.74346564657E+01 -0.45229860855E+02 -0.77316250384E+02  0.90005038766E+02  0.47000000000E+01 0.  1.
         11    1    4    4    0    0  0.36832075123E+02  0.13242305205E+02 -0.22202215904E+02  0.44998875498E+02  0.00000000000E+00 0. -1.
        -12    1    4    4    0    0 -0.93387936512E+01  0.96077189803E+02 -0.11326162635E+03  0.14881611294E+03  0.00000000000E+00 0.  1.
</event>
<event>
12    1  0.8356052E-002  0.1748530E+03  0.7818608E-02  0.1173084E+00
         21   -1    0    0  503  502  0.00000000000E+00  0.00000000000E+00  0.73816544133E+03  0.73816544133E+03  0.00000000000E+00 0. -1.
         21   -1    0    0  501  503 -0.00000000000E+00 -0.00000000000E+00 -0.45445254257E+02  0.45445254257E+02  0.00000000000E+00 0. -1.
          6    2    1    2  501    0 -0.14541755505E+00  0.27339317774E+02  0.46501242066E+03  0.49651421309E+03  0.17187889046E+03 0.  0.
         24    2    3    3    0    0  0.64389223467E+02  0.92037052102E+01  0.33237480450E+03  0.34782511612E+03  0.79237746387E+02 0.  0.
         -6    2    1    2    0  502  0.14541755505E+00 -0.27339317774E+02  0.22770776641E+03  0.28709648250E+03  0.17270235649E+03 0.  0.
        -24    2    5    5    0    0 -0.15761705319E+02 -0.19980921645E+02  0.24694130178E+03  0.26065406516E+03  0.79453549784E+02 0.  0.
          5    1    3    3  501    0 -0.64534641022E+02  0.18135612564E+02  0.13263761616E+03  0.14868909696E+03  0.47000000000E+01 0. -1.
        -13    1    4    4    0    0  0.28393502159E+02 -0.23113794292E+02  0.53765883639E+02  0.65047741658E+02  0.00000000000E+00 0.  1.
         14    1    4    4    0    0  0.35995721308E+02  0.32317499502E+02  0.27860892086E+03  0.28277737447E+03  0.00000000000E+00 0. -1.
         -5    1    5    5    0  502  0.15907122874E+02 -0.73583961295E+01 -0.19233535373E+02  0.26442417338E+02  0.47000000000E+01 0.  1.
         13    1    6    6    0    0 -0.26268004549E+02 -0.45969709976E+02  0.12932241244E+03  0.13974086252E+03  0.00000000000E+00 0. -1.
        -14    1    6    6    0    0  0.10506299230E+02  0.25988788331E+02  0.11761888934E+03  0.12091320264E+03  0.00000000000E+00 0.  1.
</event>
<event>
12    1  0.8356052E-002  0.3659223E+03  0.7818608E-02  0.1056301E+00
         21   -1    0    0  501  502  0.00000000000E+00  0.00000000000E+00  0.10489949936E+04  0.10489949936E+04  0.00000000000E+00 0. -1.
         21   -1    0    0  502  503 -0.00000000000E+00 -0.00000000000E+00 -0.13077459176E+03  0.13077459176E+03  0.00000000000E+00 0. -1.
         -6    2    1    2    0  503  0.31536286259E+03  0.67023836244E+02  0.36563153470E+03  0.51700748473E+03  0.17223353440E+03 0.  0.
        -24    2    3    3    0    0  0.25286683017E+03  0.87089604873E+02  0.21741926172E+03  0.35484288624E+03  0.84357012003E+02 0.  0.
          6    2    1    2  501    0 -0.31536286259E+03 -0.67023836244E+02  0.55258886718E+03  0.66276210068E+03  0.17306997497E+03 0.  0.
         24    2    5    5    0    0 -0.20766277495E+03 -0.62290562718E+02  0.24335588011E+03  0.33524287522E+03  0.78496870591E+02 0.  0.
          5    1    5    5  501    0 -0.10770008764E+03 -0.47332735253E+01  0.30923298707E+03  0.32751922546E+03  0.47000000000E+01 0. -1.
        -11    1    6    6    0    0  0.40652913595E+01  0.32168786920E+00  0.22803568793E+02  0.23165336748E+02  0.00000000000E+00 0.  1.
         12    1    6    6    0    0 -0.21172806631E+03 -0.62612250588E+02  0.22055231132E+03  0.31207753847E+03  0.00000000000E+00 0. -1.
         -5    1    3    3    0  503  0.62496032424E+02 -0.20065768630E+02  0.14821227298E+03  0.16216459849E+03  0.47000000000E+01 0.  1.
         13    1    4    4    0    0  0.21474441988E+03  0.66982943300E+02  0.21578345896E+03  0.31171201729E+03  0.00000000000E+00 0. -1.
        -14    1    4    4    0    0  0.38122410289E+02  0.20106661574E+02  0.16358027580E+01  0.43130868952E+02  0.00000000000E+00 0.  1.
</event>
<event>
12    1  0.8356052E-002  0.3024842E+03  0.7818608E-02  0.1084143E+00
         21   -1    0    0  501  502  0.00000000000E+00  0.00000000000E+00  0.12248614472E+03  0.12248614472E+03  0.00000000000E+00 0. -1.
         21   -1    0    0  502  503 -0.00000000000E+00 -0.00000000000E+00 -0.82226540504E+03  0.82226540504E+03  0.00000000000E+00 0. -1.
         -6    2    1    2    0  503 -0.24894724121E+03  0.22130075469E+02 -0.20497697716E+03  0.36539324519E+03  0.17038836028E+03 0.  0.
        -24    2    3    3    0    0 -0.16442100064E+03  0.10104036484E+02 -0.51221809855E+02  0.18946129121E+03  0.78329752058E+02 0.  0.
          6    2    1    2  501    0  0.24894724121E+03 -0.22130075469E+02 -0.49480228317E+03  0.57935830457E+03  0.16841103436E+03 0.  0.
         24    2    5    5    0    0  0.92140513836E+02 -0.38063120234E+02 -0.31419236941E+03  0.33959958708E+03  0.81684509750E+02 0.  0.
          5    1    5    5  501    0  0.15680672738E+03  0.15933044764E+02 -0.18060991375E+03  0.23975871749E+03  0.47000000000E+01 0. -1.
        -11    1    6    6    0    0  0.12351394883E+02  0.10440300212E+02 -0.54817054829E+01  0.17076472676E+02  0.00000000000E+00 0.  1.
         12    1    6    6    0    0  0.79789118954E+02 -0.48503420445E+02 -0.30871066393E+03  0.32252311440E+03  0.00000000000E+00 0. -1.
         -5    1    3    3    0  503 -0.84526240568E+02  0.12026038985E+02 -0.15375516730E+03  0.17593195398E+03  0.47000000000E+01 0.  1.
         11    1    4    4    0    0 -0.44733836616E+02 -0.29083447978E+02 -0.31573046731E+02  0.61998551310E+02  0.00000000000E+00 0. -1.
        -12    1    4    4    0    0 -0.11968716403E+03  0.39187484462E+02 -0.19648763125E+02  0.12746273990E+03  0.00000000000E+00 0.  1.
</event>
<event>
12    1  0.8356052E-002  0.2092684E+03  0.7818608E-02  0.1142408E+00
         21   -1    0    0  501  502  0.00000000000E+00  0.00000000000E+00  0.11413720827E+04  0.11413720827E+04  0.00000000000E+00 0.  1.
         21   -1    0    0  502  503 -0.00000000000E+00 -0.00000000000E+00 -0.53757341094E+03  0.53757341094E+03  0.00000000000E+00 0.  1.
         -6    2    1    2    0  503 -0.75116471870E+01  0.12006830985E+03 -0.50718736648E+03  0.54866410668E+03  0.17123216220E+03 0.  0.
        -24    2    3    3    0    0 -0.27039654661E+02  0.14939061661E+03 -0.44735811239E+03  0.47907409019E+03  0.79586455646E+02 0.  0.
          6    2    1    2  501    0  0.75116471870E+01 -0.12006830985E+03  0.11109860383E+04  0.11302813870E+04  0.16962668614E+03 0.  0.
         24    2    5    5    0    0 -0.10417616640E+02 -0.10863275248E+03  0.10948564069E+04  0.11031799944E+04  0.79912118049E+02 0.  0.
          5    1    5    5  501    0  0.17929263827E+02 -0.11435557369E+02  0.16129631401E+02  0.27101392637E+02  0.47000000000E+01 0. -1.
        -11    1    6    6    0    0 -0.38884654714E+02 -0.97009285481E+02  0.84662505317E+03  0.85305146298E+03  0.00000000000E+00 0.  1.
         12    1    6    6    0    0  0.28467038074E+02 -0.11623466998E+02  0.24823135371E+03  0.25012853137E+03  0.00000000000E+00 0. -1.
         -5    1    3    3    0  503  0.19528007474E+02 -0.29322306760E+02 -0.59829254094E+02  0.69590016490E+02  0.47000000000E+01 0.  1.
         11    1    4    4    0    0 -0.93667419551E+01  0.51894201610E+01 -0.23653767375E+01  0.10966355072E+02  0.00000000000E+00 0. -1.
        -12    1    4    4    0    0 -0.17672912706E+02  0.14420119645E+03 -0.44499273565E+03  0.46810773512E+03  0.00000000000E+00 0.  1.
</event>
<event>
12    1  0.8356052E-002  0.2287957E+03  0.7818608E-02  0.1127696E+00
         21   -1    0    0  503  502  0.00000000000E+00  0.00000000000E+00  0.61933271519E+02  0.61933271519E+02  0.00000000000E+00 0.  1.
         21   -1    0    0  501  503 -0.00000000000E+00 -0.00000000000E+00 -0.88705519120E+03  0.88705519120E+03  0.00000000000E+00 0. -1.
          6    2    1    2  501    0  0.13838660905E+03 -0.50216768870E+02 -0.51974277978E+03  0.56740771186E+03  0.17362712030E+03 0.  0.
         24    2    3    3    0    0  0.51207719594E+02  0.36154018130E+02 -0.29162938510E+03  0.30833652001E+03  0.78066431616E+02 0.  0.
         -6    2    1    2    0  502 -0.13838660905E+03  0.50216768870E+02 -0.30537913990E+03  0.38158075085E+03  0.17514243603E+03 0.  0.
        -24    2    5    5    0    0 -0.32380305028E+02 -0.17142072866E+02 -0.10129612511E+03  0.14190072044E+03  0.92371936671E+02 0.  0.
          5    1    3    3  501    0  0.87178889458E+02 -0.86370787000E+02 -0.22811339468E+03  0.25907119185E+03  0.47000000000E+01 0. -1.
        -11    1    4    4    0    0 -0.10480095903E+02  0.13875960845E+02 -0.16325040725E+03  0.16417390221E+03  0.00000000000E+00 0.  1.
         12    1    4    4    0    0  0.61687815497E+02  0.22278057285E+02 -0.12837897785E+03  0.14416261780E+03  0.00000000000E+00 0. -1.
         -5    1    5    5    0  502 -0.10600630402E+03  0.67358841736E+02 -0.20408301479E+03  0.23968003041E+03  0.47000000000E+01 0.  1.
         11    1    6    6    0    0 -0.40016758772E+02 -0.48771967690E+02 -0.83994386085E+02  0.10504809712E+03  0.00000000000E+00 0. -1.
        -12    1    6    6    0    0  0.76364537442E+01  0.31629894825E+02 -0.17301739021E+02  0.36852623320E+02  0.00000000000E+00 0.  1.
</event>
<event>
12    1  0.8356052E-002  0.1726805E+03  0.7818608E-02  0.1175299E+00
         21   -1    0    0  503  502  0.00000000000E+00  0.00000000000E+00  0.49311600631E+02  0.49311600631E+02  0.00000000000E+00 0.  1.
         21   -1    0    0  501  503 -0.00000000000E+00 -0.00000000000E+00 -0.99920111533E+03  0.99920111533E+03  0.00000000000E+00 0.  1.
          6    2    1    2  501    0  0.70383963977E+01 -0.53227968379E+01 -0.80631003426E+03  0.82459348219E+03  0.17245482980E+03 0.  0.
         24    2    3    3    0    0 -0.38037547094E+02 -0.38954624604E+02 -0.61251383728E+03  0.62274701458E+03  0.98368315742E+02 0.  0.
         -6    2    1    2    0  502 -0.70383963977E+01  0.53227968379E+01 -0.14357948044E+03  0.22391923377E+03  0.17160094656E+03 0.  0.
        -24    2    5    5    0    0  0.15274753749E+02  0.25874128598E+02 -0.16565810698E+03  0.18610667426E+03  0.79311393655E+02 0.  0.
          5    1    3    3  501    0  0.45075943492E+02  0.33631827766E+02 -0.19379619698E+03  0.20184646760E+03  0.47000000000E+01 0. -1.
        -13    1    4    4    0    0 -0.56988242391E+02  0.11705407284E+02 -0.30057285388E+03  0.30615146059E+03  0.00000000000E+00 0.  1.
         14    1    4    4    0    0  0.18950695297E+02 -0.50660031888E+02 -0.31194098340E+03  0.31659555399E+03  0.00000000000E+00 0. -1.
         -5    1    5    5    0  502 -0.22313150146E+02 -0.20551331760E+02  0.22078626546E+02  0.37812559510E+02  0.47000000000E+01 0.  1.
         11    1    6    6    0    0  0.11744049287E+02  0.53323806997E+02 -0.12975000800E+03  0.14077079123E+03  0.00000000000E+00 0. -1.
        -12    1    6    6    0    0  0.35307044614E+01 -0.27449678399E+02 -0.35908098980E+02  0.45335883035E+02  0.00000000000E+00 0.  1.
</event>
<event>
12    1  0.8356052E-002  0.2037584E+03  0.7818608E-02  0.1148888E+00
         21   -1    0    0  501  502  0.00000000000E+00  0.00000000000E+00  0.35039229455E+03  0.35039229455E+03  0.00000000000E+00 0.  1.
         21   -1    0    0  502  503 -0.00000000000E+00 -0.00000000000E+00 -0.13409600936E+03  0.13409600936E+03  0.00000000000E+00 0.  1.
         -6    2    1    2    0  503  0.79522692831E+02 -0.32398017014E+02  0.80792539129E+01  0.19316062422E+03  0.17283594020E+03 0.  0.
        -24    2    3    3    0    0  0.52162613020E+02  0.18861360156E+02  0.61040213501E+02  0.11440117428E+03  0.79278193142E+02 0.  0.
          6    2    1    2  501    0 -0.79522692831E+02  0.32398017014E+02  0.20821703128E+03  0.29132767969E+03  0.18478093695E+03 0.  0.
         24    2    5    5    0    0 -0.45750084874E+02  0.95154101066E+02  0.12738187093E+03  0.18346050080E+03  0.79273205417E+02 0.  0.
          5    1    5    5  501    0 -0.33772607957E+02 -0.62756084052E+02  0.80835160342E+02  0.10786717889E+03  0.47000000000E+01 0. -1.
        -11    1    6    6    0    0 -0.46945220239E+02  0.38579650102E+02  0.10749536595E+03  0.12348075480E+03  0.00000000000E+00 0.  1.
         12    1    6    6    0    0  0.11951353647E+01  0.56574450964E+02  0.19886504987E+02  0.59979746007E+02  0.00000000000E+00 0. -1.
         -5    1    3    3    0  503  0.27360079812E+02 -0.51259377171E+02 -0.52960959588E+02  0.78759449945E+02  0.47000000000E+01 0.  1.
         11    1    4    4    0    0  0.16526895906E+01  0.41403022294E+02  0.26886889143E+02  0.49394801809E+02  0.00000000000E+00 0. -1.
        -12    1    4    4    0    0  0.50509923429E+02 -0.22541662138E+02  0.34153324358E+02  0.65006372468E+02  0.00000000000E+00 0.  1.
</event>
<event>
12    1  0.8356052E-002  0.1856925E+03  0.7818608E-02  0.1162641E+00
         21   -1    0    0  501  502  0.00000000000E+00  0.00000000000E+00  0.26676329610E+03  0.26676329610E+03  0.00000000000E+00 0. -1.
         21   -1    0    0  502  503 -0.00000000000E+00 -0.00000000000E+00 -0.39073199288E+03  0.39073199288E+03  0.00000000000E+00 0.  1.
         -6    2    1    2    0  503  0.11372811839E+01 -0.70227346577E+02 -0.33121791656E+03  0.37922570394E+03  0.17080296444E+03 0.  0.
        -24    2    3    3    0    0  0.46096224377E+02 -0.17688528189E+02 -0.27360503958E+03  0.28909819646E+03  0.79248366431E+02 0.  0.
          6    2    1    2  501    0 -0.11372811839E+01  0.70227346577E+02  0.20724921978E+03  0.27826958503E+03  0.17189691456E+03 0.  0.
         24    2    5    5    0    0  0.43476883006E+02  0.18398655234E+02  0.18382238386E+03  0.20582965451E+03  0.79664471348E+02 0.  0.
          5    1    5    5  501    0 -0.44614164190E+02  0.51828691343E+02  0.23426835923E+02  0.72439930522E+02  0.47000000000E+01 0. -1.
        -11    1    6    6    0    0  0.37493079468E+02 -0.17582141407E+02  0.15162037405E+03  0.15717379086E+03  0.00000000000E+00 0.  1.
         12    1    6    6    0    0  0.59838035388E+01  0.35980796641E+02  0.32202009808E+02  0.48655863648E+02  0.00000000000E+00 0. -1.
         -5    1    3    3    0  503 -0.44958943193E+02 -0.52538818388E+02 -0.57612876989E+02  0.90127507486E+02  0.47000000000E+01 0.  1.
         11    1    4    4    0    0 -0.19238650709E+02 -0.14958427180E+02 -0.43269015316E+02  0.49659721216E+02  0.00000000000E+00 0. -1.
        -12    1    4    4    0    0  0.65334875086E+02 -0.27301010088E+01 -0.23033602426E+03  0.23943847524E+03  0.00000000000E+00 0.  1.
</event>
<event>
12    1  0.8356052E-002  0.1760445E+03  0.7818608E-02  0.1171862E+00
         21   -1    0    0  503  502  0.00000000000E+00  0.00000000000E+00  0.58832307191E+03  0.58832307191E+03  0.00000000000E+00 0. -1.
         21   -1    0    0  501  503 -0.00000000000E+00 -0.00000000000E+00 -0.72736924964E+02  0.72736924964E+02  0.00000000000E+00 0. -1.
          6    2    1    2  501    0  0.31004294523E+02  0.18478934038E+02  0.82944958623E+02  0.19397322984E+03  0.17158965718E+03 0.  0.
         24    2    3    3    0    0 -0.16495864096E+02 -0.43432696906E+02  0.68061587812E+02  0.11439358520E+03  0.79341035450E+02 0.  0.
         -6    2    1    2    0  502 -0.31004294523E+02 -0.18478934038E+02  0.43264118832E+03  0.46708676703E+03  0.17230470922E+03 0.  0.
        -24    2    5    5    0    0 -0.19664081469E+02  0.28741320794E+02  0.10607785529E+03  0.13689886086E+03  0.79221506561E+02 0.  0.
          5    1    3    3  501    0  0.47500158619E+02  0.61911630944E+02  0.14883370811E+02  0.79579644644E+02  0.47000000000E+01 0. -1.
        -11    1    4    4    0    0  0.97274058048E+01  0.39191488303E+01 -0.13135617967E+02  0.16808527914E+02  0.00000000000E+00 0.  1.
         12    1    4    4    0    0 -0.26223269901E+02 -0.47351845737E+02  0.81197205779E+02  0.97585057285E+02  0.00000000000E+00 0. -1.
         -5    1    5    5    0  502 -0.11340213054E+02 -0.47220254831E+02  0.32656333303E+03  0.33018790616E+03  0.47000000000E+01 0.  1.
         13    1    6    6    0    0 -0.43256061179E+02  0.59026589285E+01  0.90659377432E+02  0.10062331205E+03  0.00000000000E+00 0. -1.
        -14    1    6    6    0    0  0.23591979710E+02  0.22838661865E+02  0.15418477860E+02  0.36275548817E+02  0.00000000000E+00 0.  1.
</event>
<event>
12    1  0.8356052E-002  0.2365172E+03  0.7818608E-02  0.1123040E+00
         21   -1    0    0  503  502  0.00000000000E+00  0.00000000000E+00  0.18130236060E+03  0.18130236060E+03  0.00000000000E+00 0. -1.
         21   -1    0    0  501  503 -0.00000000000E+00 -0.00000000000E+00 -0.46885215767E+03  0.46885215767E+03  0.00000000000E+00 0. -1.
          6    2    1    2  501    0  0.28372800978E+02 -0.15263864169E+03 -0.33681775960E+03  0.40856039124E+03  0.17138208582E+03 0.  0.
         24    2    3    3    0    0 -0.42405207116E+02 -0.12050829107E+03 -0.23713870582E+03  0.28206972114E+03  0.83714466968E+02 0.  0.
         -6    2    1    2    0  502 -0.28372800978E+02  0.15263864169E+03  0.49267962523E+02  0.24159412702E+03  0.17842875135E+03 0.  0.
        -24    2    5    5    0    0 -0.83648309313E+02  0.63310063560E+02  0.29875061134E+02  0.13466821194E+03  0.78979771021E+02 0.  0.
          5    1    3    3  501    0  0.70778008093E+02 -0.32130350615E+02 -0.99679053776E+02  0.12649067010E+03  0.47000000000E+01 0. -1.
        -13    1    4    4    0    0  0.61384747960E+01  0.92016785785E+01 -0.59206439693E+01  0.12546146281E+02  0.00000000000E+00 0.  1.
         14    1    4    4    0    0 -0.48543681912E+02 -0.12970996965E+03 -0.23121806185E+03  0.26952357486E+03  0.00000000000E+00 0. -1.
         -5    1    5    5    0  502  0.55275508336E+02  0.89328578127E+02  0.19392901388E+02  0.10692591508E+03  0.47000000000E+01 0.  1.
         13    1    6    6    0    0 -0.12785252311E+02  0.36755667203E+02 -0.20278429289E+02  0.43882302157E+02  0.00000000000E+00 0. -1.
        -14    1    6    6    0    0 -0.70863057002E+02  0.26554396357E+02  0.50153490423E+02  0.90785909783E+02  0.00000000000E+00 0.  1.
</event>
<event>
12    1  0.8356052E-002  0.2446585E+03  0.7818608E-02  0.1117056E+00
         21   -1    0    0  503  502  0.00000000000E+00  0.00000000000E+00  0.37590883728E+03  0.37590883728E+03  0.00000000000E+00 0. -1.
         21   -1    0    0  501  503 -0.00000000000E+00 -0.00000000000E+00 -0.57966856796E+03  0.57966856796E+03  0.00000000000E+00 0. -1.
          6    2    1    2  501    0  0.10497131544E+01 -0.17153583167E+03 -0.50953166480E+03  0.56522589811E+03  0.17444814423E+03 0.  0.
         24    2    3    3    0    0 -0.83782038907E+01 -0.78441892841E+01 -0.19913373731E+03  0.21415211271E+03  0.77943289891E+02 0.  0.
         -6    2    1    2    0  502 -0.10497131544E+01  0.17153583167E+03  0.30577193411E+03  0.39035150712E+03  0.17161637443E+03 0.  0.
        -24    2    5    5    0    0  0.47256846178E+02  0.44836017444E+02  0.16707385371E+03  0.19632673007E+03  0.79918923774E+02 0.  0.
          5    1    3    3  501    0  0.94279170451E+01 -0.16369164239E+03 -0.31039792749E+03  0.35107378540E+03  0.47000000000E+01 0. -1.
        -11    1    4    4    0    0  0.11619783958E+01  0.23206732568E+02 -0.16124877147E+02  0.28282756112E+02  0.00000000000E+00 0.  1.
         12    1    4    4    0    0 -0.95401822865E+01 -0.31050921852E+02 -0.18300886016E+03  0.18586935660E+03  0.00000000000E+00 0. -1.
         -5    1    5    5    0  502 -0.48306559332E+02  0.12669981423E+03  0.13869808041E+03  0.19402477705E+03  0.47000000000E+01 0.  1.
         13    1    6    6    0    0 -0.14349879851E+02  0.31658553374E+02  0.91844810760E+02  0.98202099351E+02  0.00000000000E+00 0. -1.
        -14    1    6    6    0    0  0.61606726029E+02  0.13177464070E+02  0.75229042948E+02  0.98124630722E+02  0.00000000000E+00 0.  1.
</event>
<event>
12    1  0.8356052E-002  0.2359130E+03  0.7818608E-02  0.1122637E+00
         21   -1    0    0  501  502  0.00000000000E+00  0.00000000000E+00  0.13794581407E+03  0.13794581407E+03  0.00000000000E+00 0. -1.
         21   -1    0    0  502  503 -0.00000000000E+00 -0.00000000000E+00 -0.85319051871E+03  0.85319051871E+03  0.00000000000E+00 0. -1.
         -6    2    1    2    0  503 -0.12877697814E+03  0.96799799261E+02 -0.71759526136E+03  0.75521159410E+03  0.17160385048E+03 0.  0.
        -24    2    3    3    0    0 -0.12408447853E+03  0.32354555688E+02 -0.62053466923E+03  0.63851516092E+03  0.78705526630E+02 0.  0.
          6    2    1    2  501    0  0.12877697814E+03 -0.96799799261E+02  0.23505567236E+01  0.23592473868E+03  0.17234049428E+03 0.  0.
         24    2    5    5    0    0 -0.10133172498E+01 -0.20337361579E+02  0.20155706967E+02  0.84164603835E+02  0.79137809721E+02 0.  0.
          5    1    5    5  501    0  0.12979029539E+03 -0.76462437683E+02 -0.17805150244E+02  0.15176013485E+03  0.47000000000E+01 0. -1.
        -13    1    6    6    0    0 -0.24940493046E+01  0.42438084054E+01 -0.28877975130E+02  0.29294498448E+02  0.00000000000E+00 0.  1.
         14    1    6    6    0    0  0.14807320548E+01 -0.24581169984E+02  0.49033682097E+02  0.54870105387E+02  0.00000000000E+00 0. -1.
         -5    1    3    3    0  503 -0.46924996109E+01  0.64445243573E+02 -0.97060592125E+02  0.11669643317E+03  0.47000000000E+01 0.  1.
         11    1    4    4    0    0 -0.66520174250E+02  0.23389386618E+02 -0.49647640206E+03  0.50145868703E+03  0.00000000000E+00 0. -1.
        -12    1    4    4    0    0 -0.57564304280E+02  0.89651690695E+01 -0.12405826717E+03  0.13705647389E+03  0.00000000000E+00 0.  1.
</event>
<event>
12    1  0.8356052E-002  0.2835307E+03  0.7818608E-02  0.1093855E+00
         21   -1    0    0  503  502  0.00000000000E+00  0.00000000000E+00  0.15425469255E+03  0.15425469255E+03  0.00000000000E+00 0. -1.
         21   -1    0    0  501  503 -0.00000000000E+00 -0.00000000000E+00 -0.56006003952E+03  0.56006003952E+03  0.00000000000E+00 0.  1.
          6    2    1    2  501    0  0.14920734200E+03  0.16896139316E+03 -0.29814177972E+03  0.41103088996E+03  0.17101780140E+03 0.  0.
         24    2    3    3    0    0  0.11896242606E+03  0.10766230848E+03 -0.29150176787E+03  0.34219403587E+03  0.79876442291E+02 0.  0.
         -6    2    1    2    0  502 -0.14920734200E+03 -0.16896139316E+03 -0.10766356725E+03  0.30328384212E+03  0.17198506299E+03 0.  0.
        -24    2    5    5    0    0 -0.65992058784E+01 -0.53556204955E+02 -0.60146299462E+02  0.11371744560E+03  0.80014145541E+02 0.  0.
          5    1    3    3  501    0  0.30244915934E+02  0.61299084680E+02 -0.66400118513E+01  0.68836854082E+02  0.47000000000E+01 0. -1.
        -11    1    4    4    0    0  0.12158688203E+03  0.11220980861E+03 -0.24644590368E+03  0.29683327723E+03  0.00000000000E+00 0.  1.
         12    1    4    4    0    0 -0.26244559680E+01 -0.45475001322E+01 -0.45055864193E+02  0.45360758644E+02  0.00000000000E+00 0. -1.
         -5    1    5    5    0  502 -0.14260813612E+03 -0.11540518821E+03 -0.47517267789E+02  0.18956639652E+03  0.47000000000E+01 0.  1.
         11    1    6    6    0    0 -0.15533599574E+02 -0.37612799556E+02  0.94369948013E+01  0.41774062253E+02  0.00000000000E+00 0. -1.
        -12    1    6    6    0    0  0.89343936960E+01 -0.15943405399E+02 -0.69583294263E+02  0.71943383344E+02  0.00000000000E+00 0.  1.
</event>
<event>
12    1  0.8356052E-002  0.1923186E+03  0.7818608E-02  0.1157060E+00
         21   -1    0    0  503  502  0.00000000000E+00  0.00000000000E+00  0.20542038894E+03  0.20542038894E+03  0.00000000000E+00 0. -1.
         21   -1    0    0  501  503 -0.00000000000E+00 -0.00000000000E+00 -0.61916549434E+03  0.61916549434E+03  0.00000000000E+00 0. -1.
          6    2    1    2  501    0 -0.61847304965E+02  0.49316403469E+02 -0.55471841651E+03  0.58613269776E+03  0.17199366554E+03 0.  0.
         24    2    3    3    0    0 -0.40346861556E+02 -0.20374019742E+02 -0.16283184733E+03  0.18748975318E+03  0.81211003733E+02 0.  0.
         -6    2    1    2    0  502  0.61847304965E+02 -0.49316403469E+02  0.14097331111E+03  0.23845318551E+03  0.17529760537E+03 0.  0.
        -24    2    5    5    0    0 -0.91588980644E+01 -0.73008757407E+02  0.48423702595E+02  0.11932834116E+03  0.80499900368E+02 0.  0.
          5    1    3    3  501    0 -0.21500443408E+02  0.69690423211E+02 -0.39188656919E+03  0.39864294458E+03  0.47000000000E+01 0. -1.
        -11    1    4    4    0    0 -0.18616597026E+02  0.15362157911E+02 -0.55830517559E+01  0.24773858146E+02  0.00000000000E+00 0.  1.
         12    1    4    4    0    0 -0.21730264530E+02 -0.35736177652E+02 -0.15724879557E+03  0.16271589504E+03  0.00000000000E+00 0. -1.
         -5    1    5    5    0  502  0.71006203029E+02  0.23692353938E+02  0.92549608518E+02  0.11912484435E+03  0.47000000000E+01 0.  1.
         13    1    6    6    0    0  0.22831223264E+02 -0.39718572320E+02  0.56201813903E+02  0.72508438328E+02  0.00000000000E+00 0. -1.
        -14    1    6    6    0    0 -0.31990121328E+02 -0.33290185087E+02 -0.77781113073E+01  0.46819902832E+02  0.00000000000E+00 0.  1.
</event>
<event>
12    1  0.8356052E-002  0.2199688E+03  0.7818608E-02  0.1133976E+00
         21   -1    0    0  503  502  0.00000000000E+00  0.00000000000E+00  0.78816245033E+02  0.78816245033E+02  0.00000000000E+00 0. -1.
         21   -1    0    0  501  503 -0.00000000000E+00 -0.00000000000E+00 -0.67757304296E+03  0.67757304296E+03  0.00000000000E+00 0. -1.
          6    2    1    2  501    0 -0.11633721547E+03  0.73308102614E+02 -0.41601962189E+03  0.47041874739E+03  0.17121053262E+03 0.  0.
         24    2    3    3    0    0 -0.14140772046E+03  0.45259959889E+02 -0.38910639831E+03  0.42392530554E+03  0.79147129449E+02 0.  0.
         -6    2    1    2    0  502  0.11633721547E+03 -0.73308102614E+02 -0.18273717603E+03  0.28597054061E+03  0.17169114415E+03 0.  0.
        -24    2    5    5    0    0  0.87838136161E+01 -0.64113981171E+02 -0.13124871111E+03  0.16628170178E+03  0.78965956065E+02 0.  0.
          5    1    3    3  501    0  0.25070504991E+02  0.28048142725E+02 -0.26913223588E+02  0.46493441846E+02  0.47000000000E+01 0. -1.
        -13    1    4    4    0    0 -0.12881242678E+02 -0.17674048139E+02 -0.85949467426E+02  0.88688270597E+02  0.00000000000E+00 0.  1.
         14    1    4    4    0    0 -0.12852647778E+03  0.62934008029E+02 -0.30315693088E+03  0.33523703494E+03  0.00000000000E+00 0. -1.
         -5    1    5    5    0  502  0.10755340185E+03 -0.91941214430E+01 -0.51488464926E+02  0.11968883882E+03  0.47000000000E+01 0.  1.
         13    1    6    6    0    0  0.36915372773E+02 -0.31997505016E+02 -0.32437564197E+02  0.58641117360E+02  0.00000000000E+00 0. -1.
        -14    1    6    6    0    0 -0.28131559157E+02 -0.32116476155E+02 -0.98811146909E+02  0.10764058442E+03  0.00000000000E+00 0.  1.
</event>
<event>
12    1  0.8356052E-002  0.1896468E+03  0.7818608E-02  0.1159072E+00
         21   -1    0    0  503  502  0.00000000000E+00  0.00000000000E+00  0.14923150267E+03  0.14923150267E+03  0.00000000000E+00 0.  1.
         21   -1    0    0  501  503 -0.00000000000E+00 -0.00000000000E+00 -0.25229991283E+03  0.25229991283E+03  0.00000000000E+00 0. -1.
          6    2    1    2  501    0  0.38112374000E+02  0.70420395232E+02 -0.59292911481E+01  0.18845418756E+03  0.17049410312E+03 0.  0.
         24    2    3    3    0    0 -0.14587387427E+02 -0.19205348650E+02 -0.14441475365E+02  0.84029161343E+02  0.79187792346E+02 0.  0.
         -6    2    1    2    0  502 -0.38112374000E+02 -0.70420395232E+02 -0.97139119010E+02  0.21307722794E+03  0.17191367458E+03 0.  0.
        -24    2    5    5    0    0 -0.15836156437E+02 -0.10993105127E+03 -0.98489685156E+02  0.16745666417E+03  0.77497718741E+02 0.  0.
          5    1    3    3  501    0  0.52699761427E+02  0.89625743882E+02  0.85121842172E+01  0.10442502622E+03  0.47000000000E+01 0. -1.
        -11    1    4    4    0    0  0.13043422674E+02 -0.17449735954E+02 -0.40513075150E+02  0.45999276278E+02  0.00000000000E+00 0.  1.
         12    1    4    4    0    0 -0.27630810101E+02 -0.17556126961E+01  0.26071599785E+02  0.38029885066E+02  0.00000000000E+00 0. -1.
         -5    1    5    5    0  502 -0.22276217563E+02  0.39510656039E+02  0.13505661459E+01  0.45620563767E+02  0.47000000000E+01 0.  1.
         11    1    6    6    0    0 -0.13591443526E+02 -0.71434873412E+02 -0.10563010955E+03  0.12823957471E+03  0.00000000000E+00 0. -1.
        -12    1    6    6    0    0 -0.22447129111E+01 -0.38496177859E+02  0.71404243974E+01  0.39217089469E+02  0.00000000000E+00 0.  1.
</event>
<event>
12    1  0.8356052E-002  0.1861535E+03  0.7818608E-02  0.1162820E+00
         21   -1    0    0  503  502  0.00000000000E+00  0.00000000000E+00  0.47984653193E+03  0.47984653193E+03  0.00000000000E+00 0.  1.
         21   -1    0    0  501  503 -0.00000000000E+00 -0.00000000000E+00 -0.16564651983E+03  0.16564651983E+03  0.00000000000E+00 0.  1.
          6    2    1    2  501    0  0.97638836233E+01  0.66678048794E+02 -0.86425010318E+02  0.20523742742E+03  0.17352758740E+03 0.  0.
         24    2    3    3    0    0 -0.24967073193E+02  0.88929305065E+02 -0.15445431469E+02  0.12300879262E+03  0.79754784591E+02 0.  0.
         -6    2    1    2    0  502 -0.97638836233E+01 -0.66678048794E+02  0.40062502242E+03  0.44025562434E+03  0.16965644862E+03 0.  0.
        -24    2    5    5    0    0 -0.10505976410E+02 -0.90922494715E+02  0.39974297029E+03  0.41553292474E+03  0.67051425487E+02 0.  0.
          5    1    3    3  501    0  0.34730956816E+02 -0.22251256271E+02 -0.70979578849E+02  0.82228634797E+02  0.47000000000E+01 0. -1.
        -11    1    4    4    0    0  0.74321808318E+01 -0.12025888887E+02 -0.90575429541E+01  0.16789830249E+02  0.00000000000E+00 0.  1.
         12    1    4    4    0    0 -0.32399254024E+02  0.10095519395E+03 -0.63878885152E+01  0.10621896237E+03  0.00000000000E+00 0. -1.
         -5    1    5    5    0  502  0.74209278638E+00  0.24244445922E+02  0.88205213372E+00  0.24722699604E+02  0.47000000000E+01 0.  1.
         13    1    6    6    0    0 -0.12711867354E+02 -0.86182084752E+02  0.23371460462E+03  0.24942225185E+03  0.00000000000E+00 0. -1.
        -14    1    6    6    0    0  0.22058909443E+01 -0.47404099636E+01  0.16602836566E+03  0.16611067288E+03  0.00000000000E+00 0.  1.
</event>
<event>
12    1  0.8356052E-002  0.1738988E+03  0.7818608E-02  0.1175003E+00
         21   -1    0    0  501  502  0.00000000000E+00  0.00000000000E+00  0.81804289919E+02  0.81804289919E+02  0.00000000000E+00 0. -1.
         21   -1    0    0  502  503 -0.00000000000E+00 -0.00000000000E+00 -0.36099555631E+03  0.36099555631E+03  0.00000000000E+00 0. -1.
         -6    2    1    2    0  503 -0.29829576148E+02 -0.10342241243E+02 -0.14866295021E+03  0.22536381845E+03  0.16640736863E+03 0.  0.
        -24    2    3    3    0    0  0.36581802797E+02  0.71356967408E+01 -0.12385325424E+03  0.15219578866E+03  0.80217099397E+02 0.  0.
          6    2    1    2  501    0  0.29829576148E+02  0.10342241243E+02 -0.13052831619E+03  0.21743602778E+03  0.17100882809E+03 0.  0.
         24    2    5    5    0    0 -0.50267702139E+01  0.65945204537E+02 -0.10133115752E+03  0.14545534647E+03  0.80716887394E+02 0.  0.
          5    1    5    5  501    0  0.34856346362E+02 -0.55602963294E+02 -0.29197158664E+02  0.71980681316E+02  0.47000000000E+01 0. -1.
        -11    1    6    6    0    0 -0.15588526927E+02  0.60437486886E+02 -0.23460598202E+02  0.66679019645E+02  0.00000000000E+00 0.  1.
         12    1    6    6    0    0  0.10561756713E+02  0.55077176513E+01 -0.77870559320E+02  0.78776326821E+02  0.00000000000E+00 0. -1.
         -5    1    3    3    0  503 -0.66411378945E+02 -0.17477937984E+02 -0.24809695968E+02  0.73168029791E+02  0.47000000000E+01 0.  1.
         13    1    4    4    0    0 -0.53501661000E+01  0.34389598071E+02 -0.30436645759E+02  0.46234815214E+02  0.00000000000E+00 0. -1.
        -14    1    4    4    0    0  0.41931968897E+02 -0.27253901330E+02 -0.93416608480E+02  0.10596097344E+03  0.00000000000E+00 0.  1.
</event>
<event>
12    1  0.8356052E-002  0.2348300E+03  0.7818608E-02  0.1123298E+00
         21   -1    0    0  503  502  0.00000000000E+00  0.00000000000E+00  0.27891254624E+03  0.27891254624E+03  0.00000000000E+00 0. -1.
         21   -1    0    0  501  503 -0.00000000000E+00 -0.00000000000E+00 -0.38255569254E+03  0.38255569254E+03  0.00000000000E+00 0. -1.
          6    2    1    2  501    0  0.52289753035E+02  0.15117021037E+03 -0.28175157543E+03  0.36673489715E+03  0.17182515460E+03 0.  0.
         24    2    3    3    0    0 -0.24783115007E+02  0.10886594294E+03 -0.21949422221E+03  0.25890194272E+03  0.79915618242E+02 0.  0.
         -6    2    1    2    0  502 -0.52289753035E+02 -0.15117021037E+03  0.17810842913E+03  0.29473334164E+03  0.17192579613E+03 0.  0.
        -24    2    5    5    0    0 -0.75737280060E+02 -0.14904209595E+03  0.19189527771E+03  0.26704791969E+03  0.80877140475E+02 0.  0.
          5    1    3    3  501    0  0.77072868043E+02  0.42304267432E+02 -0.62257353219E+02  0.10783295443E+03  0.47000000000E+01 0. -1.
        -11    1    4    4    0    0 -0.36818934690E+02  0.72306262709E+02 -0.79060057278E+02  0.11328866773E+03  0.00000000000E+00 0.  1.
         12    1    4    4    0    0  0.12035819683E+02  0.36559680230E+02 -0.14043416493E+03  0.14561327499E+03  0.00000000000E+00 0. -1.
         -5    1    5    5    0  502  0.23447527025E+02 -0.21281144233E+01 -0.13786848582E+02  0.27685421947E+02  0.47000000000E+01 0.  1.
         13    1    6    6    0    0 -0.29272861131E+02 -0.34691013846E+02  0.10979086392E+03  0.11880404303E+03  0.00000000000E+00 0. -1.
        -14    1    6    6    0    0 -0.46464418929E+02 -0.11435108210E+03  0.82104413784E+02  0.14824387666E+03  0.00000000000E+00 0.  1.
</event>
<event>
12    1  0.8356052E-002  0.3067509E+03  0.7818608E-02  0.1081917E+00
         21   -1    0    0  501  502  0.00000000000E+00  0.00000000000E+00  0.23129285364E+03  0.23129285364E+03  0.00000000000E+00 0. -1.
         21   -1    0    0  502  503 -0.00000000000E+00 -0.00000000000E+00 -0.40775753243E+03  0.40775753243E+03  0.00000000000E+00 0.  1.
         -6    2    1    2    0  503 -0.12507878061E+03  0.22091136962E+03 -0.10375657970E+03  0.32382333148E+03  0.17219055604E+03 0.  0.
        -24    2    3    3    0    0 -0.14985611402E+03  0.22124577524E+03 -0.83317373242E+02  0.29135982521E+03  0.80883960675E+02 0.  0.
          6    2    1    2  501    0  0.12507878061E+03 -0.22091136962E+03 -0.72708099085E+02  0.31522705459E+03  0.17214846408E+03 0.  0.
         24    2    5    5    0    0  0.13340687284E+03 -0.23939793243E+03 -0.61735958843E+02  0.29169860402E+03  0.78536508697E+02 0.  0.
          5    1    5    5  501    0 -0.83280922339E+01  0.18486562809E+02 -0.10972140242E+02  0.23528450570E+02  0.47000000000E+01 0. -1.
        -11    1    6    6    0    0  0.10668315030E+03 -0.21958758447E+03 -0.75733035161E+02  0.25560808756E+03  0.00000000000E+00 0.  1.
         12    1    6    6    0    0  0.26723722540E+02 -0.19810347961E+02  0.13997076318E+02  0.36090516458E+02  0.00000000000E+00 0. -1.
         -5    1    3    3    0  503  0.24777333412E+02 -0.33440561360E+00 -0.20439206462E+02  0.32463506264E+02  0.47000000000E+01 0.  1.
         13    1    4    4    0    0 -0.13442805073E+03  0.14083963310E+03 -0.40109384573E+02  0.19878497379E+03  0.00000000000E+00 0. -1.
        -14    1    4    4    0    0 -0.15428063286E+02  0.80406142138E+02 -0.43207988669E+02  0.92574851418E+02  0.00000000000E+00 0.  1.
</event>
<event>
12    1  0.8356052E-002  0.2063987E+03  0.7818608E-02  0.1144815E+00
         21   -1    0    0  501  502  0.00000000000E+00  0.00000000000E+00  0.15809860366E+03  0.15809860366E+03  0.00000000000E+00 0.  1.
         21   -1    0    0  502  503 -0.00000000000E+00 -0.00000000000E+00 -0.28541761472E+03  0.28541761472E+03  0.00000000000E+00 0.  1.
         -6    2    1    2    0  503  0.88380191557E+02 -0.69906904116E+02 -0.77657170257E+01  0.20654469528E+03  0.17292302126E+03 0.  0.
        -24    2    3    3    0    0  0.30993349961E+02  0.33830987362E+02 -0.11042217228E+02  0.87853393276E+02  0.74102393356E+02 0.  0.
          6    2    1    2  501    0 -0.88380191557E+02  0.69906904116E+02 -0.11955329404E+03  0.23697152311E+03  0.17077610824E+03 0.  0.
         24    2    5    5    0    0 -0.10853536639E+03  0.31094904287E+02 -0.25139423096E+02  0.13281456737E+03  0.65275568791E+02 0.  0.
          5    1    5    5  501    0  0.20155174835E+02  0.38811999829E+02 -0.94413870940E+02  0.10415695574E+03  0.47000000000E+01 0. -1.
        -11    1    6    6    0    0 -0.61250430384E+02  0.48541641487E+02 -0.42878788425E+01  0.78270633608E+02  0.00000000000E+00 0.  1.
         12    1    6    6    0    0 -0.47284936009E+02 -0.17446737199E+02 -0.20851544254E+02  0.54543933760E+02  0.00000000000E+00 0. -1.
         -5    1    3    3    0  503  0.57386841596E+02 -0.10373789148E+03  0.32765002026E+01  0.11869130200E+03  0.47000000000E+01 0.  1.
         13    1    4    4    0    0  0.28226848781E+02 -0.75483085114E+01  0.20547998373E+02  0.35720472990E+02  0.00000000000E+00 0. -1.
        -14    1    4    4    0    0  0.27665011798E+01  0.41379295873E+02 -0.31590215602E+02  0.52132920286E+02  0.00000000000E+00 0.  1.
</event>
<event>
12    1  0.8356052E-002  0.1809633E+03  0.7818608E-02  0.1166910E+00
         21   -1    0    0  503  502  0.00000000000E+00  0.00000000000E+00  0.86414448526E+03  0.86414448526E+03  0.00000000000E+00 0. -1.
         21   -1    0    0  501  503 -0.00000000000E+00 -0.00000000000E+00 -0.37957857897E+02  0.37957857897E+02  0.00000000000E+00 0.  1.
          6    2    1    2  501    0 -0.50068646632E+02 -0.25564341724E+02  0.39090241984E+03  0.43075795717E+03  0.17200962439E+03 0.  0.
         24    2    3    3    0    0  0.10549156716E+02 -0.10114272257E+02  0.79494026082E+02  0.11309382568E+03  0.79103287001E+02 0.  0.
         -6    2    1    2    0  502  0.50068646632E+02  0.25564341724E+02  0.43528420752E+03  0.47134438599E+03  0.17185105161E+03 0.  0.
        -24    2    5    5    0    0 -0.76494695692E+01 -0.38727468746E+02  0.27963867668E+03  0.29326451879E+03  0.79044021049E+02 0.  0.
          5    1    3    3  501    0 -0.60617803348E+02 -0.15450069467E+02  0.31140839376E+03  0.31766413149E+03  0.47000000000E+01 0. -1.
        -13    1    4    4    0    0 -0.24505748037E+02 -0.22724373667E+02  0.11106690386E+02  0.35217714530E+02  0.00000000000E+00 0.  1.
         14    1    4    4    0    0  0.35054904752E+02  0.12610101410E+02  0.68387335696E+02  0.77876111153E+02  0.00000000000E+00 0. -1.
         -5    1    5    5    0  502  0.57718116201E+02  0.64291810470E+02  0.15564553084E+03  0.17807986720E+03  0.47000000000E+01 0.  1.
         13    1    6    6    0    0  0.32941396622E+02 -0.15260528117E+02  0.17308500459E+03  0.17685145785E+03  0.00000000000E+00 0. -1.
        -14    1    6    6    0    0 -0.40590866191E+02 -0.23466940629E+02  0.10655367209E+03  0.11641306093E+03  0.00000000000E+00 0.  1.
</event>
<event>
12    1  0.8356052E-002  0.2541465E+03  0.7818608E-02  0.1110766E+00
         21   -1    0    0  501  502  0.00000000000E+00  0.00000000000E+00  0.40205931967E+02  0.40205931967E+02  0.00000000000E+00 0.  1.
         21   -1    0    0  502  503 -0.00000000000E+00 -0.00000000000E+00 -0.19972247580E+04  0.19972247580E+04  0.00000000000E+00 0.  1.
         -6    2    1    2    0  503  0.18681382251E+03  0.11957368777E+02 -0.14298240642E+04  0.14521745615E+04  0.17138179544E+03 0.  0.
        -24    2    3    3    0    0  0.11199020754E+03  0.17521599189E+01 -0.48208416905E+03  0.50141922056E+03  0.80443844041E+02 0.  0.
          6    2    1    2  501    0 -0.18681382251E+03 -0.11957368777E+02 -0.52719476183E+03  0.58525612838E+03  0.17189542156E+03 0.  0.
         24    2    5    5    0    0 -0.11339204780E+03 -0.74437146971E+02 -0.34184457536E+03  0.37627942798E+03  0.79560347315E+02 0.  0.
          5    1    5    5  501    0 -0.73421774701E+02  0.62479778194E+02 -0.18535018647E+03  0.20897670040E+03  0.47000000000E+01 0. -1.
        -11    1    6    6    0    0 -0.89301395055E+02 -0.12116656511E+02 -0.18436352748E+03  0.20521077649E+03  0.00000000000E+00 0.  1.
         12    1    6    6    0    0 -0.24090652749E+02 -0.62320490460E+02 -0.15748104788E+03  0.17106865149E+03  0.00000000000E+00 0. -1.
         -5    1    3    3    0  503  0.74823614970E+02  0.10205208858E+02 -0.94773989510E+03  0.95075534098E+03  0.47000000000E+01 0.  1.
         13    1    4    4    0    0  0.14244650494E+02 -0.97423669145E+01 -0.23237132964E+03  0.23301128432E+03  0.00000000000E+00 0. -1.
        -14    1    4    4    0    0  0.97745557042E+02  0.11494526833E+02 -0.24971283942E+03  0.26840793624E+03  0.00000000000E+00 0.  1.
</event>
<event>
12    1  0.8356052E-002  0.2233744E+03  0.7818608E-02  0.1132152E+00
         21   -1    0    0  503  502  0.00000000000E+00  0.00000000000E+00  0.64974831264E+02  0.64974831264E+02  0.00000000000E+00 0. -1.
         21   -1    0    0  501  503 -0.00000000000E+00 -0.00000000000E+00 -0.12780426438E+04  0.12780426438E+04  0.00000000000E+00 0.  1.
          6    2    1    2  501    0  0.14258399404E+03 -0.94761537897E+01 -0.10399131448E+04  0.10636331422E+04  0.17168610767E+03 0.  0.
         24    2    3    3    0    0  0.14758156038E+03  0.97236135529E+00 -0.10357550974E+04  0.10504601966E+04  0.94322533362E+02 0.  0.
         -6    2    1    2    0  502 -0.14258399404E+03  0.94761537897E+01 -0.17315466769E+03  0.27938433283E+03  0.16629213344E+03 0.  0.
        -24    2    5    5    0    0 -0.87117932961E+02 -0.55672068392E+02 -0.80464308751E+02  0.15315292856E+03  0.79324656327E+02 0.  0.
          5    1    3    3  501    0 -0.49975663347E+01 -0.10448515145E+02 -0.41580473814E+01  0.13172945609E+02  0.47000000000E+01 0. -1.
        -13    1    4    4    0    0  0.10512416700E+03 -0.27754681780E+02 -0.87500513742E+03  0.88173431563E+03  0.00000000000E+00 0.  1.
         14    1    4    4    0    0  0.42457393376E+02  0.28727043135E+02 -0.16074996001E+03  0.16872588095E+03  0.00000000000E+00 0. -1.
         -5    1    5    5    0  502 -0.55466061082E+02  0.65148222182E+02 -0.92690358935E+02  0.12623140427E+03  0.47000000000E+01 0.  1.
         11    1    6    6    0    0 -0.50796825626E+02 -0.32499008054E+01 -0.54168254903E+00  0.50903563421E+02  0.00000000000E+00 0. -1.
        -12    1    6    6    0    0 -0.36321107335E+02 -0.52422167587E+02 -0.79922626202E+02  0.10224936514E+03  0.00000000000E+00 0.  1.
</event>
<event>
12    1  0.8356052E-002  0.3119263E+03  0.7818608E-02  0.1079436E+00
         21   -1    0    0  503  502  0.00000000000E+00  0.00000000000E+00  0.51764595951E+03  0.51764595951E+03  0.00000000000E+00 0.  1.
         21   -1    0    0  501  503 -0.00000000000E+00 -0.00000000000E+00 -0.22155089913E+03  0.22155089913E+03  0.00000000000E+00 0.  1.
          6    2    1    2  501    0  0.13337314728E+03  0.22333445040E+03  0.40492520827E+01  0.31195261556E+03  0.17213763320E+03 0.  0.
         24    2    3    3    0    0  0.50763870456E+02  0.74041631775E+02 -0.69969432572E+02  0.12590559466E+03  0.53827163138E+02 0.  0.
         -6    2    1    2    0  502 -0.13337314728E+03 -0.22333445040E+03  0.29204580829E+03  0.42724424308E+03  0.17198899951E+03 0.  0.
        -24    2    5    5    0    0 -0.92013095024E+01 -0.47560333151E+02  0.12676384441E+03  0.15584895356E+03  0.76636640640E+02 0.  0.
          5    1    3    3  501    0  0.82609276819E+02  0.14929281863E+03  0.74018684655E+02  0.18604702091E+03  0.47000000000E+01 0. -1.
        -11    1    4    4    0    0  0.41603924929E+02  0.75345169606E+02 -0.40695881562E+02  0.95204705391E+02  0.00000000000E+00 0.  1.
         12    1    4    4    0    0  0.91599455273E+01 -0.13035378305E+01 -0.29273551009E+02  0.30700889265E+02  0.00000000000E+00 0. -1.
         -5    1    5    5    0  502 -0.12417183777E+03 -0.17577411725E+03  0.16528196388E+03  0.27139528952E+03  0.47000000000E+01 0.  1.
         11    1    6    6    0    0  0.18193458974E+02 -0.57614200713E+02  0.73792474123E+02  0.95371522534E+02  0.00000000000E+00 0. -1.
        -12    1    6    6    0    0 -0.27394768477E+02  0.10053867561E+02  0.52971370290E+02  0.60477431024E+02  0.00000000000E+00 0.  1.
</event>
<event>
12    1  0.8356052E-002  0.1923993E+03  0.7818608E-02  0.1156559E+00
         21   -1    0    0  503  502  0.00000000000E+00  0.00000000000E+00  0.21251025228E+03  0.21251025228E+03  0.00000000000E+00 0. -1.
         21   -1    0    0  501  503 -0.00000000000E+00 -0.00000000000E+00 -0.17458671200E+03  0.17458671200E+03  0.00000000000E+00 0. -1.
          6    2    1    2  501    0 -0.51706195085E+02 -0.68809015077E+02  0.36148570393E+02  0.19468943304E+03  0.17084801735E+03 0.  0.
         24    2    3    3    0    0 -0.64107377155E+02  0.81093888840E+01  0.50779610438E+02  0.11527666633E+03  0.80837014847E+02 0.  0.
         -6    2    1    2    0  502  0.51706195085E+02  0.68809015077E+02  0.17749698902E+01  0.19240753124E+03  0.17207352031E+03 0.  0.
        -24    2    5    5    0    0  0.67023093464E+02  0.71969942990E+02 -0.51293501025E+02  0.13688319922E+03  0.80213585063E+02 0.  0.
          5    1    3    3  501    0  0.12401182070E+02 -0.76918403961E+02 -0.14631040045E+02  0.79412766715E+02  0.47000000000E+01 0. -1.
        -13    1    4    4    0    0 -0.16710881266E+02  0.27315212218E+02 -0.12095676782E+02  0.34229808179E+02  0.00000000000E+00 0.  1.
         14    1    4    4    0    0 -0.47396495890E+02 -0.19205823334E+02  0.62875287220E+02  0.81046858147E+02  0.00000000000E+00 0. -1.
         -5    1    5    5    0  502 -0.15316898379E+02 -0.31609279131E+01  0.53068470915E+02  0.55524332022E+02  0.47000000000E+01 0.  1.
         11    1    6    6    0    0  0.66428881152E+02  0.36631348916E+02 -0.15666667337E+01  0.75875598312E+02  0.00000000000E+00 0. -1.
        -12    1    6    6    0    0  0.59421231165E+00  0.35338594074E+02 -0.49726834291E+02  0.61007600903E+02  0.00000000000E+00 0.  1.
</event>
<event>
12    1  0.8356052E-002  0.2012276E+03  0.7818608E-02  0.1148792E+00
         21   -1    0    0  501  502  0.00000000000E+00  0.00000000000E+00  0.44425005990E+02  0.44425005990E+02  0.00000000000E+00 0. -1.
         21   -1    0    0  502  503 -0.00000000000E+00 -0.00000000000E+00 -0.15449467255E+04  0.15449467255E+04  0.00000000000E+00 0. -1.
         -6    2    1    2    0  503 -0.99279767287E+02 -0.30416465785E+02 -0.12594139580E+04  0.12753247919E+04  0.17189582200E+03 0.  0.
        -24    2    3    3    0    0  0.77144836651E+00 -0.48490165018E+02 -0.46893402294E+03  0.47831944555E+03  0.80860886014E+02 0.  0.
          6    2    1    2  501    0  0.99279767287E+02  0.30416465785E+02 -0.24110776151E+03  0.31404693960E+03  0.17236848328E+03 0.  0.
         24    2    5    5    0    0  0.51235694580E+02  0.73091697822E+02 -0.21716594809E+03  0.24531042251E+03  0.71053935106E+02 0.  0.
          5    1    5    5  501    0  0.48044072707E+02 -0.42675232038E+02 -0.23941813425E+02  0.68736517091E+02  0.47000000000E+01 0. -1.
        -11    1    6    6    0    0 -0.65160202952E-02  0.30390056286E+02 -0.14023082701E+03  0.14348602862E+03  0.00000000000E+00 0.  1.
         12    1    6    6    0    0  0.51242210601E+02  0.42701641537E+02 -0.76935121075E+02  0.10182439389E+03  0.00000000000E+00 0. -1.
         -5    1    3    3    0  503 -0.10005121565E+03  0.18073699233E+02 -0.79047993507E+03  0.79700534634E+03  0.47000000000E+01 0.  1.
         11    1    4    4    0    0  0.47763213302E+01 -0.38365473564E+02 -0.46520771073E+03  0.46681145758E+03  0.00000000000E+00 0. -1.
        -12    1    4    4    0    0 -0.40048729637E+01 -0.10124691454E+02 -0.37263122128E+01  0.11507987973E+02  0.00000000000E+00 0.  1.
</event>
<event>
12    1  0.8356052E-002  0.2274221E+03  0.7818608E-02  0.1129224E+00
         21   -1    0    0  501  502  0.00000000000E+00  0.00000000000E+00  0.90246030764E+03  0.90246030764E+03  0.00000000000E+00 0. -1.
         21   -1    0    0  502  503 -0.00000000000E+00 -0.00000000000E+00 -0.93745524597E+02  0.93745524597E+02  0.00000000000E+00 0. -1.
         -6    2    1    2    0  503  0.14232761128E+03  0.70066326276E+01  0.87123430361E+02  0.23962477945E+03  0.17182345875E+03 0.  0.
        -24    2    3    3    0    0  0.14199489000E+03 -0.39980926462E+02  0.32591457257E+02  0.16748763574E+03  0.72311007270E+02 0.  0.
          6    2    1    2  501    0 -0.14232761128E+03 -0.70066326276E+01  0.72159135268E+03  0.75658105278E+03  0.17724155081E+03 0.  0.
         24    2    5    5    0    0 -0.79707622455E+02  0.63320981929E+02  0.38494976611E+03  0.40698573791E+03  0.84191547127E+02 0.  0.
          5    1    5    5  501    0 -0.62619988822E+02 -0.70327614557E+02  0.33664158658E+03  0.34959531487E+03  0.47000000000E+01 0. -1.
        -11    1    6    6    0    0 -0.42549326976E+02  0.21530271776E+02  0.57066545857E+02  0.74367926453E+02  0.00000000000E+00 0.  1.
         12    1    6    6    0    0 -0.37158295479E+02  0.41790710153E+02  0.32788322025E+03  0.33261781146E+03  0.00000000000E+00 0. -1.
         -5    1    3    3    0  503  0.33272127604E+00  0.46987559089E+02  0.54531973104E+02  0.72137143714E+02  0.47000000000E+01 0.  1.
         11    1    4    4    0    0  0.11300381828E+03 -0.45010041639E+02  0.51949444161E+02  0.13226681951E+03  0.00000000000E+00 0. -1.
        -12    1    4    4    0    0  0.28991071724E+02  0.50291151777E+01 -0.19357986904E+02  0.35220816234E+02  0.00000000000E+00 0.  1.
</event>
<event>
12    1  0.8356052E-002  0.1746708E+03  0.7818608E-02  0.1173162E+00
         21   -1    0    0  501  502  0.00000000000E+00  0.00000000000E+00  0.73451544097E+02  0.73451544097E+02  0.00000000000E+00 0. -1.
         21   -1    0    0  502  503 -0.00000000000E+00 -0.00000000000E+00 -0.53133302776E+03  0.53133302776E+03  0.00000000000E+00 0. -1.
         -6    2    1    2    0  503 -0.29722933323E+02 -0.13966666921E+01 -0.37098219995E+03  0.41004593628E+03  0.17211761601E+03 0.  0.
        -24    2    3    3    0    0 -0.32306632162E+02 -0.16960586947E+02 -0.81767202201E+02  0.12036280589E+03  0.80435997503E+02 0.  0.
          6    2    1    2  501    0  0.29722933323E+02  0.13966666921E+01 -0.86899283712E+02  0.19473863557E+03  0.17171559985E+03 0.  0.
         24    2    5    5    0    0 -0.13822973635E+02 -0.51937198844E+02 -0.81492560016E+02  0.12551385759E+03  0.78893243591E+02 0.  0.
          5    1    5    5  501    0  0.43545906958E+02  0.53333865536E+02 -0.54067236953E+01  0.69224777984E+02  0.47000000000E+01 0. -1.
        -13    1    6    6    0    0 -0.26043072422E+02 -0.12654482499E+01 -0.66265722937E+02  0.71210877096E+02  0.00000000000E+00 0.  1.
         14    1    6    6    0    0  0.12220098787E+02 -0.50671750594E+02 -0.15226837079E+02  0.54302980490E+02  0.00000000000E+00 0. -1.
         -5    1    3    3    0  503  0.25836988384E+01  0.15563920255E+02 -0.28921499775E+03  0.28968313039E+03  0.47000000000E+01 0.  1.
         11    1    4    4    0    0  0.16406954704E+02  0.19168285436E+02 -0.37825027856E+02  0.45468055397E+02  0.00000000000E+00 0. -1.
        -12    1    4    4    0    0 -0.48713586866E+02 -0.36128872383E+02 -0.43942174345E+02  0.74894750492E+02  0.00000000000E+00 0.  1.
</event>
<event>
12    1  0.8356052E-002  0.1862463E+03  0.7818608E-02  0.1161951E+00
         21   -1    0    0  503  502  0.00000000000E+00  0.00000000000E+00  0.16103117740E+03  0.16103117740E+03  0.00000000000E+00 0.  1.
         21   -1    0    0  501  503 -0.00000000000E+00 -0.00000000000E+00 -0.71685420334E+03  0.71685420334E+03  0.00000000000E+00 0.  1.
          6    2    1    2  501    0 -0.12685878054E+02 -0.67820218082E+02 -0.64519531842E+03  0.67153904620E+03  0.17299473451E+03 0.  0.
         24    2    3    3    0    0  0.57940685743E+02 -0.27983775131E+02 -0.44879269059E+03  0.45900402339E+03  0.71621223280E+02 0.  0.
         -6    2    1    2    0  502  0.12685878054E+02  0.67820218082E+02  0.89372292489E+02  0.20634633454E+03  0.17271621126E+03 0.  0.
        -24    2    5    5    0    0 -0.48002362764E+02  0.76153824604E+02  0.38546255811E+02  0.12660997160E+03  0.80253593301E+02 0.  0.
          5    1    3    3  501    0 -0.70626563797E+02 -0.39836442951E+02 -0.19640262783E+03  0.21253502281E+03  0.47000000000E+01 0. -1.
        -13    1    4    4    0    0  0.63499922656E+02 -0.57554299685E+01 -0.21960528967E+03  0.22867410960E+03  0.00000000000E+00 0.  1.
         14    1    4    4    0    0 -0.55592369136E+01 -0.22228345163E+02 -0.22918740093E+03  0.23032991379E+03  0.00000000000E+00 0. -1.
         -5    1    5    5    0  502  0.60688240818E+02 -0.83336065220E+01  0.50826036678E+02  0.79736362945E+02  0.47000000000E+01 0.  1.
         13    1    6    6    0    0  0.88018840721E+01 -0.10469877201E+02 -0.45501430500E+01  0.14415106438E+02  0.00000000000E+00 0. -1.
        -14    1    6    6    0    0 -0.56804246836E+02  0.86623701806E+02  0.43096398861E+02  0.11219486516E+03  0.00000000000E+00 0.  1.
</event>
<event>
12    1  0.8356052E-002  0.1853301E+03  0.7818608E-02  0.1164137E+00
         21   -1    0    0  501  502  0.00000000000E+00  0.00000000000E+00  0.19348942000E+03  0.19348942000E+03  0.00000000000E+00 0. -1.
         21   -1    0    0  502  503 -0.00000000000E+00 -0.00000000000E+00 -0.18562336215E+03  0.18562336215E+03  0.00000000000E+00 0. -1.
         -6    2    1    2    0  503 -0.59202672686E+02 -0.14089590524E+02 -0.47621401972E+02  0.18565452595E+03  0.16880856633E+03 0.  0.
        -24    2    3    3    0    0 -0.95563440844E+02 -0.39703870763E+02 -0.50410635999E+02  0.14084306939E+03  0.81158914439E+02 0.  0.
          6    2    1    2  501    0  0.59202672686E+02  0.14089590524E+02  0.55487459823E+02  0.19345825620E+03  0.17505360801E+03 0.  0.
         24    2    5    5    0    0  0.89569060062E+02  0.56036512240E+02  0.39428936512E+02  0.13903741557E+03  0.81326838554E+02 0.  0.
          5    1    5    5  501    0 -0.30366387376E+02 -0.41946921717E+02  0.16058523311E+02  0.54420840628E+02  0.47000000000E+01 0. -1.
        -13    1    6    6    0    0  0.90836321161E+02  0.14789326288E+02  0.28593592206E+02  0.96371961324E+02  0.00000000000E+00 0.  1.
         14    1    6    6    0    0 -0.12672610994E+01  0.41247185953E+02  0.10835344306E+02  0.42665454245E+02  0.00000000000E+00 0. -1.
         -5    1    3    3    0  503  0.36360768159E+02  0.25614280239E+02  0.27892340265E+01  0.44811456567E+02  0.47000000000E+01 0.  1.
         13    1    4    4    0    0 -0.61649273998E+02  0.57391935904E+01 -0.56491999561E+02  0.83814779973E+02  0.00000000000E+00 0. -1.
        -14    1    4    4    0    0 -0.33914166846E+02 -0.45443064353E+02  0.60813635622E+01  0.57028289414E+02  0.00000000000E+00 0.  1.
</event>
<event>
12    1  0.8356052E-002  0.2179764E+03  0.7818608E-02  0.1135438E+00
         21   -1    0    0  501  502  0.00000000000E+00  0.00000000000E+00  0.53015781355E+03  0.53015781355E+03  0.00000000000E+00 0. -1.
         21   -1    0    0  502  503 -0.00000000000E+00 -0.00000000000E+00 -0.15667891354E+03  0.15667891354E+03  0.00000000000E+00 0. -1.
         -6    2    1    2    0  503  0.57899839322E+02 -0.11780285757E+03 -0.38113772143E+02  0.22108761990E+03  0.17377333340E+03 0.  0.
        -24    2    3    3    0    0  0.10575668133E+03 -0.81869458385E+02 -0.29421964506E+02  0.16043183679E+03  0.83580131606E+02 0.  0.
          6    2    1    2  501    0 -0.57899839322E+02  0.11780285757E+03  0.41159267216E+03  0.46574910719E+03  0.17402240785E+03 0.  0.
         24    2    5    5    0    0 -0.60598566264E+02  0.79735059439E+02  0.13472099905E+03  0.18622012167E+03  0.80612159076E+02 0.  0.
          5    1    5    5  501    0  0.26987269415E+01  0.38067798126E+02  0.27687167310E+03  0.27952898552E+03  0.47000000000E+01 0. -1.
        -11    1    6    6    0    0  0.98236152617E+01 -0.77836971447E-01  0.47798978722E+02  0.48798072117E+02  0.00000000000E+00 0.  1.
         12    1    6    6    0    0 -0.70422181525E+02  0.79812896411E+02  0.86922020331E+02  0.13742204955E+03  0.00000000000E+00 0. -1.
         -5    1    3    3    0  503 -0.47856842010E+02 -0.35933399181E+02 -0.86918076372E+01  0.60655783103E+02  0.47000000000E+01 0.  1.
         13    1    4    4    0    0  0.80851489169E+02 -0.36028087587E+02 -0.53012537453E+02  0.10317613834E+03  0.00000000000E+00 0. -1.
        -14    1    4    4    0    0  0.24905192164E+02 -0.45841370798E+02  0.23590572947E+02  0.57255698453E+02  0.00000000000E+00 0.  1.
</event>
<event>
12    1  0.8356052E-002  0.1825156E+03  0.7818608E-02  0.1165537E+00
         21   -1    0    0  503  502  0.00000000000E+00  0.00000000000E+00  0.42890490274E+03  0.42890490274E+03  0.00000000000E+00 0. -1.
         21   -1    0    0  501  503 -0.00000000000E+00 -0.00000000000E+00 -0.60864061502E+03  0.60864061502E+03  0.00000000000E+00 0. -1.
          6    2    1    2  501    0 -0.56483518147E+02 -0.15096252685E+02 -0.57451192454E+03  0.60261998597E+03  0.17224578770E+03 0.  0.
         24    2    3    3    0    0 -0.73155675866E+02 -0.11812400259E+02 -0.20417110514E+03  0.23185974397E+03  0.81128385840E+02 0.  0.
         -6    2    1    2    0  502  0.56483518147E+02  0.15096252685E+02  0.39477621226E+03  0.43492553180E+03  0.17289787673E+03 0.  0.
        -24    2    5    5    0    0  0.54939355908E+02  0.67505977666E+02  0.33046030416E+03  0.35181241765E+03  0.83621616437E+02 0.  0.
          5    1    3    3  501    0  0.16672157720E+02 -0.32838524261E+01 -0.37034081940E+03  0.37076024199E+03  0.47000000000E+01 0. -1.
        -11    1    4    4    0    0 -0.39890467041E+02 -0.12828214826E+02 -0.23284980010E+02  0.47937487945E+02  0.00000000000E+00 0.  1.
         12    1    4    4    0    0 -0.33265208826E+02  0.10158145667E+01 -0.18088612513E+03  0.18392225603E+03  0.00000000000E+00 0. -1.
         -5    1    5    5    0  502  0.15441622389E+01 -0.52409724981E+02  0.64315908099E+02  0.83113114153E+02  0.47000000000E+01 0.  1.
         13    1    6    6    0    0  0.50181350854E+02  0.48475090420E+02  0.10856553676E+03  0.12905223027E+03  0.00000000000E+00 0. -1.
        -14    1    6    6    0    0  0.47580050540E+01  0.19030887246E+02  0.22189476740E+03  0.22276018738E+03  0.00000000000E+00 0.  1.
</event>
<event>
12    1  0.8356052E-002  0.1860436E+03  0.7818608E-02  0.1162280E+00
         21   -1    0    0  501  502  0.00000000000E+00  0.00000000000E+00  0.20121664544E+03  0.20121664544E+03  0.00000000000E+00 0.  1.
         21   -1    0    0  502  503 -0.00000000000E+00 -0.00000000000E+00 -0.17185318850E+03  0.17185318850E+03  0.00000000000E+00 0.  1.
         -6    2    1    2    0  503 -0.87970517770E+01  0.69044394258E+02  0.32714623823E+01  0.18520549541E+03  0.17159795035E+03 0.  0.
        -24    2    3    3    0    0  0.58356010048E+02  0.44670816514E+02  0.19749252208E+02  0.11173977169E+03  0.81821988835E+02 0.  0.
          6    2    1    2  501    0  0.87970517770E+01 -0.69044394258E+02  0.26091994565E+02  0.18786433853E+03  0.17253318815E+03 0.  0.
         24    2    5    5    0    0  0.48554864362E+02 -0.94958596195E+02 -0.12700863022E+01  0.13288249614E+03  0.79255503384E+02 0.  0.
          5    1    5    5  501    0 -0.39757812585E+02  0.25914201937E+02  0.27362080867E+02  0.54981842393E+02  0.47000000000E+01 0. -1.
        -13    1    6    6    0    0  0.56889160893E+02 -0.45410543937E+02  0.23995111142E+02  0.76643717853E+02  0.00000000000E+00 0.  1.
         14    1    6    6    0    0 -0.83342965309E+01 -0.49548052258E+02 -0.25265197444E+02  0.56238778286E+02  0.00000000000E+00 0. -1.
         -5    1    3    3    0  503 -0.67153061825E+02  0.24373577744E+02 -0.16477789826E+02  0.73465723723E+02  0.47000000000E+01 0.  1.
         11    1    4    4    0    0  0.75390439059E+01 -0.34086292079E+01  0.38446884351E+02  0.39327075309E+02  0.00000000000E+00 0. -1.
        -12    1    4    4    0    0  0.50816966142E+02  0.48079445722E+02 -0.18697632142E+02  0.72412696377E+02  0.00000000000E+00 0.  1.
</event>
<event>
12    1  0.8356052E-002  0.1725971E+03  0.7818608E-02  0.1176280E+00
         21   -1    0    0  501  502  0.00000000000E+00  0.00000000000E+00  0.98325191849E+02  0.98325191849E+02  0.00000000000E+00 0.  1.
         21   -1    0    0  502  503 -0.00000000000E+00 -0.00000000000E+00 -0.33029703133E+03  0.33029703133E+03  0.00000000000E+00 0.  1.
         -6    2    1    2    0  503 -0.33824124282E+02 -0.14966162073E+02 -0.18687670149E+03  0.25438686322E+03  0.16858741718E+03 0.  0.
        -24    2    3    3    0    0  0.40312743257E+02  0.17907512836E+02 -0.82384894922E+02  0.12203286340E+03  0.78478994344E+02 0.  0.
          6    2    1    2  501    0  0.33824124282E+02  0.14966162073E+02 -0.45095137992E+02  0.17423535995E+03  0.16418383537E+03 0.  0.
         24    2    5    5    0    0  0.24470652175E+02  0.64485019203E+02 -0.59408309095E+02  0.12163724669E+03  0.80679254291E+02 0.  0.
          5    1    5    5  501    0  0.93534721066E+01 -0.49518857130E+02  0.14313171103E+02  0.52598113264E+02  0.47000000000E+01 0. -1.
        -13    1    6    6    0    0 -0.72655944967E+01 -0.15682565542E+01  0.15286125778E+02  0.16997468439E+02  0.00000000000E+00 0.  1.
         14    1    6    6    0    0  0.31736246672E+02  0.66053275757E+02 -0.74694434873E+02  0.10463977825E+03  0.00000000000E+00 0. -1.
         -5    1    3    3    0  503 -0.74136867538E+02 -0.32873674909E+02 -0.10449180657E+03  0.13235399983E+03  0.47000000000E+01 0.  1.
         11    1    4    4    0    0  0.87323381537E+01  0.46386032827E+02 -0.48302544385E+02  0.67535572591E+02  0.00000000000E+00 0. -1.
        -12    1    4    4    0    0  0.31580405103E+02 -0.28478519991E+02 -0.34082350536E+02  0.54497290808E+02  0.00000000000E+00 0.  1.
</event>
<event>
12    1  0.8356052E-002  0.2050494E+03  0.7818608E-02  0.1145604E+00
         21   -1    0    0  501  502  0.00000000000E+00  0.00000000000E+00  0.65213377720E+02  0.65213377720E+02  0.00000000000E+00 0. -1.
         21   -1    0    0  502  503 -0.00000000000E+00 -0.00000000000E+00 -0.12732479566E+04  0.12732479566E+04  0.00000000000E+00 0. -1.
         -6    2    1    2    0  503 -0.87948456314E+02  0.68169916948E+02 -0.10747453795E+04  0.10941311195E+04  0.17223009983E+03 0.  0.
        -24    2    3    3    0    0 -0.50750637570E+02  0.37096316880E+02 -0.99869715314E+03  0.10038279131E+04  0.79515480107E+02 0.  0.
          6    2    1    2  501    0  0.87948456314E+02 -0.68169916948E+02 -0.13328919937E+03  0.24433021484E+03  0.17189873377E+03 0.  0.
         24    2    5    5    0    0  0.20448261246E+02  0.11785459606E+02 -0.22114984984E+02  0.91585543842E+02  0.85684367500E+02 0.  0.
          5    1    5    5  501    0  0.67500195068E+02 -0.79955376554E+02 -0.11117421438E+03  0.15274467100E+03  0.47000000000E+01 0. -1.
        -11    1    6    6    0    0  0.21471357628E+02 -0.35391617647E+02 -0.14038768805E+02  0.43711243720E+02  0.00000000000E+00 0.  1.
         12    1    6    6    0    0 -0.10230963821E+01  0.47177077253E+02 -0.80762161792E+01  0.47874300121E+02  0.00000000000E+00 0. -1.
         -5    1    3    3    0  503 -0.37197818744E+02  0.31073600067E+02 -0.76048226375E+02  0.90303206339E+02  0.47000000000E+01 0.  1.
         11    1    4    4    0    0 -0.39571843573E+02  0.57059253719E+02 -0.89233921728E+03  0.89503685283E+03  0.00000000000E+00 0. -1.
        -12    1    4    4    0    0 -0.11178793997E+02 -0.19962936839E+02 -0.10635793586E+03  0.10879106031E+03  0.00000000000E+00 0.  1.
</event>
<event>
12    1  0.8356052E-002  0.2163391E+03  0.7818608E-02  0.1138824E+00
         21   -1    0    0  501  502  0.00000000000E+00  0.00000000000E+00  0.12637928414E+04  0.12637928414E+04  0.00000000000E+00 0. -1.
         21   -1    0    0  502  503 -0.00000000000E+00 -0.00000000000E+00 -0.41655532923E+02  0.41655532923E+02  0.00000000000E+00 0. -1.
         -6    2    1    2    0  503 -0.60004674765E+02  0.11229149549E+03  0.88252806614E+03  0.90865745940E+03  0.17490754718E+03 0.  0.
        -24    2    3    3    0    0 -0.55020162916E+02  0.14907920709E+03  0.76142383007E+03  0.78190373333E+03  0.79720579968E+02 0.  0.
          6    2    1    2  501    0  0.60004674765E+02 -0.11229149549E+03  0.33960924238E+03  0.39679091495E+03  0.16093058046E+03 0.  0.
         24    2    5    5    0    0  0.49156470181E+02 -0.26002058256E+01  0.13547402838E+03  0.16474967258E+03  0.79787985419E+02 0.  0.
          5    1    5    5  501    0  0.10848204584E+02 -0.10969128966E+03  0.20413521399E+03  0.23204124237E+03  0.47000000000E+01 0. -1.
        -13    1    6    6    0    0  0.18724495789E+01  0.32730719485E+02  0.65177607052E+02  0.72958389007E+02  0.00000000000E+00 0.  1.
         14    1    6    6    0    0  0.47284020602E+02 -0.35330925311E+02  0.70296421331E+02  0.91791283571E+02  0.00000000000E+00 0. -1.
         -5    1    3    3    0  503 -0.49845118484E+01 -0.36787711597E+02  0.12110423606E+03  0.12675372608E+03  0.47000000000E+01 0.  1.
         11    1    4    4    0    0  0.12592578322E+02  0.63146395732E+02  0.20635338418E+03  0.21616604609E+03  0.00000000000E+00 0. -1.
        -12    1    4    4    0    0 -0.67612741238E+02  0.85932811355E+02  0.55507044590E+03  0.56573768723E+03  0.00000000000E+00 0.  1.
</event>
<event>
12    1  0.8356052E-002  0.1933772E+03  0.7818608E-02  0.1156807E+00
         21   -1    0    0  501  502  0.00000000000E+00  0.00000000000E+00  0.85702061356E+02  0.85702061356E+02  0.00000000000E+00 0. -1.
         21   -1    0    0  502  503 -0.00000000000E+00 -0.00000000000E+00 -0.46806743285E+03  0.46806743285E+03  0.00000000000E+00 0. -1.
         -6    2    1    2    0  503  0.54943165798E+02 -0.49701286199E+02 -0.27455198640E+03  0.33236833937E+03  0.17204926755E+03 0.  0.
        -24    2    3    3    0    0  0.51518916897E+02 -0.18084777158E+02 -0.28352118710E+03  0.29899371300E+03  0.77664141771E+02 0.  0.
          6    2    1    2  501    0 -0.54943165798E+02  0.49701286199E+02 -0.10781338510E+03  0.22140115483E+03  0.17862188007E+03 0.  0.
         24    2    5    5    0    0 -0.97120601770E+02  0.37159559935E+02 -0.11735090369E+03  0.17613212277E+03  0.80237434481E+02 0.  0.
          5    1    5    5  501    0  0.42177435972E+02  0.12541726265E+02  0.95375185965E+01  0.45269032062E+02  0.47000000000E+01 0. -1.
        -13    1    6    6    0    0 -0.55542291393E+02 -0.21259740668E+02 -0.57643061211E+02  0.82822975147E+02  0.00000000000E+00 0.  1.
         14    1    6    6    0    0 -0.41578310377E+02  0.58419300603E+02 -0.59707842481E+02  0.93309147625E+02  0.00000000000E+00 0. -1.
         -5    1    3    3    0  503  0.34242489008E+01 -0.31616509042E+02  0.89692006964E+01  0.33374626375E+02  0.47000000000E+01 0.  1.
         13    1    4    4    0    0  0.50671638727E+02 -0.27059919475E+02 -0.10056270315E+03  0.11581326123E+03  0.00000000000E+00 0. -1.
        -14    1    4    4    0    0  0.84727817010E+00  0.89751423172E+01 -0.18295848395E+03  0.18318045176E+03  0.00000000000E+00 0.  1.
</event>
<event>
12    1  0.8356052E-002  0.1809565E+03  0.7818608E-02  0.1166967E+00
         21   -1    0    0  503  502  0.00000000000E+00  0.00000000000E+00  0.15922644911E+03  0.15922644911E+03  0.00000000000E+00 0.  1.
         21   -1    0    0  501  503 -0.00000000000E+00 -0.00000000000E+00 -0.24033783264E+03  0.24033783264E+03  0.00000000000E+00 0.  1.
          6    2    1    2  501    0 -0.50946284879E+02  0.21849495176E+02 -0.11686229043E+03  0.21511003531E+03  0.17187963225E+03 0.  0.
         24    2    3    3    0    0 -0.56657004156E+02  0.13057180680E+02 -0.15121994993E+03  0.17888220243E+03  0.75834444691E+02 0.  0.
         -6    2    1    2    0  502  0.50946284879E+02 -0.21849495176E+02  0.35750906898E+02  0.18445424644E+03  0.17225654503E+03 0.  0.
        -24    2    5    5    0    0  0.80702292149E+02 -0.48378705247E+02  0.58177242179E+02  0.13847327788E+03  0.83288042966E+02 0.  0.
          5    1    3    3  501    0  0.57107192771E+01  0.87923144955E+01  0.34357659500E+02  0.36227832879E+02  0.47000000000E+01 0. -1.
        -13    1    4    4    0    0 -0.51963769184E+01 -0.27512130654E+02 -0.63411495330E+02  0.69317655804E+02  0.00000000000E+00 0.  1.
         14    1    4    4    0    0 -0.51460627238E+02  0.40569311334E+02 -0.87808454603E+02  0.10956454663E+03  0.00000000000E+00 0. -1.
         -5    1    5    5    0  502 -0.29756007269E+02  0.26529210071E+02 -0.22426335281E+02  0.45980968560E+02  0.47000000000E+01 0.  1.
         11    1    6    6    0    0  0.15696934645E+02  0.13900918977E+02 -0.12151599746E+02  0.24234081003E+02  0.00000000000E+00 0. -1.
        -12    1    6    6    0    0  0.65005357504E+02 -0.62279624224E+02  0.70328841925E+02  0.11423919688E+03  0.00000000000E+00 0.  1.
</event>
<event>
12    1  0.8356052E-002  0.1840213E+03  0.7818608E-02  0.1164151E+00
         21   -1    0    0  503  502  0.00000000000E+00  0.00000000000E+00  0.36171619081E+03  0.36171619081E+03  0.00000000000E+00 0. -1.
         21   -1    0    0  501  503 -0.00000000000E+00 -0.00000000000E+00 -0.20113405902E+03  0.20113405902E+03  0.00000000000E+00 0. -1.
          6    2    1    2  501    0  0.59971473986E+02  0.14550028049E+02 -0.12592459254E+03  0.22233602739E+03  0.17253412724E+03 0.  0.
         24    2    3    3    0    0  0.48217726666E+02 -0.50329389480E+02 -0.39386861497E+02  0.11343993798E+03  0.80369758369E+02 0.  0.
         -6    2    1    2    0  502 -0.59971473986E+02 -0.14550028049E+02  0.28650672434E+03  0.34051422243E+03  0.17336537019E+03 0.  0.
        -24    2    5    5    0    0  0.23959978752E+02  0.30577993093E+02  0.15203368728E+03  0.17563209864E+03  0.78887880959E+02 0.  0.
          5    1    3    3  501    0  0.11753747321E+02  0.64879417528E+02 -0.86537731048E+02  0.10889608941E+03  0.47000000000E+01 0. -1.
        -11    1    4    4    0    0  0.51522930865E+01  0.19779181706E+02  0.33690193096E+01  0.20715029425E+02  0.00000000000E+00 0.  1.
         12    1    4    4    0    0  0.43065433579E+02 -0.70108571185E+02 -0.42755880807E+02  0.92724908555E+02  0.00000000000E+00 0. -1.
         -5    1    5    5    0  502 -0.83931452738E+02 -0.45128021142E+02  0.13447303705E+03  0.16488212379E+03  0.47000000000E+01 0.  1.
         11    1    6    6    0    0  0.22994874652E+01  0.31808581783E+02  0.15054473942E+03  0.15388564613E+03  0.00000000000E+00 0. -1.
        -12    1    6    6    0    0  0.21660491287E+02 -0.12305886899E+01  0.14889478640E+01  0.21746452516E+02  0.00000000000E+00 0.  1.
</event>
<event>
12    1  0.8356052E-002  0.1766497E+03  0.7818608E-02  0.1171897E+00
         21   -1    0    0  501  502  0.00000000000E+00  0.00000000000E+00  0.40187243684E+03  0.40187243684E+03  0.00000000000E+00 0.  1.
         21   -1    0    0  502  503 -0.00000000000E+00 -0.00000000000E+00 -0.13226029936E+03  0.13226029936E+03  0.00000000000E+00 0.  1.
         -6    2    1    2    0  503  0.42031821364E+01 -0.31142701812E+02 -0.39734140838E+02  0.17790214698E+03  0.17053690902E+03 0.  0.
        -24    2    3    3    0    0  0.17100274494E+02 -0.40720518787E+02  0.39475111055E+02  0.96943730775E+02  0.76741269899E+02 0.  0.
          6    2    1    2  501    0 -0.42031821364E+01  0.31142701812E+02  0.30934627832E+03  0.35623058922E+03  0.17383204012E+03 0.  0.
         24    2    5    5    0    0 -0.34241249898E+02 -0.17543546955E+02  0.74097373417E+02  0.11408027724E+03  0.77740913773E+02 0.  0.
          5    1    5    5  501    0  0.30038067762E+02  0.48686248767E+02  0.23524890490E+03  0.24215031198E+03  0.47000000000E+01 0. -1.
        -13    1    6    6    0    0  0.21774128362E+02 -0.18147488643E+02  0.12984740433E+02  0.31177676214E+02  0.00000000000E+00 0.  1.
         14    1    6    6    0    0 -0.56015378261E+02  0.60394168793E+00  0.61112632984E+02  0.82902601030E+02  0.00000000000E+00 0. -1.
         -5    1    3    3    0  503 -0.12897092357E+02  0.95778169749E+01 -0.79209251893E+02  0.80958416207E+02  0.47000000000E+01 0.  1.
         13    1    4    4    0    0  0.18572114896E+02 -0.33227967033E+02 -0.15748223357E+02  0.41194997072E+02  0.00000000000E+00 0. -1.
        -14    1    4    4    0    0 -0.14718404018E+01 -0.74925517540E+01  0.55223334412E+02  0.55748733704E+02  0.00000000000E+00 0.  1.
</event>
<event>
12    1  0.8356052E-002  0.2664894E+03  0.7818608E-02  0.1103379E+00
         21   -1    0    0  501  502  0.00000000000E+00  0.00000000000E+00  0.18126299423E+03  0.18126299423E+03  0.00000000000E+00 0. -1.
         21   -1    0    0  502  503 -0.00000000000E+00 -0.00000000000E+00 -0.40785069585E+03  0.40785069585E+03  0.00000000000E+00 0.  1.
         -6    2    1    2    0  503 -0.20072032777E+03  0.22023564533E+02 -0.17296945145E+03  0.31728377252E+03  0.17313830829E+03 0.  0.
        -24    2    3    3    0    0 -0.39913865573E+02 -0.19796921306E+02 -0.19576890698E+02  0.91100132502E+02  0.77012627109E+02 0.  0.
          6    2    1    2  501    0  0.20072032777E+03 -0.22023564533E+02 -0.53618250167E+02  0.27182991756E+03  0.17390485891E+03 0.  0.
         24    2    5    5    0    0  0.17992229160E+03 -0.55699863018E+02 -0.83706285910E+02  0.22188964040E+03  0.82181290202E+02 0.  0.
          5    1    5    5  501    0  0.20798036172E+02  0.33676298485E+02  0.30088035743E+02  0.49940277163E+02  0.47000000000E+01 0. -1.
        -13    1    6    6    0    0  0.14712343915E+03 -0.68767848445E+02 -0.42985666959E+02  0.16799431803E+03  0.00000000000E+00 0.  1.
         14    1    6    6    0    0  0.32798852455E+02  0.13067985427E+02 -0.40720618950E+02  0.53895322368E+02  0.00000000000E+00 0. -1.
         -5    1    3    3    0  503 -0.16080646220E+03  0.41820485839E+02 -0.15339256075E+03  0.22618364002E+03  0.47000000000E+01 0.  1.
         13    1    4    4    0    0 -0.39090122138E+02  0.15581374915E+02  0.11907988049E+02  0.43733477707E+02  0.00000000000E+00 0. -1.
        -14    1    4    4    0    0 -0.82374343511E+00 -0.35378296221E+02 -0.31484878747E+02  0.47366654795E+02  0.00000000000E+00 0.  1.
</event>
<event>
12    1  0.8356052E-002  0.2078042E+03  0.7818608E-02  0.1145006E+00
         21   -1    0    0  503  502  0.00000000000E+00  0.00000000000E+00  0.52273729781E+03  0.52273729781E+03  0.00000000000E+00 0. -1.
         21   -1    0    0  501  503 -0.00000000000E+00 -0.00000000000E+00 -0.10185807254E+03  0.10185807254E+03  0.00000000000E+00 0. -1.
          6    2    1    2  501    0 -0.70410627155E+02  0.73855698648E+02  0.60393026526E+02  0.20850295489E+03  0.17150464689E+03 0.  0.
         24    2    3    3    0    0 -0.68669615547E+02  0.62907452339E+02  0.10574844931E+03  0.16157642087E+03  0.79065426011E+02 0.  0.
         -6    2    1    2    0  502  0.70410627155E+02 -0.73855698648E+02  0.36048619874E+03  0.41609241547E+03  0.18102562826E+03 0.  0.
        -24    2    5    5    0    0 -0.29935596016E+02 -0.62946103075E+02  0.20062082418E+03  0.22696967288E+03  0.80051018177E+02 0.  0.
          5    1    3    3  501    0 -0.17410116081E+01  0.10948246309E+02 -0.45355422786E+02  0.46926534016E+02  0.47000000000E+01 0. -1.
        -13    1    4    4    0    0 -0.50608328510E+01  0.14400434606E+01  0.63202324418E+02  0.63420971028E+02  0.00000000000E+00 0.  1.
         14    1    4    4    0    0 -0.63608782696E+02  0.61467408879E+02  0.42546124894E+02  0.98155449843E+02  0.00000000000E+00 0. -1.
         -5    1    5    5    0  502  0.10034622317E+03 -0.10909595573E+02  0.15986537456E+03  0.18912274259E+03  0.47000000000E+01 0.  1.
         13    1    6    6    0    0 -0.23435183859E+02 -0.34689862166E+02  0.24558093686E+02  0.48535495723E+02  0.00000000000E+00 0. -1.
        -14    1    6    6    0    0 -0.65004121572E+01 -0.28256240909E+02  0.17606273049E+03  0.17843417715E+03  0.00000000000E+00 0.  1.
</event>
<event>
12    1  0.8356052E-002  0.1728213E+03  0.7818608E-02  0.1175082E+00
         21   -1    0    0  503  502  0.00000000000E+00  0.00000000000E+00  0.43360406846E+03  0.43360406846E+03  0.00000000000E+00 0. -1.
         21   -1    0    0  501  503 -0.00000000000E+00 -0.00000000000E+00 -0.12617787783E+03  0.12617787783E+03  0.00000000000E+00 0. -1.
          6    2    1    2  501    0  0.47605032756E+01  0.19500546604E+02 -0.35405288518E+02  0.17585405592E+03  0.17107945762E+03 0.  0.
         24    2    3    3    0    0 -0.19295813988E+02 -0.45893856366E+02 -0.43274638188E+02  0.10557496227E+03  0.82430600257E+02 0.  0.
         -6    2    1    2    0  502 -0.47605032756E+01 -0.19500546604E+02  0.34283147915E+03  0.38392789037E+03  0.17165158955E+03 0.  0.
        -24    2    5    5    0    0 -0.22697023933E+02 -0.74545804645E+02  0.18700161247E+03  0.21762474380E+03  0.79490214269E+02 0.  0.
          5    1    3    3  501    0  0.24056317263E+02  0.65394402970E+02  0.78693496702E+01  0.70279093650E+02  0.47000000000E+01 0. -1.
        -13    1    4    4    0    0  0.27363259849E+02 -0.25042903142E+02  0.22108335356E+01  0.37158885509E+02  0.00000000000E+00 0.  1.
         14    1    4    4    0    0 -0.46659073837E+02 -0.20850953224E+02 -0.45485471724E+02  0.68416076763E+02  0.00000000000E+00 0. -1.
         -5    1    5    5    0  502  0.17936520658E+02  0.55045258041E+02  0.15582986669E+03  0.16630314657E+03  0.47000000000E+01 0.  1.
         13    1    6    6    0    0  0.26998282282E+02 -0.47611914949E+02  0.95440989403E+02  0.11002174398E+03  0.00000000000E+00 0. -1.
        -14    1    6    6    0    0 -0.49695306215E+02 -0.26933889696E+02  0.91560623063E+02  0.10760299982E+03  0.00000000000E+00 0.  1.
</event>
<event>
12    1  0.8356052E-002  0.1790272E+03  0.7818608E-02  0.1168772E+00
         21   -1    0    0  503  502  0.00000000000E+00  0.00000000000E+00  0.10666579857E+04  0.10666579857E+04  0.00000000000E+00 0. -1.
         21   -1    0    0  501  503 -0.00000000000E+00 -0.00000000000E+00 -0.43327541516E+02  0.43327541516E+02  0.00000000000E+00 0. -1.
          6    2    1    2  501    0  0.34186029253E+02 -0.32505848182E+02  0.81901511390E+03  0.83833229569E+03  0.17259770112E+03 0.  0.
         24    2    3    3    0    0  0.89795615071E+01 -0.86560841023E+02  0.49451377909E+03  0.50836182040E+03  0.79463519974E+02 0.  0.
         -6    2    1    2    0  502 -0.34186029253E+02  0.32505848182E+02  0.20431533031E+03  0.27165323155E+03  0.17270034526E+03 0.  0.
        -24    2    5    5    0    0 -0.53918568904E+02  0.13802146224E+02  0.21946090979E+03  0.24017815941E+03  0.80154513414E+02 0.  0.
          5    1    3    3  501    0  0.25206467746E+02  0.54054992841E+02  0.32450133481E+03  0.32997047528E+03  0.47000000000E+01 0. -1.
        -13    1    4    4    0    0  0.14934850750E+02 -0.79473687555E+02  0.23207606956E+03  0.24576089771E+03  0.00000000000E+00 0.  1.
         14    1    4    4    0    0 -0.59552892427E+01 -0.70871534682E+01  0.26243770954E+03  0.26260092270E+03  0.00000000000E+00 0. -1.
         -5    1    5    5    0  502  0.19732539651E+02  0.18703701958E+02 -0.15145579485E+02  0.31475072136E+02  0.47000000000E+01 0.  1.
         13    1    6    6    0    0  0.57993118205E+01  0.12727930801E+01 -0.48810723066E+01  0.76861490149E+01  0.00000000000E+00 0. -1.
        -14    1    6    6    0    0 -0.59717880725E+02  0.12529353144E+02  0.22434198210E+03  0.23249201040E+03  0.00000000000E+00 0.  1.
</event>
<event>
12    1  0.8356052E-002  0.2588611E+03  0.7818608E-02  0.1107908E+00
         21   -1    0    0  501  502  0.00000000000E+00  0.00000000000E+00  0.84307888875E+03  0.84307888875E+03  0.00000000000E+00 0.  1.
         21   -1    0    0  502  503 -0.00000000000E+00 -0.00000000000E+00 -0.85407260579E+02  0.85407260579E+02  0.00000000000E+00 0. -1.
         -6    2    1    2    0  503  0.19178372785E+03  0.23604379710E+02  0.25456941882E+03  0.36269386214E+03  0.17147327380E+03 0.  0.
        -24    2    3    3    0    0  0.12149836884E+03 -0.65764419198E+01  0.67091952819E+02  0.16015792967E+03  0.79650041326E+02 0.  0.
          6    2    1    2  501    0 -0.19178372785E+03 -0.23604379710E+02  0.50310220935E+03  0.56579228718E+03  0.17225247218E+03 0.  0.
         24    2    5    5    0    0 -0.19521206050E+03  0.39921900897E+01  0.49345775922E+03  0.53598575186E+03  0.75209573337E+02 0.  0.
          5    1    5    5  501    0  0.34283326460E+01 -0.27596569799E+02  0.96444501314E+01  0.29806535320E+02  0.47000000000E+01 0. -1.
        -11    1    6    6    0    0 -0.12794896990E+03  0.38192057993E+02  0.30250372637E+03  0.33066308633E+03  0.00000000000E+00 0.  1.
         12    1    6    6    0    0 -0.67263090604E+02 -0.34199867904E+02  0.19095403285E+03  0.20532266553E+03  0.00000000000E+00 0. -1.
         -5    1    3    3    0  503  0.70285359010E+02  0.30180821629E+02  0.18747746600E+03  0.20253593247E+03  0.47000000000E+01 0.  1.
         13    1    4    4    0    0  0.21193037436E+02  0.14973990015E+02 -0.13908808584E+02  0.29441809879E+02  0.00000000000E+00 0. -1.
        -14    1    4    4    0    0  0.10030533141E+03 -0.21550431935E+02  0.81000761403E+02  0.13071611979E+03  0.00000000000E+00 0.  1.
</event>
<event>
12    1  0.8356052E-002  0.2787808E+03  0.7818608E-02  0.1096885E+00
         21   -1    0    0  501  502  0.00000000000E+00  0.00000000000E+00  0.19597636617E+03  0.19597636617E+03  0.00000000000E+00 0.  1.
         21   -1    0    0  502  503 -0.00000000000E+00 -0.00000000000E+00 -0.46098221813E+03  0.46098221813E+03  0.00000000000E+00 0. -1.
         -6    2    1    2    0  503 -0.16350241864E+03 -0.14033641180E+03 -0.26111474038E+03  0.38196808811E+03  0.17689364972E+03 0.  0.
        -24    2    3    3    0    0 -0.10642781268E+03 -0.76372317370E+01 -0.12384855764E+03  0.18264253039E+03  0.81453189370E+02 0.  0.
          6    2    1    2  501    0  0.16350241864E+03  0.14033641180E+03 -0.38911115777E+01  0.27499049619E+03  0.17081359100E+03 0.  0.
         24    2    5    5    0    0  0.12861938060E+03  0.12247769727E+03  0.56809752716E+02  0.20258576601E+03  0.79182783424E+02 0.  0.
          5    1    5    5  501    0  0.34883038038E+02  0.17858714530E+02 -0.60700864294E+02  0.72404730187E+02  0.47000000000E+01 0. -1.
        -11    1    6    6    0    0  0.61282636019E+02  0.19269572801E+02 -0.55384699422E+01  0.64479086242E+02  0.00000000000E+00 0.  1.
         12    1    6    6    0    0  0.67336744582E+02  0.10320812447E+03  0.62348222658E+02  0.13810667976E+03  0.00000000000E+00 0. -1.
         -5    1    3    3    0  503 -0.57074605958E+02 -0.13269918006E+03 -0.13726618274E+03  0.19932555771E+03  0.47000000000E+01 0.  1.
         11    1    4    4    0    0 -0.95335666338E+02  0.43142694730E+01 -0.13318986237E+03  0.16385066871E+03  0.00000000000E+00 0. -1.
        -12    1    4    4    0    0 -0.11092146343E+02 -0.11951501210E+02  0.93413047295E+01  0.18791861689E+02  0.00000000000E+00 0.  1.
</event>
<event>
12    1  0.8356052E-002  0.1815641E+03  0.7818608E-02  0.1166462E+00
         21   -1    0    0  503  502  0.00000000000E+00  0.00000000000E+00  0.20571281078E+03  0.20571281078E+03  0.00000000000E+00 0.  1.
         21   -1    0    0  501  503 -0.00000000000E+00 -0.00000000000E+00 -0.29809454400E+03  0.29809454400E+03  0.00000000000E+00 0.  1.
          6    2    1    2  501    0 -0.44119356589E+02  0.36973440025E+02 -0.21781632885E+03  0.28312803060E+03  0.17147587499E+03 0.  0.
         24    2    3    3    0    0 -0.10459392175E+02 -0.41611201747E+02 -0.81368772384E+02  0.12204244840E+03  0.80203435694E+02 0.  0.
         -6    2    1    2    0  502  0.44119356589E+02 -0.36973440025E+02  0.12543459563E+03  0.22067932418E+03  0.17219748386E+03 0.  0.
        -24    2    5    5    0    0  0.39405608778E+01 -0.47645348805E+02  0.14619438115E+03  0.17397510642E+03  0.81295346062E+02 0.  0.
          5    1    3    3  501    0 -0.33659964414E+02  0.78584641772E+02 -0.13644755647E+03  0.16108558220E+03  0.47000000000E+01 0. -1.
        -11    1    4    4    0    0  0.26057537832E+02  0.14214541806E+01 -0.52547718529E+02  0.58670934307E+02  0.00000000000E+00 0.  1.
         12    1    4    4    0    0 -0.36516930007E+02 -0.43032655928E+02 -0.28821053855E+02  0.63371514094E+02  0.00000000000E+00 0. -1.
         -5    1    5    5    0  502  0.40178795711E+02  0.10671908780E+02 -0.20759785518E+02  0.46704217760E+02  0.47000000000E+01 0.  1.
         13    1    6    6    0    0  0.26737336770E+02 -0.25234455765E+02  0.16320360001E+02  0.40224583104E+02  0.00000000000E+00 0. -1.
        -14    1    6    6    0    0 -0.22796775893E+02 -0.22410893041E+02  0.12987402115E+03  0.13375052332E+03  0.00000000000E+00 0.  1.
</event>
<event>
12    1  0.8356052E-002  0.1879180E+03  0.7818608E-02  0.1160477E+00
         21   -1    0    0  503  502  0.00000000000E+00  0.00000000000E+00  0.14094035219E+03  0.14094035219E+03  0.00000000000E+00 0.  1.
         21   -1    0    0  501  503 -0.00000000000E+00 -0.00000000000E+00 -0.85615968668E+03  0.85615968668E+03  0.00000000000E+00 0.  1.
          6    2    1    2  501    0  0.58661713388E+02  0.41150016463E+02 -0.77701036802E+03  0.79928368180E+03  0.17313223709E+03 0.  0.
         24    2    3    3    0    0 -0.25467720390E+01  0.73960314522E+02 -0.57861397221E+03  0.58903094290E+03  0.81772297792E+02 0.  0.
         -6    2    1    2    0  502 -0.58661713388E+02 -0.41150016463E+02  0.61791033522E+02  0.19781635707E+03  0.17372005879E+03 0.  0.
        -24    2    5    5    0    0 -0.57777056553E+02 -0.36677069755E+02 -0.27389227265E+02  0.10839600824E+03  0.79474078306E+02 0.  0.
          5    1    3    3  501    0  0.61208485427E+02 -0.32810298059E+02 -0.19839639581E+03  0.21025273890E+03  0.47000000000E+01 0. -1.
        -11    1    4    4    0    0 -0.31863748780E+02  0.16232687471E+02 -0.33701452218E+03  0.33890645728E+03  0.00000000000E+00 0.  1.
         12    1    4    4    0    0  0.29316976741E+02  0.57727627051E+02 -0.24159945003E+03  0.25012448562E+03  0.00000000000E+00 0. -1.
         -5    1    5    5    0  502 -0.88465683575E+00 -0.44729467080E+01  0.89180260787E+02  0.89420348826E+02  0.47000000000E+01 0.  1.
         11    1    6    6    0    0 -0.58039507673E+02 -0.52746569334E+02 -0.39933504215E+02  0.88008350662E+02  0.00000000000E+00 0. -1.
        -12    1    6    6    0    0  0.26245112045E+00  0.16069499579E+02  0.12544276950E+02  0.20387657578E+02  0.00000000000E+00 0.  1.
</event>
<event>
12    1  0.8356052E-002  0.1825969E+03  0.7818608E-02  0.1166938E+00
         21   -1    0    0  501  502  0.00000000000E+00  0.00000000000E+00  0.13891536038E+03  0.13891536038E+03  0.00000000000E+00 0.  1.
         21   -1    0    0  502  503 -0.00000000000E+00 -0.00000000000E+00 -0.25675092894E+03  0.25675092894E+03  0.00000000000E+00 0.  1.
         -6    2    1    2    0  503  0.31959809136E+02  0.47213969566E+02 -0.12022776653E+03  0.21305368830E+03  0.16639281815E+03 0.  0.
        -24    2    3    3    0    0 -0.11614007316E+02  0.46722641619E+02 -0.92752714300E+01  0.93757984057E+02  0.79916447046E+02 0.  0.
          6    2    1    2  501    0 -0.31959809136E+02 -0.47213969566E+02  0.23921979707E+01  0.18261260102E+03  0.17346772356E+03 0.  0.
         24    2    5    5    0    0 -0.53112146040E+02 -0.51573855903E+02 -0.54271845837E+02  0.12179045188E+03  0.80041978036E+02 0.  0.
          5    1    5    5  501    0  0.21152336905E+02  0.43598863369E+01  0.56664043807E+02  0.60822149140E+02  0.47000000000E+01 0. -1.
        -13    1    6    6    0    0  0.23991926262E+01 -0.45951654634E+02 -0.31591097241E+01  0.46122561324E+02  0.00000000000E+00 0.  1.
         14    1    6    6    0    0 -0.55511338667E+02 -0.56222012691E+01 -0.51112736113E+02  0.75667890552E+02  0.00000000000E+00 0. -1.
         -5    1    3    3    0  503  0.43573816452E+02  0.49132794670E+00 -0.11095249510E+03  0.11929570425E+03  0.47000000000E+01 0.  1.
         11    1    4    4    0    0  0.32945691808E+02  0.22244210895E+02 -0.15230510947E+02  0.42569848376E+02  0.00000000000E+00 0. -1.
        -12    1    4    4    0    0 -0.44559699124E+02  0.24478430724E+02  0.59552395168E+01  0.51188135681E+02  0.00000000000E+00 0.  1.
</event>
<event>
12    1  0.8356052E-002  0.2471915E+03  0.7818608E-02  0.1115416E+00
         21   -1    0    0  501  502  0.00000000000E+00  0.00000000000E+00  0.36627438344E+03  0.36627438344E+03  0.00000000000E+00 0.  1.
         21   -1    0    0  502  503 -0.00000000000E+00 -0.00000000000E+00 -0.24318183487E+03  0.24318183487E+03  0.00000000000E+00 0. -1.
         -6    2    1    2    0  503  0.80313512359E+02  0.15897684598E+03 -0.11088299417E+03  0.26909144676E+03  0.16849709345E+03 0.  0.
        -24    2    3    3    0    0  0.78400059961E+02  0.15497282685E+03 -0.14139565045E+03  0.23790161408E+03  0.80257719585E+02 0.  0.
          6    2    1    2  501    0 -0.80313512359E+02 -0.15897684598E+03  0.23397554274E+03  0.34036477154E+03  0.17140514952E+03 0.  0.
         24    2    5    5    0    0 -0.10220197041E+03 -0.57210001157E+02  0.15331931162E+03  0.20859560626E+03  0.79291163739E+02 0.  0.
          5    1    5    5  501    0  0.21888458050E+02 -0.10176684482E+03  0.80656231120E+02  0.13176916528E+03  0.47000000000E+01 0. -1.
        -13    1    6    6    0    0 -0.44199372085E+02 -0.61807457152E+02  0.53065145715E+02  0.92680396752E+02  0.00000000000E+00 0.  1.
         14    1    6    6    0    0 -0.58002598324E+02  0.45974559945E+01  0.10025416590E+03  0.11591520951E+03  0.00000000000E+00 0. -1.
         -5    1    3    3    0  503  0.19134523985E+01  0.40040191276E+01  0.30512656283E+02  0.31189832682E+02  0.47000000000E+01 0.  1.
         13    1    4    4    0    0  0.44054340468E+02  0.14192408067E+02 -0.30529963737E+02  0.55446262693E+02  0.00000000000E+00 0. -1.
        -14    1    4    4    0    0  0.34345719492E+02  0.14078041878E+03 -0.11086568671E+03  0.18245535139E+03  0.00000000000E+00 0.  1.
</event>
<event>
12    1  0.8356052E-002  0.3685761E+03  0.7818608E-02  0.1055279E+00
         21   -1    0    0  501  502  0.00000000000E+00  0.00000000000E+00  0.11193510052E+04  0.11193510052E+04  0.00000000000E+00 0.  1.
         21   -1    0    0  502  503 -0.00000000000E+00 -0.00000000000E+00 -0.36946765364E+03  0.36946765364E+03  0.00000000000E+00 0. -1.
         -6    2    1    2    0  503  0.32651826317E+03 -0.98102238150E+01 -0.23531136971E+03  0.43693605570E+03  0.16979770133E+03 0.  0.
        -24    2    3    3    0    0  0.20333952839E+03  0.22091275965E+02 -0.21727982271E+03  0.30833616037E+03  0.77625241739E+02 0.  0.
          6    2    1    2  501    0 -0.32651826317E+03  0.98102238150E+01  0.98519472127E+03  0.10518826032E+04  0.17069843383E+03 0.  0.
         24    2    5    5    0    0 -0.90700282947E+02 -0.32540372638E+02  0.38647624545E+03  0.40698757595E+03  0.83603717036E+02 0.  0.
          5    1    5    5  501    0 -0.23581798023E+03  0.42350596453E+02  0.59871847583E+03  0.64489502720E+03  0.47000000000E+01 0. -1.
        -11    1    6    6    0    0 -0.50642375589E+02  0.24665196590E+02  0.20298097818E+03  0.21065208195E+03  0.00000000000E+00 0.  1.
         12    1    6    6    0    0 -0.40057907358E+02 -0.57205569228E+02  0.18349526727E+03  0.19633549400E+03  0.00000000000E+00 0. -1.
         -5    1    3    3    0  503  0.12317873478E+03 -0.31901499780E+02 -0.18031547002E+02  0.12859989533E+03  0.47000000000E+01 0.  1.
         11    1    4    4    0    0  0.16190146728E+03  0.55542417487E+01 -0.12092425462E+03  0.20215244264E+03  0.00000000000E+00 0. -1.
        -12    1    4    4    0    0  0.41438061111E+02  0.16537034217E+02 -0.96355568096E+02  0.10618371774E+03  0.00000000000E+00 0.  1.
</event>
<event>
12    1  0.8356052E-002  0.2286849E+03  0.7818608E-02  0.1127660E+00
         21   -1    0    0  501  502  0.00000000000E+00  0.00000000000E+00  0.99645463668E+02  0.99645463668E+02  0.00000000000E+00 0.  1.
         21   -1    0    0  502  503 -0.00000000000E+00 -0.00000000000E+00 -0.17759070534E+04  0.17759070534E+04  0.00000000000E+00 0. -1.
         -6    2    1    2    0  503 -0.92237963359E+02  0.11964304752E+03 -0.16258827781E+04  0.16418865984E+04  0.17168137111E+03 0.  0.
        -24    2    3    3    0    0 -0.24017436525E+02  0.34520651719E+02 -0.11550104593E+04  0.11585205951E+04  0.79701289198E+02 0.  0.
          6    2    1    2  501    0  0.92237963359E+02 -0.11964304752E+03 -0.50378811595E+02  0.23366591863E+03  0.17099542732E+03 0.  0.
         24    2    5    5    0    0  0.34326306343E+02 -0.48672614189E+01 -0.66550504276E+02  0.10400923836E+03  0.72020597777E+02 0.  0.
          5    1    5    5  501    0  0.57911657016E+02 -0.11477578610E+03  0.16171692681E+02  0.12965668027E+03  0.47000000000E+01 0. -1.
        -11    1    6    6    0    0  0.15669410176E+02 -0.33423178895E+02 -0.10470513436E+02  0.38370183141E+02  0.00000000000E+00 0.  1.
         12    1    6    6    0    0  0.18656896167E+02  0.28555917476E+02 -0.56079990840E+02  0.65639055219E+02  0.00000000000E+00 0. -1.
         -5    1    3    3    0  503 -0.68220526833E+02  0.85122395803E+02 -0.47087231888E+03  0.48336600340E+03  0.47000000000E+01 0.  1.
         13    1    4    4    0    0 -0.16950847422E+02  0.54110447070E+02 -0.10461781783E+04  0.10477137264E+04  0.00000000000E+00 0. -1.
        -14    1    4    4    0    0 -0.70665891035E+01 -0.19589795351E+02 -0.10883228095E+03  0.11080686865E+03  0.00000000000E+00 0.  1.
</event>
<event>
12    1  0.8356052E-002  0.1894909E+03  0.7818608E-02  0.1160025E+00
         21   -1    0    0  503  502  0.00000000000E+00  0.00000000000E+00  0.88162105216E+02  0.88162105216E+02  0.00000000000E+00 0.  1.
         21   -1    0    0  501  503 -0.00000000000E+00 -0.00000000000E+00 -0.45566096508E+03  0.45566096508E+03  0.00000000000E+00 0.  1.
          6    2    1    2  501    0  0.53197302013E+02 -0.57931065613E+02 -0.28335342434E+03  0.34087531027E+03  0.17239736878E+03 0.  0.
         24    2    3    3    0    0  0.97059265822E+02 -0.64189125753E+02 -0.24541770740E+03  0.28235827168E+03  0.77172517991E+02 0.  0.
         -6    2    1    2    0  502 -0.53197302013E+02  0.57931065613E+02 -0.84145435522E+02  0.20294776002E+03  0.16709691103E+03 0.  0.
        -24    2    5    5    0    0  0.25402766055E+02  0.61455510882E+02 -0.43783389006E+02  0.11439507958E+03  0.82141151308E+02 0.  0.
          5    1    3    3  501    0 -0.43861963809E+02  0.62580601398E+01 -0.37935716947E+02  0.58517038598E+02  0.47000000000E+01 0. -1.
        -11    1    4    4    0    0  0.20800311976E+02 -0.53185568023E+02 -0.14460715557E+03  0.15547535839E+03  0.00000000000E+00 0.  1.
         12    1    4    4    0    0  0.76258953846E+02 -0.11003557730E+02 -0.10081055182E+03  0.12688291328E+03  0.00000000000E+00 0. -1.
         -5    1    5    5    0  502 -0.78600068069E+02 -0.35244452690E+01 -0.40362046516E+02  0.88552680444E+02  0.47000000000E+01 0.  1.
         11    1    6    6    0    0  0.12915076856E+02  0.59318174035E+02 -0.65466373434E+02  0.89282086846E+02  0.00000000000E+00 0. -1.
        -12    1    6    6    0    0  0.12487689199E+02  0.21373368477E+01  0.21682984428E+02  0.25112992734E+02  0.00000000000E+00 0.  1.
</event>
<event>
12    1  0.8356052E-002  0.2147516E+03  0.7818608E-02  0.1140314E+00
         21   -1    0    0  503  502  0.00000000000E+00  0.00000000000E+00  0.48068056344E+03  0.48068056344E+03  0.00000000000E+00 0.  1.
         21   -1    0    0  501  503 -0.00000000000E+00 -0.00000000000E+00 -0.13761832944E+03  0.13761832944E+03  0.00000000000E+00 0.  1.
          6    2    1    2  501    0  0.99454798059E+02  0.38358245722E+02 -0.12665551261E+02  0.20277453224E+03  0.17203047075E+03 0.  0.
         24    2    3    3    0    0  0.12732566266E+03  0.56568122551E+02 -0.32502981119E+02  0.16373611102E+03  0.79632238512E+02 0.  0.
         -6    2    1    2    0  502 -0.99454798059E+02 -0.38358245722E+02  0.35572778526E+03  0.41552436064E+03  0.18642860619E+03 0.  0.
        -24    2    5    5    0    0 -0.48403356613E+02  0.52324932289E+01  0.33123561847E+03  0.34391180287E+03  0.78664027947E+02 0.  0.
          5    1    3    3  501    0 -0.27870864602E+02 -0.18209876829E+02  0.19837429858E+02  0.39038421218E+02  0.47000000000E+01 0. -1.
        -11    1    4    4    0    0  0.57508760863E+02  0.48578717107E+02 -0.51172045339E+02  0.91025971875E+02  0.00000000000E+00 0.  1.
         12    1    4    4    0    0  0.69816901799E+02  0.79894054439E+01  0.18669064219E+02  0.72710139148E+02  0.00000000000E+00 0. -1.
         -5    1    5    5    0  502 -0.51051441446E+02 -0.43590738951E+02  0.24492166785E+02  0.71612557766E+02  0.47000000000E+01 0.  1.
         11    1    6    6    0    0  0.64730097153E+01  0.16392339601E+02  0.16202245280E+02  0.23939954145E+02  0.00000000000E+00 0. -1.
        -12    1    6    6    0    0 -0.54876366329E+02 -0.11159846372E+02  0.31503337319E+03  0.31997184873E+03  0.00000000000E+00 0.  1.
</event>
<event>
12    1  0.8356052E-002  0.2911791E+03  0.7818608E-02  0.1090130E+00
         21   -1    0    0  503  502  0.00000000000E+00  0.00000000000E+00  0.39256488141E+03  0.39256488141E+03  0.00000000000E+00 0.  1.
         21   -1    0    0  501  503 -0.00000000000E+00 -0.00000000000E+00 -0.30881074015E+03  0.30881074015E+03  0.00000000000E+00 0. -1.
          6    2    1    2  501    0  0.14881042727E+03  0.18115611398E+03 -0.15285032660E+03  0.32618637943E+03  0.16754775705E+03 0.  0.
         24    2    3    3    0    0  0.12495282445E+03  0.80774489944E+02 -0.44607538094E+02  0.17657272057E+03  0.83966461341E+02 0.  0.
         -6    2    1    2    0  502 -0.14881042727E+03 -0.18115611398E+03  0.23660446785E+03  0.37518924213E+03  0.17269398456E+03 0.  0.
        -24    2    5    5    0    0 -0.13421214763E+03 -0.92123271205E+02  0.21697564040E+03  0.28273742912E+03  0.79764827032E+02 0.  0.
          5    1    3    3  501    0  0.23857602815E+02  0.10038162403E+03 -0.10824278850E+03  0.14961365886E+03  0.47000000000E+01 0. -1.
        -13    1    4    4    0    0  0.95249632113E+00 -0.64618408252E+01  0.12868755574E+02  0.14431476228E+02  0.00000000000E+00 0.  1.
         14    1    4    4    0    0  0.12400032813E+03  0.87236330769E+02 -0.57476293668E+02  0.16214124434E+03  0.00000000000E+00 0. -1.
         -5    1    5    5    0  502 -0.14598279638E+02 -0.89032842773E+02  0.19628827458E+02  0.92451813006E+02  0.47000000000E+01 0.  1.
         13    1    6    6    0    0 -0.49047950147E+02 -0.74256840526E+01  0.11475114247E+03  0.12501466672E+03  0.00000000000E+00 0. -1.
        -14    1    6    6    0    0 -0.85164197481E+02 -0.84697587152E+02  0.10222449792E+03  0.15772276240E+03  0.00000000000E+00 0.  1.
</event>
<event>
12    1  0.8356052E-002  0.2524012E+03  0.7818608E-02  0.1113049E+00
         21   -1    0    0  503  502  0.00000000000E+00  0.00000000000E+00  0.15397286195E+04  0.15397286195E+04  0.00000000000E+00 0.  1.
         21   -1    0    0  501  503 -0.00000000000E+00 -0.00000000000E+00 -0.13625194484E+03  0.13625194484E+03  0.00000000000E+00 0.  1.
          6    2    1    2  501    0  0.17871152417E+03  0.22144528522E+02 -0.55014449168E+01  0.24457366562E+03  0.16540200422E+03 0.  0.
         24    2    3    3    0    0  0.17414932578E+03  0.62927342971E+02  0.62466364288E+01  0.20162999293E+03  0.79547441310E+02 0.  0.
         -6    2    1    2    0  502 -0.17871152417E+03 -0.22144528522E+02  0.14089781195E+04  0.14314068987E+04  0.17685638032E+03 0.  0.
        -24    2    5    5    0    0 -0.32450737321E+02 -0.34624673547E+01  0.81220847451E+03  0.81667334957E+03  0.78789052568E+02 0.  0.
          5    1    3    3  501    0  0.45621983943E+01 -0.40782814448E+02 -0.11748081346E+02  0.42943672687E+02  0.47000000000E+01 0. -1.
        -11    1    4    4    0    0  0.35209311260E+02 -0.10562335073E+02  0.23311393283E+02  0.43527917230E+02  0.00000000000E+00 0.  1.
         12    1    4    4    0    0  0.13894001452E+03  0.73489678044E+02 -0.17064756854E+02  0.15810207570E+03  0.00000000000E+00 0. -1.
         -5    1    5    5    0  502 -0.14626078685E+03 -0.18682061168E+02  0.59676964502E+03  0.61473354911E+03  0.47000000000E+01 0.  1.
         13    1    6    6    0    0  0.21699211473E+02 -0.18720580533E+02  0.23961059269E+03  0.24131836242E+03  0.00000000000E+00 0. -1.
        -14    1    6    6    0    0 -0.54149948794E+02  0.15258113179E+02  0.57259788182E+03  0.57535498715E+03  0.00000000000E+00 0.  1.
</event>
<event>
12    1  0.8356052E-002  0.2419169E+03  0.7818608E-02  0.1118535E+00
         21   -1    0    0  503  502  0.00000000000E+00  0.00000000000E+00  0.26586103380E+03  0.26586103380E+03  0.00000000000E+00 0. -1.
         21   -1    0    0  501  503 -0.00000000000E+00 -0.00000000000E+00 -0.29977185160E+03  0.29977185160E+03  0.00000000000E+00 0. -1.
          6    2    1    2  501    0 -0.16739281856E+03  0.29138789411E+02 -0.16279655318E+03  0.29159306768E+03  0.17220445592E+03 0.  0.
         24    2    3    3    0    0 -0.52914692998E+02  0.49446892800E+02 -0.21882056388E+02  0.10884557604E+03  0.78253275260E+02 0.  0.
         -6    2    1    2    0  502  0.16739281856E+03 -0.29138789411E+02  0.12888573538E+03  0.27403981772E+03  0.17209550883E+03 0.  0.
        -24    2    5    5    0    0  0.14568115048E+03 -0.34897785927E+02  0.28762293594E+02  0.17132002330E+03  0.77989921027E+02 0.  0.
          5    1    3    3  501    0 -0.11447812556E+03 -0.20308103388E+02 -0.14091449679E+03  0.18274749164E+03  0.47000000000E+01 0. -1.
        -13    1    4    4    0    0  0.11691151923E+02  0.15682941507E+02 -0.29665904625E+02  0.35534540729E+02  0.00000000000E+00 0.  1.
         14    1    4    4    0    0 -0.64605844921E+02  0.33763951293E+02  0.77838482376E+01  0.73311035310E+02  0.00000000000E+00 0. -1.
         -5    1    5    5    0  502  0.21711668079E+02  0.57589965152E+01  0.10012344178E+03  0.10271979442E+03  0.47000000000E+01 0.  1.
         13    1    6    6    0    0  0.49924229118E+02 -0.50579617411E+02  0.40168244543E+01  0.71181888351E+02  0.00000000000E+00 0. -1.
        -14    1    6    6    0    0  0.95756921360E+02  0.15681831485E+02  0.24745469140E+02  0.10013813494E+03  0.00000000000E+00 0.  1.
</event>
<event>
12    1  0.8356052E-002  0.1948355E+03  0.7818608E-02  0.1154384E+00
         21   -1    0    0  501  502  0.00000000000E+00  0.00000000000E+00  0.28057304706E+03  0.28057304706E+03  0.00000000000E+00 0.  1.
         21   -1    0    0  502  503 -0.00000000000E+00 -0.00000000000E+00 -0.19630870308E+03  0.19630870308E+03  0.00000000000E+00 0.  1.
         -6    2    1    2    0  503 -0.19872300954E+02  0.85452364468E+02  0.17586631213E+03  0.26246872342E+03  0.17396510022E+03 0.  0.
        -24    2    3    3    0    0 -0.12141549376E+02  0.12314337472E+03  0.16749481065E+03  0.22281334786E+03  0.79243728037E+02 0.  0.
          6    2    1    2  501    0  0.19872300954E+02 -0.85452364468E+02 -0.91601968142E+02  0.21441302672E+03  0.17287281603E+03 0.  0.
         24    2    5    5    0    0 -0.18402231382E+02 -0.57507533731E+02  0.20748735452E+01  0.10932594827E+03  0.91115856516E+02 0.  0.
          5    1    5    5  501    0  0.38274532336E+02 -0.27944830737E+02 -0.93676841687E+02  0.10508707846E+03  0.47000000000E+01 0. -1.
        -13    1    6    6    0    0  0.23536384098E+02 -0.38899739001E+02 -0.28985766837E+02  0.53919623050E+02  0.00000000000E+00 0.  1.
         14    1    6    6    0    0 -0.41938615479E+02 -0.18607794730E+02  0.31060640383E+02  0.55406325217E+02  0.00000000000E+00 0. -1.
         -5    1    3    3    0  503 -0.77307515781E+01 -0.37691010249E+02  0.83715014798E+01  0.39655375557E+02  0.47000000000E+01 0.  1.
         11    1    4    4    0    0  0.16509075640E+02  0.66438935629E+01  0.56994471603E+02  0.59708129208E+02  0.00000000000E+00 0. -1.
        -12    1    4    4    0    0 -0.28650625016E+02  0.11649948115E+03  0.11050033904E+03  0.16310521865E+03  0.00000000000E+00 0.  1.
</event>
<event>
12    1  0.8356052E-002  0.2846331E+03  0.7818608E-02  0.1093212E+00
         21   -1    0    0  501  502  0.00000000000E+00  0.00000000000E+00  0.11958129086E+03  0.11958129086E+03  0.00000000000E+00 0.  1.
         21   -1    0    0  502  503 -0.00000000000E+00 -0.00000000000E+00 -0.69322978189E+03  0.69322978189E+03  0.00000000000E+00 0.  1.
         -6    2    1    2    0  503 -0.22441854400E+03  0.32578320823E+02 -0.34888364291E+03  0.45013318988E+03  0.17168302907E+03 0.  0.
        -24    2    3    3    0    0 -0.21031799914E+03  0.19289514661E+02 -0.36143886662E+03  0.42657175154E+03  0.81973524791E+02 0.  0.
          6    2    1    2  501    0  0.22441854400E+03 -0.32578320823E+02 -0.22476484813E+03  0.36267788287E+03  0.17202028920E+03 0.  0.
         24    2    5    5    0    0  0.24461938607E+02 -0.14755465828E+02 -0.76271012455E+02  0.11293239757E+03  0.78232658572E+02 0.  0.
          5    1    5    5  501    0  0.19995660539E+03 -0.17822854995E+02 -0.14849383567E+03  0.24974548531E+03  0.47000000000E+01 0. -1.
        -11    1    6    6    0    0  0.14776961927E+02 -0.42835655743E+02 -0.68668248321E+02  0.82271382232E+02  0.00000000000E+00 0.  1.
         12    1    6    6    0    0  0.96849766810E+01  0.28080189915E+02 -0.76027641337E+01  0.30661015337E+02  0.00000000000E+00 0. -1.
         -5    1    3    3    0  503 -0.14100544851E+02  0.13288806162E+02  0.12555223715E+02  0.23561438344E+02  0.47000000000E+01 0.  1.
         13    1    4    4    0    0 -0.98658590631E+02  0.39966311935E+02 -0.22609010021E+03  0.24989509201E+03  0.00000000000E+00 0. -1.
        -14    1    4    4    0    0 -0.11165940851E+03 -0.20676797274E+02 -0.13534876641E+03  0.17667665953E+03  0.00000000000E+00 0.  1.
</event>
<event>
12    1  0.8356052E-002  0.2446380E+03  0.7818608E-02  0.1117264E+00
         21   -1    0    0  503  502  0.00000000000E+00  0.00000000000E+00  0.69144060652E+03  0.69144060652E+03  0.00000000000E+00 0.  1.
         21   -1    0    0  501  503 -0.00000000000E+00 -0.00000000000E+00 -0.99443654771E+02  0.99443654771E+02  0.00000000000E+00 0.  1.
          6    2    1    2  501    0  0.11219908688E+03  0.12425554890E+03  0.14587036664E+03  0.28208499421E+03  0.17397041003E+03 0.  0.
         24    2    3    3    0    0  0.14762668647E+03  0.10284907191E+03  0.13449209606E+03  0.23890042392E+03  0.81324771738E+02 0.  0.
         -6    2    1    2    0  502 -0.11219908688E+03 -0.12425554890E+03  0.44612658511E+03  0.50879926708E+03  0.17838073806E+03 0.  0.
        -24    2    5    5    0    0 -0.52113318018E+02 -0.14514916048E+03  0.37581783012E+03  0.41386637682E+03  0.79134440832E+02 0.  0.
          5    1    3    3  501    0 -0.35427599588E+02  0.21406476993E+02  0.11378270586E+02  0.43184570293E+02  0.47000000000E+01 0. -1.
        -13    1    4    4    0    0  0.88997880112E+02  0.58282712324E+02  0.12578932475E+03  0.16474359302E+03  0.00000000000E+00 0.  1.
         14    1    4    4    0    0  0.58628806354E+02  0.44566359588E+02  0.87027713122E+01  0.74156830905E+02  0.00000000000E+00 0. -1.
         -5    1    5    5    0  502 -0.60085768860E+02  0.20893611578E+02  0.70308754993E+02  0.94932890259E+02  0.47000000000E+01 0.  1.
         11    1    6    6    0    0 -0.47058902405E+02 -0.13665572563E+03  0.37714817885E+03  0.40389364497E+03  0.00000000000E+00 0. -1.
        -12    1    6    6    0    0 -0.50544156129E+01 -0.84934348496E+01 -0.13303487300E+01  0.99727318462E+01  0.00000000000E+00 0.  1.
</event>
<event>
12    1  0.8356052E-002  0.1756659E+03  0.7818608E-02  0.1172354E+00
         21   -1    0    0  503  502  0.00000000000E+00  0.00000000000E+00  0.19876729146E+03  0.19876729146E+03  0.00000000000E+00 0. -1.
         21   -1    0    0  501  503 -0.00000000000E+00 -0.00000000000E+00 -0.23275826378E+03  0.23275826378E+03  0.00000000000E+00 0. -1.
          6    2    1    2  501    0 -0.30222837909E+02 -0.33881338917E+02 -0.14235578046E+03  0.22610548175E+03  0.16969724685E+03 0.  0.
         24    2    3    3    0    0  0.15313932956E+02 -0.30007227160E+02 -0.98739411887E+01  0.85883750270E+02  0.78380951904E+02 0.  0.
         -6    2    1    2    0  502  0.30222837909E+02  0.33881338917E+02  0.10836480814E+03  0.20542007349E+03  0.16850255159E+03 0.  0.
        -24    2    5    5    0    0  0.12204374627E+02  0.62571560363E+02  0.11230379664E+02  0.10243958495E+03  0.79395215289E+02 0.  0.
          5    1    3    3  501    0 -0.45536770865E+02 -0.38741117570E+01 -0.13248183927E+03  0.14022173148E+03  0.47000000000E+01 0. -1.
        -13    1    4    4    0    0  0.12947793006E+02  0.26102986850E+02 -0.41718028198E+01  0.29434931713E+02  0.00000000000E+00 0.  1.
         14    1    4    4    0    0  0.23661399503E+01 -0.56110214010E+02 -0.57021383689E+01  0.56448818557E+02  0.00000000000E+00 0. -1.
         -5    1    5    5    0  502  0.18018463282E+02 -0.28690221446E+02  0.97134428471E+02  0.10298048854E+03  0.47000000000E+01 0.  1.
         13    1    6    6    0    0  0.18624773194E+02  0.30772721126E+02  0.43660395363E+02  0.56569184767E+02  0.00000000000E+00 0. -1.
        -14    1    6    6    0    0 -0.64203985673E+01  0.31798839238E+02 -0.32430015698E+02  0.45870400182E+02  0.00000000000E+00 0.  1.
</event>
<event>
12    1  0.8356052E-002  0.3722040E+03  0.7818608E-02  0.1054054E+00
         21   -1    0    0  503  502  0.00000000000E+00  0.00000000000E+00  0.52086168833E+03  0.52086168833E+03  0.00000000000E+00 0. -1.
         21   -1    0    0  501  503 -0.00000000000E+00 -0.00000000000E+00 -0.29340544118E+03  0.29340544118E+03  0.00000000000E+00 0. -1.
          6    2    1    2  501    0  0.30062227384E+03  0.12453689093E+03 -0.14426159053E+02  0.37037195438E+03  0.17630678318E+03 0.  0.
         24    2    3    3    0    0  0.27213644637E+03  0.49435164155E+02  0.13366233992E+02  0.28524722917E+03  0.68448846888E+02 0.  0.
         -6    2    1    2    0  502 -0.30062227384E+03 -0.12453689093E+03  0.24188240620E+03  0.44389517512E+03  0.18070041322E+03 0.  0.
        -24    2    5    5    0    0 -0.92424598108E+02 -0.67544156791E+02  0.16303265231E+03  0.21403909491E+03  0.78285177246E+02 0.  0.
          5    1    3    3  501    0  0.28485827473E+02  0.75101726772E+02 -0.27792393045E+02  0.85124725210E+02  0.47000000000E+01 0. -1.
        -13    1    4    4    0    0  0.72494821112E+01  0.11717125086E+02 -0.94646560970E+01  0.16716032011E+02  0.00000000000E+00 0.  1.
         14    1    4    4    0    0  0.26488696426E+03  0.37718039068E+02  0.22830890089E+02  0.26853119716E+03  0.00000000000E+00 0. -1.
         -5    1    5    5    0  502 -0.20819767574E+03 -0.56992734136E+02  0.78849753887E+02  0.22985608022E+03  0.47000000000E+01 0.  1.
         11    1    6    6    0    0 -0.52846024104E+02  0.39274907073E+01  0.40184998746E+02  0.66505349943E+02  0.00000000000E+00 0. -1.
        -12    1    6    6    0    0 -0.39578574004E+02 -0.71471647498E+02  0.12284765356E+03  0.14753374496E+03  0.00000000000E+00 0.  1.
</event>
<event>
12    1  0.8356052E-002  0.2285555E+03  0.7818608E-02  0.1127671E+00
         21   -1    0    0  503  502  0.00000000000E+00  0.00000000000E+00  0.54953249332E+03  0.54953249332E+03  0.00000000000E+00 0.  1.
         21   -1    0    0  501  503 -0.00000000000E+00 -0.00000000000E+00 -0.14357722260E+03  0.14357722260E+03  0.00000000000E+00 0.  1.
          6    2    1    2  501    0  0.15013323681E+03 -0.14575824120E+02  0.14494222382E+01  0.22849956233E+03  0.17163189014E+03 0.  0.
         24    2    3    3    0    0  0.14479327940E+03  0.19558594006E+02 -0.43182499258E+02  0.17186236552E+03  0.79525543575E+02 0.  0.
         -6    2    1    2    0  502 -0.15013323681E+03  0.14575824120E+02  0.40450584848E+03  0.46461015360E+03  0.17171246293E+03 0.  0.
        -24    2    5    5    0    0 -0.14835460628E+02 -0.27815017258E+02  0.16473775321E+03  0.18601851485E+03  0.80440005312E+02 0.  0.
          5    1    3    3  501    0  0.53399574152E+01 -0.34134418126E+02  0.44631921496E+02  0.56637196809E+02  0.47000000000E+01 0. -1.
        -11    1    4    4    0    0  0.72784469872E+02  0.48092355784E+02 -0.34918128878E+02  0.93966640164E+02  0.00000000000E+00 0.  1.
         12    1    4    4    0    0  0.72008809526E+02 -0.28533761779E+02 -0.82643703800E+01  0.77895725354E+02  0.00000000000E+00 0. -1.
         -5    1    5    5    0  502 -0.13529777619E+03  0.42390841379E+02  0.23976809527E+03  0.27859163875E+03  0.47000000000E+01 0.  1.
         13    1    6    6    0    0  0.91630342363E+01  0.24568701563E+02  0.32401762530E+02  0.41682808302E+02  0.00000000000E+00 0. -1.
        -14    1    6    6    0    0 -0.23998494864E+02 -0.52383718821E+02  0.13233599068E+03  0.14433570654E+03  0.00000000000E+00 0.  1.
</event>
<event>
12    1  0.8356052E-002  0.5515132E+03  0.7818608E-02  0.1001150E+00
         21   -1    0    0  501  502  0.00000000000E+00  0.00000000000E+00  0.33108883526E+03  0.33108883526E+03  0.00000000000E+00 0.  1.
         21   -1    0    0  502  503 -0.00000000000E+00 -0.00000000000E+00 -0.12641316634E+04  0.12641316634E+04  0.00000000000E+00 0. -1.
         -6    2    1    2    0  503 -0.68110435336E+02 -0.51977976786E+03 -0.88359286304E+03  0.10415868500E+04  0.17133820350E+03 0.  0.
        -24    2    3    3    0    0 -0.38282933760E+01 -0.44239995963E+03 -0.74976908173E+03  0.87410334949E+03  0.78553227530E+02 0.  0.
          6    2    1    2  501    0  0.68110435336E+02  0.51977976786E+03 -0.49449965106E+02  0.55363364868E+03  0.17104057830E+03 0.  0.
         24    2    5    5    0    0  0.80329357665E+02  0.33734099498E+03 -0.84405438626E+02  0.36741554258E+03  0.87282015662E+02 0.  0.
          5    1    5    5  501    0 -0.12218922330E+02  0.18243877288E+03  0.34955473520E+02  0.18621810610E+03  0.47000000000E+01 0. -1.
        -13    1    6    6    0    0  0.70871566696E+02  0.28672683329E+03 -0.37432617521E+02  0.29771841856E+03  0.00000000000E+00 0.  1.
         14    1    6    6    0    0  0.94577909689E+01  0.50614161696E+02 -0.46972821105E+02  0.69697124021E+02  0.00000000000E+00 0. -1.
         -5    1    3    3    0  503 -0.64282141960E+02 -0.77379808234E+02 -0.13382378131E+03  0.16748350050E+03  0.47000000000E+01 0.  1.
         11    1    4    4    0    0  0.11101071481E+02 -0.26982754783E+03 -0.52446264699E+03  0.58990779572E+03  0.00000000000E+00 0. -1.
        -12    1    4    4    0    0 -0.14929364857E+02 -0.17257241179E+03 -0.22530643474E+03  0.28419555377E+03  0.00000000000E+00 0.  1.
</event>
<event>
12    1  0.8356052E-002  0.1793569E+03  0.7818608E-02  0.1169063E+00
         21   -1    0    0  501  502  0.00000000000E+00  0.00000000000E+00  0.17204042589E+03  0.17204042589E+03  0.00000000000E+00 0. -1.
         21   -1    0    0  502  503 -0.00000000000E+00 -0.00000000000E+00 -0.28217156147E+03  0.28217156147E+03  0.00000000000E+00 0. -1.
         -6    2    1    2    0  503 -0.12276610114E+02 -0.43912784132E+02 -0.18856086489E+03  0.25845669464E+03  0.17077943516E+03 0.  0.
        -24    2    3    3    0    0  0.55277561896E+02 -0.42480203087E+02 -0.91354673248E+02  0.13997989465E+03  0.79928205768E+02 0.  0.
          6    2    1    2  501    0  0.12276610114E+02  0.43912784132E+02  0.78429729300E+02  0.19575529272E+03  0.17346430302E+03 0.  0.
         24    2    5    5    0    0  0.55145785060E+02  0.45382972520E+02  0.55156329740E+00  0.10672144323E+03  0.79300002640E+02 0.  0.
          5    1    5    5  501    0 -0.42869174947E+02 -0.14701883876E+01  0.77878166003E+02  0.89033849487E+02  0.47000000000E+01 0. -1.
        -11    1    6    6    0    0 -0.30105936890E+01 -0.13173612376E+02  0.17860803127E+02  0.22396786058E+02  0.00000000000E+00 0.  1.
         12    1    6    6    0    0  0.58156378749E+02  0.58556584896E+02 -0.17309239830E+02  0.84324657173E+02  0.00000000000E+00 0. -1.
         -5    1    3    3    0  503 -0.67554172010E+02 -0.14325810452E+01 -0.97206191639E+02  0.11847680000E+03  0.47000000000E+01 0.  1.
         11    1    4    4    0    0  0.24618584529E+02 -0.25287092320E+02 -0.98040368637E+02  0.10419897132E+03  0.00000000000E+00 0. -1.
        -12    1    4    4    0    0  0.30658977367E+02 -0.17193110767E+02  0.66856953890E+01  0.35780923323E+02  0.00000000000E+00 0.  1.
</event>
<event>
12    1  0.8356052E-002  0.2077120E+03  0.7818608E-02  0.1143677E+00
         21   -1    0    0  503  502  0.00000000000E+00  0.00000000000E+00  0.20487945588E+03  0.20487945588E+03  0.00000000000E+00 0.  1.
         21   -1    0    0  501  503 -0.00000000000E+00 -0.00000000000E+00 -0.50997660076E+03  0.50997660076E+03  0.00000000000E+00 0.  1.
          6    2    1    2  501    0  0.90109190332E+02  0.74686900928E+02 -0.42728168434E+03  0.47509356972E+03  0.17159971698E+03 0.  0.
         24    2    3    3    0    0  0.84325630168E+02  0.25635164845E+02 -0.40234184441E+03  0.41956332574E+03  0.79915273667E+02 0.  0.
         -6    2    1    2    0  502 -0.90109190332E+02 -0.74686900928E+02  0.12218453947E+03  0.23976248691E+03  0.16987992552E+03 0.  0.
        -24    2    5    5    0    0 -0.18304486608E+02 -0.78503358630E+02  0.13663896826E+02  0.10949621843E+03  0.72834663641E+02 0.  0.
          5    1    3    3  501    0  0.57835601641E+01  0.49051736084E+02 -0.24939839936E+02  0.55530243985E+02  0.47000000000E+01 0. -1.
        -13    1    4    4    0    0  0.90459575347E+02  0.13443447943E+02 -0.24302333780E+03  0.25966132516E+03  0.00000000000E+00 0.  1.
         14    1    4    4    0    0 -0.61339451786E+01  0.12191716901E+02 -0.15931850660E+03  0.15990200058E+03  0.00000000000E+00 0. -1.
         -5    1    5    5    0  502 -0.71804703724E+02  0.38164577014E+01  0.10852064264E+03  0.13026626849E+03  0.47000000000E+01 0.  1.
         11    1    6    6    0    0 -0.22100497133E+02 -0.85514222103E+02  0.28369733494E+02  0.92768291640E+02  0.00000000000E+00 0. -1.
        -12    1    6    6    0    0  0.37960105250E+01  0.70108634728E+01 -0.14705836668E+02  0.16727926789E+02  0.00000000000E+00 0.  1.
</event>
<event>
12    1  0.8356052E-002  0.1784118E+03  0.7818608E-02  0.1169428E+00
         21   -1    0    0  503  502  0.00000000000E+00  0.00000000000E+00  0.59897871939E+02  0.59897871939E+02  0.00000000000E+00 0. -1.
         21   -1    0    0  501  503 -0.00000000000E+00 -0.00000000000E+00 -0.57854452726E+03  0.57854452726E+03  0.00000000000E+00 0. -1.
          6    2    1    2  501    0 -0.42307351587E+02  0.19295852980E+02 -0.16750696022E+03  0.24472297621E+03  0.17224549754E+03 0.  0.
         24    2    3    3    0    0  0.33780177626E+02  0.46039872935E+02 -0.10657873299E+03  0.14353555813E+03  0.77347655560E+02 0.  0.
         -6    2    1    2    0  502  0.42307351587E+02 -0.19295852980E+02 -0.35113969510E+03  0.39371942299E+03  0.17191176987E+03 0.  0.
        -24    2    5    5    0    0  0.38709509742E+02 -0.68705364042E+02 -0.30455690684E+03  0.32555571995E+03  0.83742247987E+02 0.  0.
          5    1    3    3  501    0 -0.76087529214E+02 -0.26744019955E+02 -0.60928227224E+02  0.10118741808E+03  0.47000000000E+01 0. -1.
        -13    1    4    4    0    0 -0.25413722433E+01 -0.67187076294E+00 -0.77608423573E+02  0.77652929067E+02  0.00000000000E+00 0.  1.
         14    1    4    4    0    0  0.36321549870E+02  0.46711743698E+02 -0.28970309421E+02  0.65882629063E+02  0.00000000000E+00 0. -1.
         -5    1    5    5    0  502  0.35978418451E+01  0.49409511062E+02 -0.46582788268E+02  0.68163703040E+02  0.47000000000E+01 0.  1.
         13    1    6    6    0    0 -0.32198995223E+01 -0.71099372206E+02 -0.21846849969E+03  0.22976939273E+03  0.00000000000E+00 0. -1.
        -14    1    6    6    0    0  0.41929409265E+02  0.23940081639E+01 -0.86088407146E+02  0.95786327215E+02  0.00000000000E+00 0.  1.
</event>
<event>
12    1  0.8356052E-002  0.2523930E+03  0.7818608E-02  0.1111895E+00
         21   -1    0    0  503  502  0.00000000000E+00  0.00000000000E+00  0.24803961411E+03  0.24803961411E+03  0.00000000000E+00 0. -1.
         21   -1    0    0  501  503 -0.00000000000E+00 -0.00000000000E+00 -0.38566952062E+03  0.38566952062E+03  0.00000000000E+00 0. -1.
          6    2    1    2  501    0  0.15032376709E+03 -0.10567881876E+03 -0.25244470498E+03  0.35697417898E+03  0.17302308430E+03 0.  0.
         24    2    3    3    0    0  0.12692783439E+03 -0.12103506449E+03 -0.13470554673E+03  0.23586355461E+03  0.82011402227E+02 0.  0.
         -6    2    1    2    0  502 -0.15032376709E+03  0.10567881876E+03  0.11481479847E+03  0.27673495575E+03  0.17214688525E+03 0.  0.
        -24    2    5    5    0    0 -0.69387883461E+02  0.39954495413E+02 -0.99344313039E+01  0.11408574959E+03  0.80658696110E+02 0.  0.
          5    1    3    3  501    0  0.23395932700E+02  0.15356245735E+02 -0.11773915825E+03  0.12111062437E+03  0.47000000000E+01 0. -1.
        -11    1    4    4    0    0  0.39296169469E+02 -0.11143497712E+02  0.48105113423E+00  0.40848474713E+02  0.00000000000E+00 0.  1.
         12    1    4    4    0    0  0.87631664922E+02 -0.10989156678E+03 -0.13518659787E+03  0.19501507990E+03  0.00000000000E+00 0. -1.
         -5    1    5    5    0  502 -0.80935883629E+02  0.65724323343E+02  0.12474922978E+03  0.16264920617E+03  0.47000000000E+01 0.  1.
         11    1    6    6    0    0 -0.70955456127E+02  0.18293277323E+02  0.21057925892E+02  0.76241438813E+02  0.00000000000E+00 0. -1.
        -12    1    6    6    0    0  0.15675726660E+01  0.21661218090E+02 -0.30992357196E+02  0.37844310772E+02  0.00000000000E+00 0.  1.
</event>
<event>
12    1  0.8356052E-002  0.2346778E+03  0.7818608E-02  0.1123507E+00
         21   -1    0    0  503  502  0.00000000000E+00  0.00000000000E+00  0.19552278314E+02  0.19552278314E+02  0.00000000000E+00 0. -1.
         21   -1    0    0  501  503 -0.00000000000E+00 -0.00000000000E+00 -0.29037424303E+04  0.29037424303E+04  0.00000000000E+00 0.  1.
          6    2    1    2  501    0 -0.10572970648E+03  0.12119199357E+03 -0.17087987632E+04  0.17248382191E+04  0.17090172349E+03 0.  0.
         24    2    3    3    0    0 -0.10558358206E+03  0.44171517335E+02 -0.13767703093E+04  0.13839611749E+04  0.82176841849E+02 0.  0.
         -6    2    1    2    0  502  0.10572970648E+03 -0.12119199357E+03 -0.11753913889E+04  0.11984564895E+04  0.16996108408E+03 0.  0.
        -24    2    5    5    0    0  0.88981376580E+02 -0.12685469187E+03 -0.11639237656E+04  0.11768655403E+04  0.79272753658E+02 0.  0.
          5    1    3    3  501    0 -0.14612441849E+00  0.77020476237E+02 -0.33202845384E+03  0.34087704421E+03  0.47000000000E+01 0. -1.
        -11    1    4    4    0    0 -0.39205560360E+00  0.16543271345E+02 -0.52693797923E+03  0.52719774989E+03  0.00000000000E+00 0.  1.
         12    1    4    4    0    0 -0.10519152646E+03  0.27628245990E+02 -0.84983233009E+03  0.85676342504E+03  0.00000000000E+00 0. -1.
         -5    1    5    5    0  502  0.16748329898E+02  0.56626982937E+01 -0.11467623244E+02  0.21590949243E+02  0.47000000000E+01 0.  1.
         13    1    6    6    0    0  0.88099054343E+00  0.10656820808E+02 -0.78267102273E+02  0.78994197713E+02  0.00000000000E+00 0. -1.
        -14    1    6    6    0    0  0.88100386036E+02 -0.13751151267E+03 -0.10856566633E+04  0.10978713425E+04  0.00000000000E+00 0.  1.
</event>
<event>
12    1  0.8356052E-002  0.1877735E+03  0.7818608E-02  0.1160507E+00
         21   -1    0    0  503  502  0.00000000000E+00  0.00000000000E+00  0.52650263586E+03  0.52650263586E+03  0.00000000000E+00 0. -1.
         21   -1    0    0  501  503 -0.00000000000E+00 -0.00000000000E+00 -0.70642520624E+02  0.70642520624E+02  0.00000000000E+00 0. -1.
          6    2    1    2  501    0  0.64996575254E+02 -0.39533162868E+02  0.15945595901E+03  0.24626864606E+03  0.17156519870E+03 0.  0.
         24    2    3    3    0    0  0.54884346266E+02  0.33400210929E+02  0.47396213513E+02  0.11210080062E+03  0.78691313938E+02 0.  0.
         -6    2    1    2    0  502 -0.64996575254E+02  0.39533162868E+02  0.29640415622E+03  0.35087651042E+03  0.17167258366E+03 0.  0.
        -24    2    5    5    0    0 -0.90919677924E+02  0.76771749489E+02  0.21812667026E+03  0.26027753475E+03  0.77491041160E+02 0.  0.
          5    1    3    3  501    0  0.10112228988E+02 -0.72933373797E+02  0.11205974550E+03  0.13416784544E+03  0.47000000000E+01 0. -1.
        -13    1    4    4    0    0  0.53682830508E+02  0.42749366721E+01  0.59753153887E+02  0.80439795961E+02  0.00000000000E+00 0.  1.
         14    1    4    4    0    0  0.12015157576E+01  0.29125274256E+02 -0.12356940373E+02  0.31661004659E+02  0.00000000000E+00 0. -1.
         -5    1    5    5    0  502  0.25923102670E+02 -0.37238586620E+02  0.78277485959E+02  0.90598975676E+02  0.47000000000E+01 0.  1.
         11    1    6    6    0    0  0.81250841581E+01  0.16997977334E+02  0.81186995147E+01  0.20514909403E+02  0.00000000000E+00 0. -1.
        -12    1    6    6    0    0 -0.99044762082E+02  0.59773772155E+02  0.21000797075E+03  0.23976262534E+03  0.00000000000E+00 0.  1.
</event>
<event>
12    1  0.8356052E-002  0.1982926E+03  0.7818608E-02  0.1151272E+00
         21   -1    0    0  503  502  0.00000000000E+00  0.00000000000E+00  0.18654327790E+03  0.18654327790E+03  0.00000000000E+00 0.  1.
         21   -1    0    0  501  503 -0.00000000000E+00 -0.00000000000E+00 -0.29170945504E+03  0.29170945504E+03  0.00000000000E+00 0.  1.
          6    2    1    2  501    0 -0.50642706040E+02 -0.83186947134E+02 -0.17882380421E+03  0.26672165107E+03  0.17227226808E+03 0.  0.
         24    2    3    3    0    0 -0.99875900482E+02 -0.64694955312E+02 -0.14123902759E+03  0.20190987259E+03  0.81599638436E+02 0.  0.
         -6    2    1    2    0  502  0.50642706040E+02  0.83186947134E+02  0.73657627074E+02  0.21153108187E+03  0.17272869108E+03 0.  0.
        -24    2    5    5    0    0 -0.46233560735E+01  0.68448284076E+02  0.10148240467E+03  0.14775119430E+03  0.82614732001E+02 0.  0.
          5    1    3    3  501    0  0.49233194442E+02 -0.18491991822E+02 -0.37584776615E+02  0.64811778480E+02  0.47000000000E+01 0. -1.
        -13    1    4    4    0    0 -0.55729137710E+02 -0.10558143898E+01 -0.99192468625E+02  0.11378047884E+03  0.00000000000E+00 0.  1.
         14    1    4    4    0    0 -0.44146762772E+02 -0.63639140922E+02 -0.42046558967E+02  0.88129393743E+02  0.00000000000E+00 0. -1.
         -5    1    5    5    0  502  0.55266062113E+02  0.14738663058E+02 -0.27824777600E+02  0.63779887572E+02  0.47000000000E+01 0.  1.
         11    1    6    6    0    0 -0.12906072032E+02 -0.88154289479E+01 -0.45639424625E+01  0.16282139098E+02  0.00000000000E+00 0. -1.
        -12    1    6    6    0    0  0.82827159580E+01  0.77263713024E+02  0.10604634714E+03  0.13146905520E+03  0.00000000000E+00 0.  1.
</event>
<event>
12    1  0.8356052E-002  0.2716551E+03  0.7818608E-02  0.1100519E+00
         21   -1    0    0  503  502  0.00000000000E+00  0.00000000000E+00  0.49177586610E+02  0.49177586610E+02  0.00000000000E+00 0. -1.
         21   -1    0    0  501  503 -0.00000000000E+00 -0.00000000000E+00 -0.25264998792E+04  0.25264998792E+04  0.00000000000E+00 0. -1.
          6    2    1    2  501    0  0.18790408391E+03 -0.91574293460E+02 -0.20603959394E+04  0.20780590477E+04  0.17147647808E+03 0.  0.
         24    2    3    3    0    0  0.17296822583E+03 -0.98868825274E+02 -0.13159241959E+04  0.13333869340E+04  0.81062781681E+02 0.  0.
         -6    2    1    2    0  502 -0.18790408391E+03  0.91574293460E+02 -0.41692635317E+03  0.49761841812E+03  0.17350132597E+03 0.  0.
        -24    2    5    5    0    0 -0.19194284722E+02  0.48194908801E+02 -0.16462653705E+03  0.19098825886E+03  0.81752360944E+02 0.  0.
          5    1    3    3  501    0  0.14935858080E+02  0.72945318148E+01 -0.74447174347E+03  0.74467211367E+03  0.47000000000E+01 0. -1.
        -13    1    4    4    0    0  0.27777357529E+02  0.93308843366E+01 -0.10549918502E+03  0.10949303646E+03  0.00000000000E+00 0.  1.
         14    1    4    4    0    0  0.14519086830E+03 -0.10819970961E+03 -0.12104250109E+04  0.12238938975E+04  0.00000000000E+00 0. -1.
         -5    1    5    5    0  502 -0.16870979919E+03  0.43379384658E+02 -0.25229981612E+03  0.30663015926E+03  0.47000000000E+01 0.  1.
         11    1    6    6    0    0 -0.11577268855E+02 -0.22704092805E+02 -0.41271161586E+02  0.48505852872E+02  0.00000000000E+00 0. -1.
        -12    1    6    6    0    0 -0.76170158672E+01  0.70899001606E+02 -0.12335537546E+03  0.14248240598E+03  0.00000000000E+00 0.  1.
</event>
<event>
12    1  0.8356052E-002  0.2174555E+03  0.7818608E-02  0.1136070E+00
         21   -1    0    0  501  502  0.00000000000E+00  0.00000000000E+00  0.10652112370E+03  0.10652112370E+03  0.00000000000E+00 0. -1.
         21   -1    0    0  502  503 -0.00000000000E+00 -0.00000000000E+00 -0.75088937914E+03  0.75088937914E+03  0.00000000000E+00 0. -1.
         -6    2    1    2    0  503 -0.10879706467E+03  0.76055467965E+02 -0.59823898013E+03  0.63653498705E+03  0.17223726922E+03 0.  0.
        -24    2    3    3    0    0 -0.12220670633E+03  0.80586181229E+01 -0.37371203895E+03  0.40150769631E+03  0.80921701313E+02 0.  0.
          6    2    1    2  501    0  0.10879706467E+03 -0.76055467965E+02 -0.46129275309E+02  0.22087551578E+03  0.17040201860E+03 0.  0.
         24    2    5    5    0    0  0.22210336340E+02  0.12913167443E+02 -0.52318032261E+02  0.96484719009E+02  0.76890022558E+02 0.  0.
          5    1    5    5  501    0  0.86586728327E+02 -0.88968635408E+02  0.61887569519E+01  0.12439079677E+03  0.47000000000E+01 0. -1.
        -11    1    6    6    0    0 -0.11534942812E+02 -0.26075622992E+02 -0.11600826955E+02  0.30782660803E+02  0.00000000000E+00 0.  1.
         12    1    6    6    0    0  0.33745279152E+02  0.38988790435E+02 -0.40717205305E+02  0.65702058206E+02  0.00000000000E+00 0. -1.
         -5    1    3    3    0  503  0.13409641661E+02  0.67996849842E+02 -0.22452694119E+03  0.23502729075E+03  0.47000000000E+01 0.  1.
         13    1    4    4    0    0 -0.14601273696E+02  0.21286444684E+01 -0.17356322318E+03  0.17418932448E+03  0.00000000000E+00 0. -1.
        -14    1    4    4    0    0 -0.10760543263E+03  0.59299736545E+01 -0.20014881576E+03  0.22731837183E+03  0.00000000000E+00 0.  1.
</event>
<event>
12    1  0.8356052E-002  0.2838691E+03  0.7818608E-02  0.1093634E+00
         21   -1    0    0  503  502  0.00000000000E+00  0.00000000000E+00  0.20588843751E+03  0.20588843751E+03  0.00000000000E+00 0. -1.
         21   -1    0    0  501  503 -0.00000000000E+00 -0.00000000000E+00 -0.53545656213E+03  0.53545656213E+03  0.00000000000E+00 0. -1.
          6    2    1    2  501    0 -0.70238733084E+02  0.21432830948E+03 -0.35726422988E+03  0.45612804345E+03  0.17188646893E+03 0.  0.
         24    2    3    3    0    0 -0.11360631278E+03  0.17327924122E+03 -0.29980060050E+03  0.37312243113E+03  0.80049102535E+02 0.  0.
         -6    2    1    2    0  502  0.70238733084E+02 -0.21432830948E+03  0.27696105251E+02  0.28521695620E+03  0.17237033964E+03 0.  0.
        -24    2    5    5    0    0  0.17267865050E+02 -0.46261508249E+02 -0.32337066033E+02  0.98995490756E+02  0.79473989717E+02 0.  0.
          5    1    3    3  501    0  0.43367579697E+02  0.41049068265E+02 -0.57463629379E+02  0.83005612314E+02  0.47000000000E+01 0. -1.
        -11    1    4    4    0    0 -0.11513330337E+03  0.12992903012E+03 -0.26809457361E+03  0.31939306631E+03  0.00000000000E+00 0.  1.
         12    1    4    4    0    0  0.15269905928E+01  0.43350211100E+02 -0.31706026891E+02  0.53729364819E+02  0.00000000000E+00 0. -1.
         -5    1    5    5    0  502  0.52970868034E+02 -0.16806680123E+03  0.60033171285E+02  0.18622146544E+03  0.47000000000E+01 0.  1.
         13    1    6    6    0    0 -0.90710946564E+01 -0.61047412407E+02 -0.12825322335E+02  0.63036181776E+02  0.00000000000E+00 0. -1.
        -14    1    6    6    0    0  0.26338959706E+02  0.14785904159E+02 -0.19511743698E+02  0.35959308980E+02  0.00000000000E+00 0.  1.
</event>
<event>
12    1  0.8356052E-002  0.2435760E+03  0.7818608E-02  0.1117651E+00
         21   -1    0    0  501  502  0.00000000000E+00  0.00000000000E+00  0.12785729554E+03  0.12785729554E+03  0.00000000000E+00 0.  1.
         21   -1    0    0  502  503 -0.00000000000E+00 -0.00000000000E+00 -0.50465588889E+03  0.50465588889E+03  0.00000000000E+00 0. -1.
         -6    2    1    2    0  503 -0.15257495735E+03  0.78238020032E+02 -0.28040622586E+03  0.37055758986E+03  0.17112852046E+03 0.  0.
        -24    2    3    3    0    0 -0.23191634320E+02 -0.62320693191E+00 -0.60581181395E+02  0.10352898171E+03  0.80684138627E+02 0.  0.
          6    2    1    2  501    0  0.15257495735E+03 -0.78238020032E+02 -0.96392367493E+02  0.26195559457E+03  0.17299982551E+03 0.  0.
         24    2    5    5    0    0  0.14018338716E+03 -0.11873124781E+03 -0.89557834469E+02  0.21880407838E+03  0.78141715858E+02 0.  0.
          5    1    5    5  501    0  0.12391570183E+02  0.40493227778E+02 -0.68345330245E+01  0.43151516186E+02  0.47000000000E+01 0. -1.
        -11    1    6    6    0    0  0.57271823250E+02 -0.43153571742E+02  0.52759045780E+01  0.71903599782E+02  0.00000000000E+00 0.  1.
         12    1    6    6    0    0  0.82911563915E+02 -0.75577676068E+02 -0.94833739047E+02  0.14690047860E+03  0.00000000000E+00 0. -1.
         -5    1    3    3    0  503 -0.12938332303E+03  0.78861226964E+02 -0.21982504447E+03  0.26702860815E+03  0.47000000000E+01 0.  1.
         11    1    4    4    0    0 -0.47050040758E+02 -0.21390744722E+02 -0.43656827788E+02  0.67654925228E+02  0.00000000000E+00 0. -1.
        -12    1    4    4    0    0  0.23858406438E+02  0.20767537790E+02 -0.16924353607E+02  0.35874056484E+02  0.00000000000E+00 0.  1.
</event>
<event>
12    1  0.8356052E-002  0.1806402E+03  0.7818608E-02  0.1167274E+00
         21   -1    0    0  503  502  0.00000000000E+00  0.00000000000E+00  0.46963694824E+03  0.46963694824E+03  0.00000000000E+00 0.  1.
         21   -1    0    0  501  503 -0.00000000000E+00 -0.00000000000E+00 -0.11005010008E+03  0.11005010008E+03  0.00000000000E+00 0.  1.
          6    2    1    2  501    0 -0.47666329304E+02 -0.25495298714E+02  0.36213045439E+01  0.18067647329E+03  0.17236236523E+03 0.  0.
         24    2    3    3    0    0 -0.32722728479E+02 -0.80643112348E+02 -0.18788674974E+02  0.11912251536E+03  0.79139565522E+02 0.  0.
         -6    2    1    2    0  502  0.47666329304E+02  0.25495298714E+02  0.35596554362E+03  0.39901057504E+03  0.17197639821E+03 0.  0.
        -24    2    5    5    0    0  0.16094419816E+02 -0.14873796946E+02  0.84531083094E+02  0.12274040706E+03  0.86252207689E+02 0.  0.
          5    1    3    3  501    0 -0.14943600825E+02  0.55147813634E+02  0.22409979518E+02  0.61553957925E+02  0.47000000000E+01 0. -1.
        -11    1    4    4    0    0 -0.12257368743E+02  0.13462304262E+02  0.68673785854E+01  0.19458612828E+02  0.00000000000E+00 0.  1.
         12    1    4    4    0    0 -0.20465359736E+02 -0.94105416611E+02 -0.25656053559E+02  0.99663902537E+02  0.00000000000E+00 0. -1.
         -5    1    5    5    0  502  0.31571909487E+02  0.40369095661E+02  0.27143446053E+03  0.27627016798E+03  0.47000000000E+01 0.  1.
         11    1    6    6    0    0 -0.11827397080E+02  0.27054849897E+02  0.59645073837E+02  0.66553640453E+02  0.00000000000E+00 0. -1.
        -12    1    6    6    0    0  0.27921816896E+02 -0.41928646843E+02  0.24886009257E+02  0.56186766606E+02  0.00000000000E+00 0.  1.
</event>
<event>
12    1  0.8356052E-002  0.1907020E+03  0.7818608E-02  0.1158276E+00
         21   -1    0    0  501  502  0.00000000000E+00  0.00000000000E+00  0.15591017909E+03  0.15591017909E+03  0.00000000000E+00 0.  1.
         21   -1    0    0  502  503 -0.00000000000E+00 -0.00000000000E+00 -0.32788328757E+03  0.32788328757E+03  0.00000000000E+00 0.  1.
         -6    2    1    2    0  503 -0.42417332049E+02 -0.68494657710E+02 -0.21789451967E+03  0.28956048310E+03  0.17284820934E+03 0.  0.
        -24    2    3    3    0    0 -0.14984695861E+02 -0.54351923615E+02 -0.23478632378E+03  0.25406415227E+03  0.79027229013E+02 0.  0.
          6    2    1    2  501    0  0.42417332049E+02  0.68494657710E+02  0.45921411195E+02  0.19423298357E+03  0.17066612935E+03 0.  0.
         24    2    5    5    0    0  0.11205061381E+02  0.91466024932E+02 -0.13676211928E+02  0.12298793999E+03  0.80295750162E+02 0.  0.
          5    1    5    5  501    0  0.31212270668E+02 -0.22971367221E+02  0.59597623123E+02  0.71245043576E+02  0.47000000000E+01 0. -1.
        -11    1    6    6    0    0  0.41294696023E+02  0.76126995648E+02 -0.14935144489E+00  0.86605967992E+02  0.00000000000E+00 0.  1.
         12    1    6    6    0    0 -0.30089634642E+02  0.15339029284E+02 -0.13526860483E+02  0.36381972003E+02  0.00000000000E+00 0. -1.
         -5    1    3    3    0  503 -0.27432636188E+02 -0.14142734096E+02  0.16891804106E+02  0.35496330823E+02  0.47000000000E+01 0.  1.
         13    1    4    4    0    0 -0.32043917097E+02  0.57921979205E+01 -0.10630132521E+03  0.11117703864E+03  0.00000000000E+00 0. -1.
        -14    1    4    4    0    0  0.17059221236E+02 -0.60144121535E+02 -0.12848499857E+03  0.14288711363E+03  0.00000000000E+00 0.  1.
</event>
<event>
12    1  0.8356052E-002  0.1789811E+03  0.7818608E-02  0.1170237E+00
         21   -1    0    0  501  502  0.00000000000E+00  0.00000000000E+00  0.29042114924E+02  0.29042114924E+02  0.00000000000E+00 0.  1.
         21   -1    0    0  502  503 -0.00000000000E+00 -0.00000000000E+00 -0.14065172046E+04  0.14065172046E+04  0.00000000000E+00 0.  1.
         -6    2    1    2    0  503 -0.98637437789E+01 -0.11344447050E+02 -0.10497621439E+04  0.10649106918E+04  0.17834862708E+03 0.  0.
        -24    2    3    3    0    0 -0.33292513315E+02  0.36989514912E+02 -0.33596760975E+03  0.34908263553E+03  0.80671159507E+02 0.  0.
          6    2    1    2  501    0  0.98637437789E+01  0.11344447050E+02 -0.32771294571E+03  0.37064862768E+03  0.17250692883E+03 0.  0.
         24    2    5    5    0    0  0.45255195914E+02  0.49825699300E+02 -0.13069301142E+03  0.16675574853E+03  0.78715839359E+02 0.  0.
          5    1    5    5  501    0 -0.35391452135E+02 -0.38481252250E+02 -0.19701993429E+03  0.20389287915E+03  0.47000000000E+01 0. -1.
        -13    1    6    6    0    0  0.11450033944E+02  0.61415412029E+02 -0.55765099544E+02  0.83741879840E+02  0.00000000000E+00 0.  1.
         14    1    6    6    0    0  0.33805161970E+02 -0.11589712729E+02 -0.74927911873E+02  0.83013868688E+02  0.00000000000E+00 0. -1.
         -5    1    3    3    0  503  0.23428769537E+02 -0.48333961963E+02 -0.71379453420E+03  0.71582805630E+03  0.47000000000E+01 0.  1.
         13    1    4    4    0    0 -0.14074996070E+02  0.41900591461E+02 -0.72796538674E+02  0.85165140299E+02  0.00000000000E+00 0. -1.
        -14    1    4    4    0    0 -0.19217517245E+02 -0.49110765485E+01 -0.26317107107E+03  0.26391749523E+03  0.00000000000E+00 0.  1.
</event>
<event>
12    1  0.8356052E-002  0.2309061E+03  0.7818608E-02  0.1126069E+00
         21   -1    0    0  503  502  0.00000000000E+00  0.00000000000E+00  0.10207129693E+03  0.10207129693E+03  0.00000000000E+00 0.  1.
         21   -1    0    0  501  503 -0.00000000000E+00 -0.00000000000E+00 -0.82340162888E+03  0.82340162888E+03  0.00000000000E+00 0.  1.
          6    2    1    2  501    0 -0.13723961446E+03  0.69068518376E+02 -0.64067065306E+03  0.68088428076E+03  0.17187014308E+03 0.  0.
         24    2    3    3    0    0 -0.52868162770E+02  0.10242523926E+03 -0.33027391532E+03  0.35746591782E+03  0.73587030018E+02 0.  0.
         -6    2    1    2    0  502  0.13723961446E+03 -0.69068518376E+02 -0.80659678892E+02  0.24458864505E+03  0.17237299522E+03 0.  0.
        -24    2    5    5    0    0  0.11123565308E+03 -0.59700146160E+02 -0.12372872639E+03  0.19319793326E+03  0.77969004829E+02 0.  0.
          5    1    3    3  501    0 -0.84371451688E+02 -0.33356720885E+02 -0.31039673774E+03  0.32341836294E+03  0.47000000000E+01 0. -1.
        -13    1    4    4    0    0 -0.12156413712E+01  0.10580107611E+02  0.14592803595E+00  0.10650716220E+02  0.00000000000E+00 0.  1.
         14    1    4    4    0    0 -0.51652521399E+02  0.91845131650E+02 -0.33041984336E+03  0.34681520160E+03  0.00000000000E+00 0. -1.
         -5    1    5    5    0  502  0.26003961379E+02 -0.93683722157E+01  0.43069047501E+02  0.51390711787E+02  0.47000000000E+01 0.  1.
         11    1    6    6    0    0 -0.84571605763E+01 -0.25868550604E+01 -0.28736530068E+02  0.30066651700E+02  0.00000000000E+00 0. -1.
        -12    1    6    6    0    0  0.11969281366E+03 -0.57113291100E+02 -0.94992196324E+02  0.16313128156E+03  0.00000000000E+00 0.  1.
</event>
<event>
12    1  0.8356052E-002  0.1893477E+03  0.7818608E-02  0.1160108E+00
         21   -1    0    0  503  502  0.00000000000E+00  0.00000000000E+00  0.34363167556E+03  0.34363167556E+03  0.00000000000E+00 0.  1.
         21   -1    0    0  501  503 -0.00000000000E+00 -0.00000000000E+00 -0.12778584475E+03  0.12778584475E+03  0.00000000000E+00 0.  1.
          6    2    1    2  501    0 -0.28278798200E+02  0.64523435338E+02  0.27181963167E+01  0.18936721248E+03  0.17575434115E+03 0.  0.
         24    2    3    3    0    0 -0.56101763732E+02  0.17866641883E+02  0.57021008435E+02  0.11241359534E+03  0.76933713210E+02 0.  0.
         -6    2    1    2    0  502  0.28278798200E+02 -0.64523435338E+02  0.21312763450E+03  0.28205030784E+03  0.17078062955E+03 0.  0.
        -24    2    5    5    0    0 -0.42898091425E+02 -0.55968864511E+02  0.16198961668E+03  0.19386574476E+03  0.79815606477E+02 0.  0.
          5    1    3    3  501    0  0.27822965533E+02  0.46656793454E+02 -0.54302812119E+02  0.76953617137E+02  0.47000000000E+01 0. -1.
        -11    1    4    4    0    0 -0.20326921104E+02 -0.29989612359E+02  0.29064146343E+02  0.46446584090E+02  0.00000000000E+00 0.  1.
         12    1    4    4    0    0 -0.35774842629E+02  0.47856254242E+02  0.27956862092E+02  0.65967011250E+02  0.00000000000E+00 0. -1.
         -5    1    5    5    0  502  0.71176889625E+02 -0.85545708261E+01  0.51138017817E+02  0.88184563076E+02  0.47000000000E+01 0.  1.
         11    1    6    6    0    0 -0.35079619081E+02 -0.34986659661E+02  0.25822613229E+02  0.55869968526E+02  0.00000000000E+00 0. -1.
        -12    1    6    6    0    0 -0.78184723440E+01 -0.20982204851E+02  0.13616700345E+03  0.13799577624E+03  0.00000000000E+00 0.  1.
</event>
<event>
12    1  0.8356052E-002  0.1797140E+03  0.7818608E-02  0.1168245E+00
         21   -1    0    0  501  502  0.00000000000E+00  0.00000000000E+00  0.68236458374E+03  0.68236458374E+03  0.00000000000E+00 0.  1.
         21   -1    0    0  502  503 -0.00000000000E+00 -0.00000000000E+00 -0.14395451349E+03  0.14395451349E+03  0.00000000000E+00 0.  1.
         -6    2    1    2    0  503  0.10901516159E+02 -0.44921148925E+02 -0.69765569289E+02  0.19214663387E+03  0.17296341109E+03 0.  0.
        -24    2    3    3    0    0 -0.14036469860E+02  0.18124707436E+02  0.13567969485E+02  0.84614072129E+02  0.80311418245E+02 0.  0.
          6    2    1    2  501    0 -0.10901516159E+02  0.44921148925E+02  0.60817563953E+03  0.63417246335E+03  0.17366736042E+03 0.  0.
         24    2    5    5    0    0  0.47671160454E+01  0.85478519804E+02  0.54472337859E+03  0.55710959430E+03  0.79487345737E+02 0.  0.
          5    1    5    5  501    0 -0.15668632204E+02 -0.40557370879E+02  0.63452260943E+02  0.77062869052E+02  0.47000000000E+01 0. -1.
        -11    1    6    6    0    0  0.12127519800E+02  0.48856384816E+01  0.27969758841E+03  0.28000301277E+03  0.00000000000E+00 0.  1.
         12    1    6    6    0    0 -0.73604037551E+01  0.80592881322E+02  0.26502579018E+03  0.27710658153E+03  0.00000000000E+00 0. -1.
         -5    1    3    3    0  503  0.24937986019E+02 -0.63045856361E+02 -0.83333538773E+02  0.10753256175E+03  0.47000000000E+01 0.  1.
         13    1    4    4    0    0  0.11403514360E+02  0.44548231948E+02  0.15318008376E+01  0.46010124139E+02  0.00000000000E+00 0. -1.
        -14    1    4    4    0    0 -0.25439984220E+02 -0.26423524512E+02  0.12036168647E+02  0.38603947990E+02  0.00000000000E+00 0.  1.
</event>
<event>
12    1  0.8356052E-002  0.2670078E+03  0.7818608E-02  0.1103219E+00
         21   -1    0    0  503  502  0.00000000000E+00  0.00000000000E+00  0.76600041602E+03  0.76600041602E+03  0.00000000000E+00 0. -1.
         21   -1    0    0  501  503 -0.00000000000E+00 -0.00000000000E+00 -0.10271837990E+03  0.10271837990E+03  0.00000000000E+00 0. -1.
          6    2    1    2  501    0  0.19855476496E+03  0.48715864099E+02  0.19586816831E+03  0.33114577195E+03  0.17174385816E+03 0.  0.
         24    2    3    3    0    0  0.42664412853E+02  0.33524875626E+01  0.98801651127E+02  0.14192728297E+03  0.92466729631E+02 0.  0.
         -6    2    1    2    0  502 -0.19855476496E+03 -0.48715864099E+02  0.46741386780E+03  0.53757302397E+03  0.16944557292E+03 0.  0.
        -24    2    5    5    0    0 -0.15036255037E+03 -0.37757461946E+02  0.45378615109E+03  0.48609117486E+03  0.79550216014E+02 0.  0.
          5    1    3    3  501    0  0.15589035211E+03  0.45363376537E+02  0.97066517186E+02  0.18921848898E+03  0.47000000000E+01 0. -1.
        -13    1    4    4    0    0 -0.33210734419E+01  0.35245947584E+02  0.71226459535E+02  0.79539392051E+02  0.00000000000E+00 0.  1.
         14    1    4    4    0    0  0.45985486295E+02 -0.31893460021E+02  0.27575191592E+02  0.62387890918E+02  0.00000000000E+00 0. -1.
         -5    1    5    5    0  502 -0.48192214597E+02 -0.10958402153E+02  0.13627716714E+02  0.51481849116E+02  0.47000000000E+01 0.  1.
         13    1    6    6    0    0 -0.73855375215E+02  0.22090045789E+02  0.20501757141E+03  0.21903148440E+03  0.00000000000E+00 0. -1.
        -14    1    6    6    0    0 -0.76507175152E+02 -0.59847507735E+02  0.24876857967E+03  0.26705969045E+03  0.00000000000E+00 0.  1.
</event>
<event>
12    1  0.8356052E-002  0.2250056E+03  0.7818608E-02  0.1131072E+00
         21   -1    0    0  501  502  0.00000000000E+00  0.00000000000E+00  0.40970605524E+03  0.40970605524E+03  0.00000000000E+00 0.  1.
         21   -1    0    0  502  503 -0.00000000000E+00 -0.00000000000E+00 -0.21621375577E+03  0.21621375577E+03  0.00000000000E+00 0. -1.
         -6    2    1    2    0  503 -0.41591067464E+02  0.13744454110E+03 -0.11151931930E+03  0.24689527456E+03  0.16703262929E+03 0.  0.
        -24    2    3    3    0    0 -0.54091750539E+02  0.36529297856E+02 -0.11511454445E+02  0.10419343003E+03  0.80395585702E+02 0.  0.
          6    2    1    2  501    0  0.41591067464E+02 -0.13744454110E+03  0.30501161878E+03  0.37902453645E+03  0.17322440033E+03 0.  0.
         24    2    5    5    0    0  0.70335017628E+02 -0.10198895193E+03  0.29873895408E+03  0.33271309298E+03  0.78129882447E+02 0.  0.
          5    1    5    5  501    0 -0.28743950164E+02 -0.35455589167E+02  0.62726646982E+01  0.46311443474E+02  0.47000000000E+01 0. -1.
        -13    1    6    6    0    0  0.83827155548E+02 -0.62253198778E+02  0.21828852898E+03  0.24197589683E+03  0.00000000000E+00 0.  1.
         14    1    6    6    0    0 -0.13492137920E+02 -0.39735753156E+02  0.80450425107E+02  0.90737196146E+02  0.00000000000E+00 0. -1.
         -5    1    3    3    0  503  0.12500683074E+02  0.10091524325E+03 -0.10000786486E+03  0.14270184452E+03  0.47000000000E+01 0.  1.
         11    1    4    4    0    0  0.13836554676E+02  0.32411005202E+02 -0.74466821011E+01  0.36019114063E+02  0.00000000000E+00 0. -1.
        -12    1    4    4    0    0 -0.67928305215E+02  0.41182926542E+01 -0.40647723436E+01  0.68174315970E+02  0.00000000000E+00 0.  1.
</event>
<event>
12    1  0.8356052E-002  0.2477477E+03  0.7818608E-02  0.1114787E+00
         21   -1    0    0  503  502  0.00000000000E+00  0.00000000000E+00  0.10610413104E+03  0.10610413104E+03  0.00000000000E+00 0. -1.
         21   -1    0    0  501  503 -0.00000000000E+00 -0.00000000000E+00 -0.58894513125E+03  0.58894513125E+03  0.00000000000E+00 0. -1.
          6    2    1    2  501    0 -0.14791769311E+03  0.99127074115E+02 -0.19363128613E+03  0.31443915707E+03  0.17225878141E+03 0.  0.
         24    2    3    3    0    0 -0.11430263844E+03  0.13677348038E+03 -0.16381778109E+03  0.25563304440E+03  0.82096954258E+02 0.  0.
         -6    2    1    2    0  502  0.14791769311E+03 -0.99127074115E+02 -0.28920971408E+03  0.38061010522E+03  0.17180213247E+03 0.  0.
        -24    2    5    5    0    0  0.10120655803E+03 -0.44041909181E+02 -0.77062405780E+02  0.15645641698E+03  0.79734176339E+02 0.  0.
          5    1    3    3  501    0 -0.33615054678E+02 -0.37646406261E+02 -0.29813505041E+02  0.58806112677E+02  0.47000000000E+01 0. -1.
        -13    1    4    4    0    0 -0.54814217555E+02  0.55831840003E+02 -0.20971845326E+02  0.81003772139E+02  0.00000000000E+00 0.  1.
         14    1    4    4    0    0 -0.59488420881E+02  0.80941640373E+02 -0.14284593576E+03  0.17462927226E+03  0.00000000000E+00 0. -1.
         -5    1    5    5    0  502  0.46711135088E+02 -0.55085164934E+02 -0.21214730830E+03  0.22415368825E+03  0.47000000000E+01 0.  1.
         11    1    6    6    0    0  0.89561026399E+02 -0.87321985948E+01 -0.78260451610E+02  0.11925655969E+03  0.00000000000E+00 0. -1.
        -12    1    6    6    0    0  0.11645531627E+02 -0.35309710586E+02  0.11980458301E+01  0.37199857290E+02  0.00000000000E+00 0.  1.
</event>
<event>
12    1  0.8356052E-002  0.1860158E+03  0.7818608E-02  0.1162304E+00
         21   -1    0    0  503  502  0.00000000000E+00  0.00000000000E+00  0.10843182683E+03  0.10843182683E+03  0.00000000000E+00 0.  1.
         21   -1    0    0  501  503 -0.00000000000E+00 -0.00000000000E+00 -0.37551259869E+03  0.37551259869E+03  0.00000000000E+00 0.  1.
          6    2    1    2  501    0 -0.98345722700E+01 -0.70441530100E+02 -0.38291045976E+02  0.18907729082E+03  0.17095405736E+03 0.  0.
         24    2    3    3    0    0  0.37037011896E+02 -0.97434456047E+02 -0.32396779328E+02  0.13446597485E+03  0.78526005915E+02 0.  0.
         -6    2    1    2    0  502  0.98345722700E+01  0.70441530100E+02 -0.22878972588E+03  0.29486713469E+03  0.17188123946E+03 0.  0.
        -24    2    5    5    0    0 -0.28968886731E+02  0.10417506760E+03 -0.16436938609E+03  0.21230969916E+03  0.79790175886E+02 0.  0.
          5    1    3    3  501    0 -0.46871584166E+02  0.26992925947E+02 -0.58942666471E+01  0.54611315977E+02  0.47000000000E+01 0. -1.
        -11    1    4    4    0    0  0.20973526945E+02  0.51502202939E+01  0.80269475563E+01  0.23040084389E+02  0.00000000000E+00 0.  1.
         12    1    4    4    0    0  0.16063484951E+02 -0.10258467634E+03 -0.40423726885E+02  0.11142589046E+03  0.00000000000E+00 0. -1.
         -5    1    5    5    0  502  0.38803459001E+02 -0.33733537497E+02 -0.64420339791E+02  0.82557435530E+02  0.47000000000E+01 0.  1.
         11    1    6    6    0    0 -0.49855728020E+02  0.43074133768E+02 -0.57506232550E+02  0.87452509389E+02  0.00000000000E+00 0. -1.
        -12    1    6    6    0    0  0.20886841289E+02  0.61100933829E+02 -0.10686315354E+03  0.12485718977E+03  0.00000000000E+00 0.  1.
</event>
<event>
12    1  0.8356052E-002  0.1940266E+03  0.7818608E-02  0.1155257E+00
         21   -1    0    0  503  502  0.00000000000E+00  0.00000000000E+00  0.43069401159E+02  0.43069401159E+02  0.00000000000E+00 0. -1.
         21   -1    0    0  501  503 -0.00000000000E+00 -0.00000000000E+00 -0.10272568912E+04  0.10272568912E+04  0.00000000000E+00 0. -1.
          6    2    1    2  501    0 -0.63911437348E+02  0.55635324801E+02 -0.27846018991E+03  0.33841280260E+03  0.17263599396E+03 0.  0.
         24    2    3    3    0    0  0.20431935691E+02  0.12503087516E+02 -0.17871347518E+03  0.20076945344E+03  0.88295390765E+02 0.  0.
         -6    2    1    2    0  502  0.63911437348E+02 -0.55635324801E+02 -0.70572730010E+03  0.73191348972E+03  0.17454619201E+03 0.  0.
        -24    2    5    5    0    0  0.15158913452E+02 -0.16731975364E+02 -0.62026097943E+03  0.62600380579E+03  0.81531163340E+02 0.  0.
          5    1    3    3  501    0 -0.84343373040E+02  0.43132237285E+02 -0.99746714730E+02  0.13764334916E+03  0.47000000000E+01 0. -1.
        -13    1    4    4    0    0 -0.19998463203E+01 -0.35293018304E+02 -0.46556508563E+02  0.58456009236E+02  0.00000000000E+00 0.  1.
         14    1    4    4    0    0  0.22431782012E+02  0.47796105820E+02 -0.13215696662E+03  0.14231344420E+03  0.00000000000E+00 0. -1.
         -5    1    5    5    0  502  0.48752523896E+02 -0.38903349437E+02 -0.85466320665E+02  0.10590968394E+03  0.47000000000E+01 0.  1.
         13    1    6    6    0    0  0.34633888290E+02 -0.39177347357E+02 -0.46444630425E+03  0.46738072307E+03  0.00000000000E+00 0. -1.
        -14    1    6    6    0    0 -0.19474974838E+02  0.22445371993E+02 -0.15581467518E+03  0.15862308272E+03  0.00000000000E+00 0.  1.
</event>
<event>
12    1  0.8356052E-002  0.2697889E+03  0.7818608E-02  0.1101561E+00
         21   -1    0    0  501  502  0.00000000000E+00  0.00000000000E+00  0.12625768535E+04  0.12625768535E+04  0.00000000000E+00 0.  1.
         21   -1    0    0  502  503 -0.00000000000E+00 -0.00000000000E+00 -0.57578697497E+02  0.57578697497E+02  0.00000000000E+00 0. -1.
         -6    2    1    2    0  503 -0.17822537476E+03  0.10624944346E+03  0.63690765524E+03  0.69125742243E+03  0.17068167540E+03 0.  0.
        -24    2    3    3    0    0 -0.18789762841E+03  0.12679914757E+03  0.53194648883E+03  0.58376426319E+03  0.80187938065E+02 0.  0.
          6    2    1    2  501    0  0.17822537476E+03 -0.10624944346E+03  0.56809050074E+03  0.62889812854E+03  0.17243204635E+03 0.  0.
         24    2    5    5    0    0  0.11180462723E+03  0.78148185645E+01  0.30389368997E+03  0.33352647046E+03  0.79543608406E+02 0.  0.
          5    1    5    5  501    0  0.66420747535E+02 -0.11406426203E+03  0.26419681077E+03  0.29537165808E+03  0.47000000000E+01 0. -1.
        -13    1    6    6    0    0  0.10153884241E+02  0.10948385660E+02  0.13895351772E+03  0.13975352805E+03  0.00000000000E+00 0.  1.
         14    1    6    6    0    0  0.10165074299E+03 -0.31335670959E+01  0.16494017225E+03  0.19377294242E+03  0.00000000000E+00 0. -1.
         -5    1    3    3    0  503  0.96722536494E+01 -0.20549704105E+02  0.10496116641E+03  0.10749315925E+03  0.47000000000E+01 0.  1.
         11    1    4    4    0    0  0.18992965016E+01  0.21564963887E+02  0.72108045352E+02  0.75287616506E+02  0.00000000000E+00 0. -1.
        -12    1    4    4    0    0 -0.18979692491E+03  0.10523418368E+03  0.45983844348E+03  0.50847664668E+03  0.00000000000E+00 0.  1.
</event>
<event>
12    1  0.8356052E-002  0.2021416E+03  0.7818608E-02  0.1148037E+00
         21   -1    0    0  503  502  0.00000000000E+00  0.00000000000E+00  0.51215720739E+02  0.51215720739E+02  0.00000000000E+00 0.  1.
         21   -1    0    0  501  503 -0.00000000000E+00 -0.00000000000E+00 -0.12514571332E+04  0.12514571332E+04  0.00000000000E+00 0.  1.
          6    2    1    2  501    0  0.10570851542E+03 -0.52087504664E+01 -0.99343817514E+03  0.10137951582E+04  0.17222018959E+03 0.  0.
         24    2    3    3    0    0  0.53229916128E+02 -0.71057001825E+02 -0.57704220825E+03  0.58894496483E+03  0.77433455377E+02 0.  0.
         -6    2    1    2    0  502 -0.10570851542E+03  0.52087504664E+01 -0.20680323734E+03  0.28887769573E+03  0.17170126034E+03 0.  0.
        -24    2    5    5    0    0 -0.11108715856E+02  0.35362438178E+02 -0.44277612106E+02  0.98365134945E+02  0.79632199750E+02 0.  0.
          5    1    3    3  501    0  0.52478599291E+02  0.65848251358E+02 -0.41639596689E+03  0.42485019340E+03  0.47000000000E+01 0. -1.
        -11    1    4    4    0    0  0.26661243047E+01 -0.24571278642E+02 -0.36964192175E+03  0.37046728096E+03  0.00000000000E+00 0.  1.
         12    1    4    4    0    0  0.50563791823E+02 -0.46485723183E+02 -0.20740028651E+03  0.21847768386E+03  0.00000000000E+00 0. -1.
         -5    1    5    5    0  502 -0.94599799563E+02 -0.30153687712E+02 -0.16252562524E+03  0.19051256079E+03  0.47000000000E+01 0.  1.
         11    1    6    6    0    0 -0.11292635570E+02  0.12575088185E+02  0.22308255322E+02  0.27987760119E+02  0.00000000000E+00 0. -1.
        -12    1    6    6    0    0  0.18391971452E+00  0.22787349993E+02 -0.66585867428E+02  0.70377374825E+02  0.00000000000E+00 0.  1.
</event>
<event>
12    1  0.8356052E-002  0.1766851E+03  0.7818608E-02  0.1172553E+00
         21   -1    0    0  501  502  0.00000000000E+00  0.00000000000E+00  0.33697230378E+03  0.33697230378E+03  0.00000000000E+00 0. -1.
         21   -1    0    0  502  503 -0.00000000000E+00 -0.00000000000E+00 -0.30716202314E+03  0.30716202314E+03  0.00000000000E+00 0. -1.
         -6    2    1    2    0  503 -0.43948538076E+01  0.33052776364E+02 -0.25609446311E+03  0.31113019331E+03  0.17351029476E+03 0.  0.
        -24    2    3    3    0    0 -0.68374275998E+00  0.13657056181E+02 -0.26868227516E+02  0.81006914630E+02  0.75188003567E+02 0.  0.
          6    2    1    2  501    0  0.43948538076E+01 -0.33052776364E+02  0.28590474374E+03  0.33300413361E+03  0.16744679675E+03 0.  0.
         24    2    5    5    0    0  0.49147963143E+02 -0.58142293969E+02  0.14402783540E+03  0.18206218513E+03  0.81280829581E+02 0.  0.
          5    1    5    5  501    0 -0.44753109335E+02  0.25089517606E+02  0.14187690834E+03  0.15094194848E+03  0.47000000000E+01 0. -1.
        -13    1    6    6    0    0  0.16870153560E+02  0.18258270714E+02  0.16155080544E+02  0.29647144180E+02  0.00000000000E+00 0.  1.
         14    1    6    6    0    0  0.32277809583E+02 -0.76400564684E+02  0.12787275485E+03  0.15241504096E+03  0.00000000000E+00 0. -1.
         -5    1    3    3    0  503 -0.37111110476E+01  0.19395720183E+02 -0.22922623559E+03  0.23012327868E+03  0.47000000000E+01 0.  1.
         11    1    4    4    0    0  0.26243459564E+02  0.23168542052E+01 -0.40855792663E+02  0.48613606917E+02  0.00000000000E+00 0. -1.
        -12    1    4    4    0    0 -0.26927202324E+02  0.11340201976E+02  0.13987565147E+02  0.32393307713E+02  0.00000000000E+00 0.  1.
</event>
<event>
12    1  0.8356052E-002  0.2420773E+03  0.7818608E-02  0.1118505E+00
         21   -1    0    0  501  502  0.00000000000E+00  0.00000000000E+00  0.19132710962E+03  0.19132710962E+03  0.00000000000E+00 0. -1.
         21   -1    0    0  502  503 -0.00000000000E+00 -0.00000000000E+00 -0.34439534714E+03  0.34439534714E+03  0.00000000000E+00 0. -1.
         -6    2    1    2    0  503  0.16646058540E+03 -0.33159963760E+02  0.13427563121E+02  0.24191595921E+03  0.17185552707E+03 0.  0.
        -24    2    3    3    0    0  0.19176181710E+03 -0.16471822928E+02  0.22674686704E+02  0.20988088992E+03  0.80572520700E+02 0.  0.
          6    2    1    2  501    0 -0.16646058540E+03  0.33159963760E+02 -0.16649580064E+03  0.29380649754E+03  0.17260561022E+03 0.  0.
         24    2    5    5    0    0 -0.49176007024E+02  0.69866827273E+02 -0.10254828273E+03  0.15519033254E+03  0.79172190845E+02 0.  0.
          5    1    5    5  501    0 -0.11728457837E+03 -0.36706863513E+02 -0.63947517907E+02  0.13861616500E+03  0.47000000000E+01 0. -1.
        -11    1    6    6    0    0 -0.38775452390E+02  0.76247074353E+01 -0.78073807912E+02  0.87505378997E+02  0.00000000000E+00 0.  1.
         12    1    6    6    0    0 -0.10400554634E+02  0.62242119838E+02 -0.24474474818E+02  0.67684953544E+02  0.00000000000E+00 0. -1.
         -5    1    3    3    0  503 -0.25301231697E+02 -0.16688140833E+02 -0.92471235835E+01  0.32035069290E+02  0.47000000000E+01 0.  1.
         11    1    4    4    0    0  0.39205210970E+02 -0.11037707611E+02  0.38958185885E+02  0.56361509951E+02  0.00000000000E+00 0. -1.
        -12    1    4    4    0    0  0.15255660613E+03 -0.54341153167E+01 -0.16283499181E+02  0.15351937997E+03  0.00000000000E+00 0.  1.
</event>
<event>
12    1  0.8356052E-002  0.2704243E+03  0.7818608E-02  0.1101314E+00
         21   -1    0    0  503  502  0.00000000000E+00  0.00000000000E+00  0.65598387777E+03  0.65598387777E+03  0.00000000000E+00 0.  1.
         21   -1    0    0  501  503 -0.00000000000E+00 -0.00000000000E+00 -0.11183886275E+03  0.11183886275E+03  0.00000000000E+00 0. -1.
          6    2    1    2  501    0 -0.98795676550E+02 -0.18280025523E+03  0.31011218131E+03  0.41019073279E+03  0.17003044803E+03 0.  0.
         24    2    3    3    0    0 -0.13064141869E+03 -0.15037496507E+03  0.28874342588E+03  0.35975003055E+03  0.79796667192E+02 0.  0.
         -6    2    1    2    0  502  0.98795676550E+02  0.18280025523E+03  0.23403283371E+03  0.35763200772E+03  0.17306867619E+03 0.  0.
        -24    2    5    5    0    0  0.11663835026E+03  0.10059924842E+03  0.10066632754E+03  0.19988511713E+03  0.78074560605E+02 0.  0.
          5    1    3    3  501    0  0.31845742140E+02 -0.32425290156E+02  0.21368755433E+02  0.50440702244E+02  0.47000000000E+01 0. -1.
        -11    1    4    4    0    0 -0.56756719896E+02 -0.72343357339E+02  0.20094057702E+03  0.22097964182E+03  0.00000000000E+00 0.  1.
         12    1    4    4    0    0 -0.73884698794E+02 -0.78031607733E+02  0.87802848857E+02  0.13877038873E+03  0.00000000000E+00 0. -1.
         -5    1    5    5    0  502 -0.17842673709E+02  0.82201006809E+02  0.13336650617E+03  0.15774689060E+03  0.47000000000E+01 0.  1.
         13    1    6    6    0    0  0.33738990748E+02  0.71923411722E+02  0.22952810919E+02  0.82692975394E+02  0.00000000000E+00 0. -1.
        -14    1    6    6    0    0  0.82899359511E+02  0.28675836698E+02  0.77713516624E+02  0.11719214173E+03  0.00000000000E+00 0.  1.
</event>
<event>
12    1  0.8356052E-002  0.2840076E+03  0.7818608E-02  0.1093541E+00
         21   -1    0    0  503  502  0.00000000000E+00  0.00000000000E+00  0.20578387318E+03  0.20578387318E+03  0.00000000000E+00 0. -1.
         21   -1    0    0  501  503 -0.00000000000E+00 -0.00000000000E+00 -0.41801724133E+03  0.41801724133E+03  0.00000000000E+00 0.  1.
          6    2    1    2  501    0 -0.20230220330E+03  0.10083984211E+03 -0.27963147790E+02  0.28538094211E+03  0.17194618131E+03 0.  0.
         24    2    3    3    0    0 -0.20698662110E+02  0.35001227179E+02 -0.88038296536E+01  0.91206435904E+02  0.81163945299E+02 0.  0.
         -6    2    1    2    0  502  0.20230220330E+03 -0.10083984211E+03 -0.18427022036E+03  0.33842017240E+03  0.17169112894E+03 0.  0.
        -24    2    5    5    0    0  0.21553654695E+03 -0.66117032035E+02 -0.12837401744E+03  0.27113498166E+03  0.78783405187E+02 0.  0.
          5    1    3    3  501    0 -0.18160354119E+03  0.65838614932E+02 -0.19159318136E+02  0.19417450621E+03  0.47000000000E+01 0. -1.
        -13    1    4    4    0    0 -0.14644633421E+02  0.49051513628E+02 -0.34195606777E+02  0.61561804718E+02  0.00000000000E+00 0.  1.
         14    1    4    4    0    0 -0.60540286887E+01 -0.14050286449E+02  0.25391777124E+02  0.29644631186E+02  0.00000000000E+00 0. -1.
         -5    1    5    5    0  502 -0.13234343646E+02 -0.34722810076E+02 -0.55896202916E+02  0.67285190731E+02  0.47000000000E+01 0.  1.
         13    1    6    6    0    0  0.26125540700E+02 -0.15384250194E+01  0.98047926667E+01  0.27947174949E+02  0.00000000000E+00 0. -1.
        -14    1    6    6    0    0  0.18941100625E+03 -0.64578607016E+02 -0.13817881011E+03  0.24318780671E+03  0.00000000000E+00 0.  1.
</event>
<event>
12    1  0.8356052E-002  0.2082805E+03  0.7818608E-02  0.1143301E+00
         21   -1    0    0  501  502  0.00000000000E+00  0.00000000000E+00  0.63961858994E+02  0.63961858994E+02  0.00000000000E+00 0.  1.
         21   -1    0    0  502  503 -0.00000000000E+00 -0.00000000000E+00 -0.18679763209E+04  0.18679763209E+04  0.00000000000E+00 0. -1.
         -6    2    1    2    0  503  0.33721849481E+02  0.10868067108E+03 -0.16762586469E+04  0.16891488443E+04  0.17444803072E+03 0.  0.
        -24    2    3    3    0    0  0.14206251025E+02  0.58263013119E+02 -0.15040322094E+04  0.15085752178E+04  0.10044851662E+03 0.  0.
          6    2    1    2  501    0 -0.33721849481E+02 -0.10868067108E+03 -0.12775581498E+03  0.24278933559E+03  0.17226857467E+03 0.  0.
         24    2    5    5    0    0  0.10364500330E+02 -0.19194378147E+02 -0.15620166740E+01  0.81859637917E+02  0.78884177148E+02 0.  0.
          5    1    5    5  501    0 -0.44086349811E+02 -0.89486292931E+02 -0.12619379831E+03  0.16092969768E+03  0.47000000000E+01 0. -1.
        -11    1    6    6    0    0 -0.31640749662E+02  0.69052078357E+01 -0.11009911918E+01  0.32404183619E+02  0.00000000000E+00 0.  1.
         12    1    6    6    0    0  0.42005249992E+02 -0.26099585982E+02 -0.46102548213E+00  0.49455454298E+02  0.00000000000E+00 0. -1.
         -5    1    3    3    0  503  0.19515598456E+02  0.50417657959E+02 -0.17222643754E+03  0.18057362655E+03  0.47000000000E+01 0.  1.
         13    1    4    4    0    0  0.25157241615E+02  0.84375418373E+02 -0.10668702604E+04  0.10704971978E+04  0.00000000000E+00 0. -1.
        -14    1    4    4    0    0 -0.10950990590E+02 -0.26112405254E+02 -0.43716194903E+03  0.43807801997E+03  0.00000000000E+00 0.  1.
</event>
<event>
12    1  0.8356052E-002  0.1892598E+03  0.7818608E-02  0.1159318E+00
         21   -1    0    0  503  502  0.00000000000E+00  0.00000000000E+00  0.57201521031E+03  0.57201521031E+03  0.00000000000E+00 0.  1.
         21   -1    0    0  501  503 -0.00000000000E+00 -0.00000000000E+00 -0.14717691678E+03  0.14717691678E+03  0.00000000000E+00 0.  1.
          6    2    1    2  501    0  0.39169400399E+02 -0.67076650182E+02 -0.60781820163E+02  0.19799526649E+03  0.17168045014E+03 0.  0.
         24    2    3    3    0    0  0.23669962577E+02 -0.38824625981E+02  0.33043783559E+02  0.98678886377E+02  0.81104946050E+02 0.  0.
         -6    2    1    2    0  502 -0.39169400399E+02  0.67076650182E+02  0.48562011370E+03  0.52119686060E+03  0.17258549692E+03 0.  0.
        -24    2    5    5    0    0 -0.58186074831E+02 -0.84119233355E+01  0.17796806309E+03  0.20381375947E+03  0.80068953488E+02 0.  0.
          5    1    3    3  501    0  0.15499437823E+02 -0.28252024201E+02 -0.93825603722E+02  0.99316380109E+02  0.47000000000E+01 0. -1.
        -11    1    4    4    0    0 -0.22618583381E+02 -0.15687241490E+02  0.37745888332E+02  0.46716613166E+02  0.00000000000E+00 0.  1.
         12    1    4    4    0    0  0.46288545958E+02 -0.23137384492E+02 -0.47021047729E+01  0.51962273211E+02  0.00000000000E+00 0. -1.
         -5    1    5    5    0  502  0.19016674431E+02  0.75488573518E+02  0.30765205061E+03  0.31738310113E+03  0.47000000000E+01 0.  1.
         11    1    6    6    0    0 -0.14153190653E+02  0.16803284249E+02  0.36625224509E+01  0.22272791426E+02  0.00000000000E+00 0. -1.
        -12    1    6    6    0    0 -0.44032884178E+02 -0.25215207584E+02  0.17430554064E+03  0.18154096805E+03  0.00000000000E+00 0.  1.
</event>
<event>
12    1  0.8356052E-002  0.1778433E+03  0.7818608E-02  0.1170024E+00
         21   -1    0    0  501  502  0.00000000000E+00  0.00000000000E+00  0.14423449353E+03  0.14423449353E+03  0.00000000000E+00 0. -1.
         21   -1    0    0  502  503 -0.00000000000E+00 -0.00000000000E+00 -0.68769280506E+03  0.68769280506E+03  0.00000000000E+00 0. -1.
         -6    2    1    2    0  503  0.43896360102E+01  0.43510466748E+02 -0.61535797019E+03  0.64054170191E+03  0.17238274503E+03 0.  0.
        -24    2    3    3    0    0 -0.38720489689E+02 -0.24611258304E+02 -0.40004398479E+03  0.41058245623E+03  0.80235735448E+02 0.  0.
          6    2    1    2  501    0 -0.43896360102E+01 -0.43510466748E+02  0.71899658660E+02  0.19138559668E+03  0.17189082605E+03 0.  0.
         24    2    5    5    0    0  0.37992391248E+02 -0.40211429212E+02 -0.10176138812E+02  0.98834819191E+02  0.81267378765E+02 0.  0.
          5    1    5    5  501    0 -0.42382027259E+02 -0.32990375352E+01  0.82075797472E+02  0.92550777489E+02  0.47000000000E+01 0. -1.
        -11    1    6    6    0    0 -0.12751463836E+02 -0.41286600651E+02 -0.19198519386E+02  0.47283891230E+02  0.00000000000E+00 0.  1.
         12    1    6    6    0    0  0.50743855084E+02  0.10751714382E+01  0.90223805740E+01  0.51550927961E+02  0.00000000000E+00 0. -1.
         -5    1    3    3    0  503  0.43110125700E+02  0.68121725052E+02 -0.21531398540E+03  0.22995924567E+03  0.47000000000E+01 0.  1.
         11    1    4    4    0    0  0.18399713061E+02 -0.28169333045E+02 -0.11363787175E+03  0.11851424666E+03  0.00000000000E+00 0. -1.
        -12    1    4    4    0    0 -0.57120202750E+02  0.35580747409E+01 -0.28640611304E+03  0.29206820958E+03  0.00000000000E+00 0.  1.
</event>
<event>
12    1  0.8356052E-002  0.1809495E+03  0.7818608E-02  0.1167373E+00
         21   -1    0    0  503  502  0.00000000000E+00  0.00000000000E+00  0.12482716394E+03  0.12482716394E+03  0.00000000000E+00 0.  1.
         21   -1    0    0  501  503 -0.00000000000E+00 -0.00000000000E+00 -0.32217573542E+03  0.32217573542E+03  0.00000000000E+00 0.  1.
          6    2    1    2  501    0 -0.43683365885E+02 -0.20034328406E+02 -0.19688883573E+03  0.26605277717E+03  0.17236373120E+03 0.  0.
         24    2    3    3    0    0 -0.52531291068E+02  0.37136871447E+02 -0.61290006510E+02  0.11855374544E+03  0.78484660277E+02 0.  0.
         -6    2    1    2    0  502  0.43683365885E+02  0.20034328406E+02 -0.45973574086E+00  0.18095012219E+03  0.17445092317E+03 0.  0.
        -24    2    5    5    0    0  0.69313346523E+02  0.42908113559E+02 -0.46304594414E+02  0.12347015158E+03  0.80344985230E+02 0.  0.
          5    1    3    3  501    0  0.88479251825E+01 -0.57171199853E+02 -0.13559882922E+03  0.14749903172E+03  0.47000000000E+01 0. -1.
        -11    1    4    4    0    0 -0.62006012758E+02 -0.11733033036E+01 -0.37363971597E+02  0.72402960108E+02  0.00000000000E+00 0.  1.
         12    1    4    4    0    0  0.94747216909E+01  0.38310174750E+02 -0.23926034913E+02  0.46150785336E+02  0.00000000000E+00 0. -1.
         -5    1    5    5    0  502 -0.25629980637E+02 -0.22873785153E+02  0.45844858673E+02  0.57479970611E+02  0.47000000000E+01 0.  1.
         13    1    6    6    0    0  0.29462320630E+02 -0.22538943424E+02 -0.21778380852E+02  0.43015464430E+02  0.00000000000E+00 0. -1.
        -14    1    6    6    0    0  0.39851025892E+02  0.65447056983E+02 -0.24526213562E+02  0.80454687148E+02  0.00000000000E+00 0.  1.
</event>
<event>
12    1  0.8356052E-002  0.1986023E+03  0.7818608E-02  0.1151394E+00
         21   -1    0    0  503  502  0.00000000000E+00  0.00000000000E+00  0.85769584097E+03  0.85769584097E+03  0.00000000000E+00 0.  1.
         21   -1    0    0  501  503 -0.00000000000E+00 -0.00000000000E+00 -0.64258102503E+02  0.64258102503E+02  0.00000000000E+00 0.  1.
          6    2    1    2  501    0  0.52733916422E+02  0.80327356623E+02  0.14596185560E+03  0.24470370664E+03  0.17129416391E+03 0.  0.
         24    2    3    3    0    0  0.22304029135E+02  0.11603094189E+03  0.13541505569E+03  0.19639170989E+03  0.79194805466E+02 0.  0.
         -6    2    1    2    0  502 -0.52733916422E+02 -0.80327356623E+02  0.64747588287E+03  0.67725023683E+03  0.17380884394E+03 0.  0.
        -24    2    5    5    0    0 -0.13004514740E+02 -0.10995667041E+03  0.35274276215E+03  0.37834218401E+03  0.80347776461E+02 0.  0.
          5    1    3    3  501    0  0.30429887288E+02 -0.35703585270E+02  0.10546799906E+02  0.48311996748E+02  0.47000000000E+01 0. -1.
        -11    1    4    4    0    0 -0.91048620383E+01  0.10059923301E+02 -0.76719948432E+01  0.15587176603E+02  0.00000000000E+00 0.  1.
         12    1    4    4    0    0  0.31408891173E+02  0.10597101859E+03  0.14308705053E+03  0.18080453329E+03  0.00000000000E+00 0. -1.
         -5    1    5    5    0  502 -0.39729401682E+02  0.29629313789E+02  0.29473312072E+03  0.29890805282E+03  0.47000000000E+01 0.  1.
         13    1    6    6    0    0  0.26653269273E+02 -0.54551878570E+02  0.10389218714E+03  0.12033241778E+03  0.00000000000E+00 0. -1.
        -14    1    6    6    0    0 -0.39657784013E+02 -0.55404791841E+02  0.24885057501E+03  0.25800976624E+03  0.00000000000E+00 0.  1.
</event>
<event>
12    1  0.8356052E-002  0.1873089E+03  0.7818608E-02  0.1161155E+00
         21   -1    0    0  503  502  0.00000000000E+00  0.00000000000E+00  0.47642972845E+02  0.47642972845E+02  0.00000000000E+00 0. -1.
         21   -1    0    0  501  503 -0.00000000000E+00 -0.00000000000E+00 -0.12177046453E+04  0.12177046453E+04  0.00000000000E+00 0. -1.
          6    2    1    2  501    0  0.51270656726E+02 -0.49734840150E+02 -0.98350250845E+03  0.10009824510E+04  0.17200711748E+03 0.  0.
         24    2    3    3    0    0  0.68878739665E+02 -0.56027723557E+02 -0.97002365751E+03  0.97745768979E+03  0.81205003548E+02 0.  0.
         -6    2    1    2    0  502 -0.51270656726E+02  0.49734840150E+02 -0.18655916401E+03  0.26436516718E+03  0.17315422425E+03 0.  0.
        -24    2    5    5    0    0 -0.90775789852E+02 -0.82881099641E+01 -0.10690151436E+03  0.15808840852E+03  0.72491891582E+02 0.  0.
          5    1    3    3  501    0 -0.17608082939E+02  0.62928834063E+01 -0.13478850936E+02  0.23524761187E+02  0.47000000000E+01 0. -1.
        -13    1    4    4    0    0  0.10109535389E+02  0.14743726854E+02 -0.55247746252E+02  0.58068008863E+02  0.00000000000E+00 0.  1.
         14    1    4    4    0    0  0.58769204276E+02 -0.70771450411E+02 -0.91477591126E+03  0.91938968092E+03  0.00000000000E+00 0. -1.
         -5    1    5    5    0  502  0.39505133126E+02  0.58022950114E+02 -0.79657649652E+02  0.10627675866E+03  0.47000000000E+01 0.  1.
         11    1    6    6    0    0 -0.30855530412E+02  0.20532106883E+02 -0.64425654673E+01  0.37618317611E+02  0.00000000000E+00 0. -1.
        -12    1    6    6    0    0 -0.59920259440E+02 -0.28820216847E+02 -0.10045894889E+03  0.12047009091E+03  0.00000000000E+00 0.  1.
</event>
<event>
12    1  0.8356052E-002  0.2140541E+03  0.7818608E-02  0.1138433E+00
         21   -1    0    0  501  502  0.00000000000E+00  0.00000000000E+00  0.21513625345E+03  0.21513625345E+03  0.00000000000E+00 0.  1.
         21   -1    0    0  502  503 -0.00000000000E+00 -0.00000000000E+00 -0.21522185447E+03  0.21522185447E+03  0.00000000000E+00 0. -1.
         -6    2    1    2    0  503 -0.12429849690E+02 -0.12676124012E+03 -0.22940243958E+02  0.21508732308E+03  0.17179461166E+03 0.  0.
        -24    2    3    3    0    0  0.42253592301E+02 -0.11214333979E+03  0.14443202286E+02  0.14709045630E+03  0.84056537647E+02 0.  0.
          6    2    1    2  501    0  0.12429849690E+02  0.12676124012E+03  0.22854642937E+02  0.21527078485E+03  0.17203564441E+03 0.  0.
         24    2    5    5    0    0  0.66554665187E+02  0.11369623033E+03 -0.27034606148E+01  0.15382571352E+03  0.79364256390E+02 0.  0.
          5    1    5    5  501    0 -0.54124815497E+02  0.13065009790E+02  0.25558103552E+02  0.61445071329E+02  0.47000000000E+01 0. -1.
        -13    1    6    6    0    0  0.64990282770E+02  0.56622285419E+02  0.25849226731E+02  0.89988902555E+02  0.00000000000E+00 0.  1.
         14    1    6    6    0    0  0.15643824179E+01  0.57073944907E+02 -0.28552687345E+02  0.63836810966E+02  0.00000000000E+00 0. -1.
         -5    1    3    3    0  503 -0.54683441991E+02 -0.14617900322E+02 -0.37383446244E+02  0.67996866772E+02  0.47000000000E+01 0.  1.
         13    1    4    4    0    0  0.17985583322E+02 -0.10550876592E+02 -0.27518214496E+02  0.34526139856E+02  0.00000000000E+00 0. -1.
        -14    1    4    4    0    0  0.24268008979E+02 -0.10159246320E+03  0.41961416782E+02  0.11256431645E+03  0.00000000000E+00 0.  1.
</event>
<event>
12    1  0.8356052E-002  0.1960725E+03  0.7818608E-02  0.1153239E+00
         21   -1    0    0  503  502  0.00000000000E+00  0.00000000000E+00  0.72072820075E+03  0.72072820075E+03  0.00000000000E+00 0.  1.
         21   -1    0    0  501  503 -0.00000000000E+00 -0.00000000000E+00 -0.18285127555E+03  0.18285127555E+03  0.00000000000E+00 0.  1.
          6    2    1    2  501    0  0.25615179415E+02  0.90291182550E+02 -0.11168169950E+03  0.22507315088E+03  0.17139570059E+03 0.  0.
         24    2    3    3    0    0  0.17090256377E+02  0.48236945792E+02 -0.14324180608E+03  0.17160013460E+03  0.79432432836E+02 0.  0.
         -6    2    1    2    0  502 -0.25615179415E+02 -0.90291182550E+02  0.64955862470E+03  0.67850632541E+03  0.17215049128E+03 0.  0.
        -24    2    5    5    0    0 -0.12718608144E+02  0.15916458802E+02  0.32784099978E+03  0.33943302241E+03  0.85556758401E+02 0.  0.
          5    1    3    3  501    0  0.85249230385E+01  0.42054236759E+02  0.31560106578E+02  0.53473016273E+02  0.47000000000E+01 0. -1.
        -13    1    4    4    0    0  0.46460806809E+02  0.42287795448E+02 -0.80890865185E+02  0.10242165925E+03  0.00000000000E+00 0.  1.
         14    1    4    4    0    0 -0.29370550432E+02  0.59491503442E+01 -0.62350940890E+02  0.69178475355E+02  0.00000000000E+00 0. -1.
         -5    1    5    5    0  502 -0.12896571271E+02 -0.10620764135E+03  0.32171762492E+03  0.33907330301E+03  0.47000000000E+01 0.  1.
         11    1    6    6    0    0  0.25249669611E+02  0.33783597635E+02  0.21371625188E+03  0.21783827396E+03  0.00000000000E+00 0. -1.
        -12    1    6    6    0    0 -0.37968277756E+02 -0.17867138834E+02  0.11412474790E+03  0.12159474845E+03  0.00000000000E+00 0.  1.
</event>
<event>
12    1  0.8356052E-002  0.1745515E+03  0.7818608E-02  0.1173556E+00
         21   -1    0    0  501  502  0.00000000000E+00  0.00000000000E+00  0.45757004371E+03  0.45757004371E+03  0.00000000000E+00 0. -1.
         21   -1    0    0  502  503 -0.00000000000E+00 -0.00000000000E+00 -0.19901210760E+03  0.19901210760E+03  0.00000000000E+00 0. -1.
         -6    2    1    2    0  503 -0.14888135287E+02 -0.91344298595E+01 -0.13890184820E+03  0.22307389983E+03  0.17367540693E+03 0.  0.
        -24    2    3    3    0    0 -0.81451960711E+00  0.60224035728E+02 -0.61115927139E+02  0.11780565713E+03  0.80718141580E+02 0.  0.
          6    2    1    2  501    0  0.14888135287E+02  0.91344298595E+01  0.39745978431E+03  0.43350825147E+03  0.17219183944E+03 0.  0.
         24    2    5    5    0    0 -0.35785859741E+02  0.47000777297E+02  0.17018425098E+03  0.19754644929E+03  0.81069226718E+02 0.  0.
          5    1    5    5  501    0  0.50673995028E+02 -0.37866347437E+02  0.22727553333E+03  0.23596180218E+03  0.47000000000E+01 0. -1.
        -13    1    6    6    0    0 -0.17894411505E+02 -0.12645928366E+02  0.71895725072E+01  0.23061210294E+02  0.00000000000E+00 0.  1.
         14    1    6    6    0    0 -0.17891448236E+02  0.59646705663E+02  0.16299467847E+03  0.17448523899E+03  0.00000000000E+00 0. -1.
         -5    1    3    3    0  503 -0.14073615680E+02 -0.69358465587E+02 -0.77785921061E+02  0.10526824271E+03  0.47000000000E+01 0.  1.
         11    1    4    4    0    0  0.35735655814E+02  0.10094254666E+02 -0.33056020763E+02  0.49715506458E+02  0.00000000000E+00 0. -1.
        -12    1    4    4    0    0 -0.36550175421E+02  0.50129781062E+02 -0.28059906376E+02  0.68090150671E+02  0.00000000000E+00 0.  1.
</event>
<event>
12    1  0.8356052E-002  0.2279444E+03  0.7818608E-02  0.1128255E+00
         21   -1    0    0  503  502  0.00000000000E+00  0.00000000000E+00  0.45851155541E+03  0.45851155541E+03  0.00000000000E+00 0. -1.
         21   -1    0    0  501  503 -0.00000000000E+00 -0.00000000000E+00 -0.13489661451E+03  0.13489661451E+03  0.00000000000E+00 0.  1.
          6    2    1    2  501    0  0.10943138519E+03 -0.10016170564E+03  0.28195460345E+03  0.36257003330E+03  0.17306367411E+03 0.  0.
         24    2    3    3    0    0  0.49356949218E+02 -0.46575693102E+02  0.48346760027E+02  0.11543623733E+03  0.79891877315E+02 0.  0.
         -6    2    1    2    0  502 -0.10943138519E+03  0.10016170564E+03  0.41660337442E+02  0.23083813662E+03  0.17188096539E+03 0.  0.
        -24    2    5    5    0    0 -0.13147708093E+03  0.37656032764E+02  0.46524751454E+02  0.16421438436E+03  0.78087207142E+02 0.  0.
          5    1    3    3  501    0  0.60074435967E+02 -0.53586012536E+02  0.23360784343E+03  0.24713379596E+03  0.47000000000E+01 0. -1.
        -13    1    4    4    0    0  0.67257113996E+02 -0.41954161439E+02  0.20271024290E+02  0.81820446534E+02  0.00000000000E+00 0.  1.
         14    1    4    4    0    0 -0.17900164778E+02 -0.46215316622E+01  0.28075735737E+02  0.33615790801E+02  0.00000000000E+00 0. -1.
         -5    1    5    5    0  502  0.22045695744E+02  0.62505672873E+02 -0.48644140118E+01  0.66623752265E+02  0.47000000000E+01 0.  1.
         11    1    6    6    0    0  0.61412722107E+01 -0.74124831710E+01  0.11930077811E+02  0.15329282035E+02  0.00000000000E+00 0. -1.
        -12    1    6    6    0    0 -0.13761835314E+03  0.45068515935E+02  0.34594673643E+02  0.14888510232E+03  0.00000000000E+00 0.  1.
</event>
<event>
12    1  0.8356052E-002  0.2391133E+03  0.7818608E-02  0.1120690E+00
         21   -1    0    0  503  502  0.00000000000E+00  0.00000000000E+00  0.38070645326E+03  0.38070645326E+03  0.00000000000E+00 0.  1.
         21   -1    0    0  501  503 -0.00000000000E+00 -0.00000000000E+00 -0.27196717886E+03  0.27196717886E+03  0.00000000000E+00 0. -1.
          6    2    1    2  501    0 -0.75742343765E+02 -0.14835429470E+03 -0.16513821427E+03  0.28910237542E+03  0.16900785267E+03 0.  0.
         24    2    3    3    0    0 -0.51469036660E+02 -0.76852683108E+02 -0.11185601761E+02  0.11756470959E+03  0.71700394835E+02 0.  0.
         -6    2    1    2    0  502  0.75742343765E+02  0.14835429470E+03  0.27387748866E+03  0.36357125670E+03  0.17154964443E+03 0.  0.
        -24    2    5    5    0    0  0.70724626962E+02  0.29924846131E+02  0.18404257630E+03  0.21476563432E+03  0.79719122678E+02 0.  0.
          5    1    3    3  501    0 -0.24273307105E+02 -0.71501611594E+02 -0.15395261251E+03  0.17153766583E+03  0.47000000000E+01 0. -1.
        -11    1    4    4    0    0 -0.63451157122E+02 -0.81401129465E+02 -0.14759244195E+02  0.10425942887E+03  0.00000000000E+00 0.  1.
         12    1    4    4    0    0  0.11982120461E+02  0.45484463566E+01  0.35736424343E+01  0.13305280728E+02  0.00000000000E+00 0. -1.
         -5    1    5    5    0  502  0.50177168030E+01  0.11842944857E+03  0.89834912363E+02  0.14880562237E+03  0.47000000000E+01 0.  1.
         11    1    6    6    0    0 -0.15105969710E+02  0.15111529026E+02  0.55710174574E+02  0.59667178427E+02  0.00000000000E+00 0. -1.
        -12    1    6    6    0    0  0.85830596672E+02  0.14813317105E+02  0.12833240173E+03  0.15509845590E+03  0.00000000000E+00 0.  1.
</event>
<event>
12    1  0.8356052E-002  0.2153467E+03  0.7818608E-02  0.1137451E+00
         21   -1    0    0  501  502  0.00000000000E+00  0.00000000000E+00  0.23909447885E+03  0.23909447885E+03  0.00000000000E+00 0. -1.
         21   -1    0    0  502  503 -0.00000000000E+00 -0.00000000000E+00 -0.19743021718E+03  0.19743021718E+03  0.00000000000E+00 0. -1.
         -6    2    1    2    0  503 -0.12923520868E+03  0.11739459678E+02  0.50761014881E+02  0.22124844111E+03  0.17185644587E+03 0.  0.
        -24    2    3    3    0    0 -0.10666762553E+03  0.58673121886E+02  0.47982599738E+02  0.16888553393E+03  0.10676832923E+03 0.  0.
          6    2    1    2  501    0  0.12923520868E+03 -0.11739459678E+02 -0.90967532181E+01  0.21527625492E+03  0.17152714343E+03 0.  0.
         24    2    5    5    0    0  0.13411812336E+03  0.18800818513E+02  0.32718293365E+02  0.16305423304E+03  0.84705692852E+02 0.  0.
          5    1    5    5  501    0 -0.48829146788E+01 -0.30540278191E+02 -0.41815046583E+02  0.52222021873E+02  0.47000000000E+01 0. -1.
        -13    1    6    6    0    0 -0.21382678786E+01  0.17902261724E+02 -0.95328932794E+01  0.20394587974E+02  0.00000000000E+00 0.  1.
         14    1    6    6    0    0  0.13625639124E+03  0.89855678878E+00  0.42251186644E+02  0.14265964507E+03  0.00000000000E+00 0. -1.
         -5    1    3    3    0  503 -0.22567583150E+02 -0.46933662208E+02  0.27784151435E+01  0.52362907178E+02  0.47000000000E+01 0.  1.
         11    1    4    4    0    0 -0.87538848861E+02  0.39518849625E+01 -0.83870879075E+01  0.88028465272E+02  0.00000000000E+00 0. -1.
        -12    1    4    4    0    0 -0.19128776673E+02  0.54721236923E+02  0.56369687645E+02  0.80857068662E+02  0.00000000000E+00 0.  1.
</event>
<event>
12    1  0.8356052E-002  0.2737450E+03  0.7818608E-02  0.1099387E+00
         21   -1    0    0  503  502  0.00000000000E+00  0.00000000000E+00  0.26746805262E+03  0.26746805262E+03  0.00000000000E+00 0.  1.
         21   -1    0    0  501  503 -0.00000000000E+00 -0.00000000000E+00 -0.31970785064E+03  0.31970785064E+03  0.00000000000E+00 0. -1.
          6    2    1    2  501    0 -0.54726522278E+02 -0.20499021879E+03 -0.13146480694E+03  0.30219712992E+03  0.17036469067E+03 0.  0.
         24    2    3    3    0    0 -0.88733149695E+02 -0.17363360971E+03 -0.14224667550E+03  0.25446845583E+03  0.80609404185E+02 0.  0.
         -6    2    1    2    0  502  0.54726522278E+02  0.20499021879E+03  0.79225008920E+02  0.28497877333E+03  0.17297490330E+03 0.  0.
        -24    2    5    5    0    0  0.54744576701E+02  0.22155159657E+03  0.44099456667E+02  0.24586133501E+03  0.80130863925E+02 0.  0.
          5    1    3    3  501    0  0.34006627417E+02 -0.31356609078E+02  0.10781868561E+02  0.47728674094E+02  0.47000000000E+01 0. -1.
        -11    1    4    4    0    0 -0.48777401903E+02 -0.53493661202E+02 -0.13019472052E+02  0.73554832457E+02  0.00000000000E+00 0.  1.
         12    1    4    4    0    0 -0.39955747793E+02 -0.12013994851E+03 -0.12922720345E+03  0.18091362337E+03  0.00000000000E+00 0. -1.
         -5    1    5    5    0  502 -0.18054423243E-01 -0.16561377781E+02  0.35125552253E+02  0.39117438324E+02  0.47000000000E+01 0.  1.
         13    1    6    6    0    0 -0.16272976767E+02  0.21839194841E+02 -0.63740220041E+01  0.27971205921E+02  0.00000000000E+00 0. -1.
        -14    1    6    6    0    0  0.71017553468E+02  0.19971240173E+03  0.50473478671E+02  0.21789012909E+03  0.00000000000E+00 0.  1.
</event>
<event>
12    1  0.8356052E-002  0.2027338E+03  0.7818608E-02  0.1147848E+00
         21   -1    0    0  501  502  0.00000000000E+00  0.00000000000E+00  0.20604704902E+02  0.20604704902E+02  0.00000000000E+00 0.  1.
         21   -1    0    0  502  503 -0.00000000000E+00 -0.00000000000E+00 -0.20280829042E+04  0.20280829042E+04  0.00000000000E+00 0.  1.
         -6    2    1    2    0  503 -0.10330599965E+03 -0.14235778921E+01 -0.11723392015E+04  0.11897395455E+04  0.17443287098E+03 0.  0.
        -24    2    3    3    0    0 -0.26749744760E+02  0.59202073177E+02 -0.67693793715E+03  0.68478327759E+03  0.80391120104E+02 0.  0.
          6    2    1    2  501    0  0.10330599965E+03  0.14235778921E+01 -0.83513899772E+03  0.85894806359E+03  0.17222216548E+03 0.  0.
         24    2    5    5    0    0  0.10922069036E+03  0.42348694985E+02 -0.46860950528E+03  0.49006351850E+03  0.82733382334E+02 0.  0.
          5    1    5    5  501    0 -0.59146907135E+01 -0.40925117093E+02 -0.36652949245E+03  0.36888454509E+03  0.47000000000E+01 0. -1.
        -13    1    6    6    0    0  0.28324046770E+02  0.14915826513E+00 -0.27016611164E+02  0.39142957891E+02  0.00000000000E+00 0.  1.
         14    1    6    6    0    0  0.80896643592E+02  0.42199536720E+02 -0.44159289412E+03  0.45092056061E+03  0.00000000000E+00 0. -1.
         -5    1    3    3    0  503 -0.76556254889E+02 -0.60625651069E+02 -0.49540126437E+03  0.50495626788E+03  0.47000000000E+01 0.  1.
         11    1    4    4    0    0  0.10784412049E+01 -0.37367139004E+01  0.44421431119E+00  0.39145105134E+01  0.00000000000E+00 0. -1.
        -12    1    4    4    0    0 -0.27828185965E+02  0.62938787077E+02 -0.67738215147E+03  0.68086876707E+03  0.00000000000E+00 0.  1.
</event>
<event>
12    1  0.8356052E-002  0.2164064E+03  0.7818608E-02  0.1136925E+00
         21   -1    0    0  503  502  0.00000000000E+00  0.00000000000E+00  0.86191345549E+02  0.86191345549E+02  0.00000000000E+00 0. -1.
         21   -1    0    0  501  503 -0.00000000000E+00 -0.00000000000E+00 -0.57085705045E+03  0.57085705045E+03  0.00000000000E+00 0. -1.
          6    2    1    2  501    0  0.13107762512E+03 -0.51523437216E+01 -0.16375430160E+03  0.26998783488E+03  0.16991194554E+03 0.  0.
         24    2    3    3    0    0  0.10659635727E+03 -0.31956821523E+02 -0.18330028894E+03  0.22849147207E+03  0.78900792512E+02 0.  0.
         -6    2    1    2    0  502 -0.13107762512E+03  0.51523437216E+01 -0.32091140330E+03  0.38706056112E+03  0.17211582947E+03 0.  0.
        -24    2    5    5    0    0 -0.33529945030E+02  0.54648462267E+02 -0.11323547584E+03  0.15229089424E+03  0.79117203166E+02 0.  0.
          5    1    3    3  501    0  0.24481267848E+02  0.26804477801E+02  0.19545987336E+02  0.41496362811E+02  0.47000000000E+01 0.  1.
        -11    1    4    4    0    0  0.54907329654E+00 -0.56921305120E+00 -0.70553013939E+02  0.70557446530E+02  0.00000000000E+00 0.  1.
         12    1    4    4    0    0  0.10604728397E+03 -0.31387608471E+02 -0.11274727500E+03  0.15793402554E+03  0.00000000000E+00 0. -1.
         -5    1    5    5    0  502 -0.97547680087E+02 -0.49496118545E+02 -0.20767592746E+03  0.23476966688E+03  0.47000000000E+01 0.  1.
         13    1    6    6    0    0 -0.39366515407E+02  0.90145133689E+01 -0.94219653088E+02  0.10251013128E+03  0.00000000000E+00 0. -1.
        -14    1    6    6    0    0  0.58365703772E+01  0.45633948898E+02 -0.19015822751E+02  0.49780762958E+02  0.00000000000E+00 0.  1.
</event>
<event>
12    1  0.8356052E-002  0.1771098E+03  0.7818608E-02  0.1170878E+00
         21   -1    0    0  501  502  0.00000000000E+00  0.00000000000E+00  0.77367018990E+02  0.77367018990E+02  0.00000000000E+00 0.  1.
         21   -1    0    0  502  503 -0.00000000000E+00 -0.00000000000E+00 -0.67567394481E+03  0.67567394481E+03  0.00000000000E+00 0.  1.
         -6    2    1    2    0  503 -0.25951274001E+02  0.28479533226E+02 -0.53878025484E+03  0.56714376186E+03  0.17286795881E+03 0.  0.
        -24    2    3    3    0    0  0.37395266394E+02  0.49258509712E+02 -0.22600821662E+03  0.24731101192E+03  0.79108886426E+02 0.  0.
          6    2    1    2  501    0  0.25951274001E+02 -0.28479533226E+02 -0.59526670983E+02  0.18589720194E+03  0.17184234837E+03 0.  0.
         24    2    5    5    0    0  0.53792961755E+02 -0.48906340482E+02  0.10884635495E+02  0.10733349459E+03  0.78207997658E+02 0.  0.
          5    1    5    5  501    0 -0.27841687753E+02  0.20426807256E+02 -0.70411306478E+02  0.78563707344E+02  0.47000000000E+01 0. -1.
        -13    1    6    6    0    0  0.30966238267E+02  0.65439040045E+01 -0.22376869793E+02  0.38761513048E+02  0.00000000000E+00 0.  1.
         14    1    6    6    0    0  0.22826723488E+02 -0.55450244487E+02  0.33261505288E+02  0.68571981544E+02  0.00000000000E+00 0. -1.
         -5    1    3    3    0  503 -0.63346540395E+02 -0.20778976486E+02 -0.31277203822E+03  0.31983274994E+03  0.47000000000E+01 0.  1.
         13    1    4    4    0    0  0.36889355510E+02  0.49068833688E+02 -0.77805777892E+02  0.99107588321E+02  0.00000000000E+00 0. -1.
        -14    1    4    4    0    0  0.50591088364E+00  0.18967602322E+00 -0.14820243872E+03  0.14820342360E+03  0.00000000000E+00 0.  1.
</event>
<event>
12    1  0.8356052E-002  0.1748099E+03  0.7818608E-02  0.1173359E+00
         21   -1    0    0  501  502  0.00000000000E+00  0.00000000000E+00  0.32711736963E+03  0.32711736963E+03  0.00000000000E+00 0. -1.
         21   -1    0    0  502  503 -0.00000000000E+00 -0.00000000000E+00 -0.11397789911E+03  0.11397789911E+03  0.00000000000E+00 0. -1.
         -6    2    1    2    0  503 -0.34595542987E+02  0.57322628325E+01  0.10397537433E+02  0.17339620938E+03  0.16949462001E+03 0.  0.
        -24    2    3    3    0    0  0.31127989021E+02 -0.32806276687E+02  0.23391490730E+02  0.95964080971E+02  0.81343343350E+02 0.  0.
          6    2    1    2  501    0  0.34595542987E+02 -0.57322628325E+01  0.20274193309E+03  0.26769905935E+03  0.17125648751E+03 0.  0.
         24    2    5    5    0    0  0.23778386359E+02  0.60348782817E+02  0.14933223906E+03  0.18191793737E+03  0.81158062260E+02 0.  0.
          5    1    5    5  501    0  0.10817156629E+02 -0.66081045650E+02  0.53409694024E+02  0.85781121976E+02  0.47000000000E+01 0. -1.
        -13    1    6    6    0    0  0.26781561893E+02 -0.68936518701E+01  0.82717770521E+02  0.87218140622E+02  0.00000000000E+00 0.  1.
         14    1    6    6    0    0 -0.30031755345E+01  0.67242434687E+02  0.66614468542E+02  0.94699796753E+02  0.00000000000E+00 0. -1.
         -5    1    3    3    0  503 -0.65723532009E+02  0.38538539519E+02 -0.12993953297E+02  0.77432128411E+02  0.47000000000E+01 0.  1.
         13    1    4    4    0    0  0.84501430115E+01  0.12597431107E+02  0.39826259104E+02  0.42617262953E+02  0.00000000000E+00 0. -1.
        -14    1    4    4    0    0  0.22677846010E+02 -0.45403707794E+02 -0.16434768373E+02  0.53346818017E+02  0.00000000000E+00 0.  1.
</event>
<event>
12    1  0.8356052E-002  0.2119064E+03  0.7818608E-02  0.1140436E+00
         21   -1    0    0  501  502  0.00000000000E+00  0.00000000000E+00  0.11106628808E+04  0.11106628808E+04  0.00000000000E+00 0.  1.
         21   -1    0    0  502  503 -0.00000000000E+00 -0.00000000000E+00 -0.48087287925E+02  0.48087287925E+02  0.00000000000E+00 0.  1.
         -6    2    1    2    0  503  0.12068137610E+03 -0.18952923223E+02  0.29276206084E+03  0.36030341789E+03  0.17083828857E+03 0.  0.
        -24    2    3    3    0    0  0.18733282521E+02 -0.30690393385E+02  0.60216199864E+02  0.10607743683E+03  0.79583891322E+02 0.  0.
          6    2    1    2  501    0 -0.12068137610E+03  0.18952923223E+02  0.76981353201E+03  0.79844675081E+03  0.17315060489E+03 0.  0.
         24    2    5    5    0    0 -0.95037785152E+02 -0.43829777144E+02  0.62080209323E+03  0.63466103681E+03  0.80287998578E+02 0.  0.
          5    1    5    5  501    0 -0.25643590949E+02  0.62782700368E+02  0.14901143877E+03  0.16378571399E+03  0.47000000000E+01 0. -1.
        -11    1    6    6    0    0 -0.83223583724E+02 -0.29233985467E+02  0.60074185781E+03  0.60718330883E+03  0.00000000000E+00 0.  1.
         12    1    6    6    0    0 -0.11814201428E+02 -0.14595791677E+02  0.20060235426E+02  0.27477727988E+02  0.00000000000E+00 0. -1.
         -5    1    3    3    0  503  0.10194809358E+03  0.11737470161E+02  0.23254586097E+03  0.25422598106E+03  0.47000000000E+01 0.  1.
         13    1    4    4    0    0  0.11411907737E+02 -0.95848790323E+01  0.76814419597E+02  0.78246767359E+02  0.00000000000E+00 0. -1.
        -14    1    4    4    0    0  0.73213747843E+01 -0.21105514353E+02 -0.16598219732E+02  0.27830669469E+02  0.00000000000E+00 0.  1.
</event>
<event>
12    1  0.8356052E-002  0.1760386E+03  0.7818608E-02  0.1171707E+00
         21   -1    0    0  501  502  0.00000000000E+00  0.00000000000E+00  0.25242652642E+03  0.25242652642E+03  0.00000000000E+00 0.  1.
         21   -1    0    0  502  503 -0.00000000000E+00 -0.00000000000E+00 -0.21236187856E+03  0.21236187856E+03  0.00000000000E+00 0.  1.
         -6    2    1    2    0  503 -0.28621853627E+02 -0.24964130345E+02 -0.13095052141E+03  0.21935863887E+03  0.17183641954E+03 0.  0.
        -24    2    3    3    0    0  0.15980666439E+02  0.87737882195E+01 -0.35960315765E+01  0.80186486394E+02  0.78003718486E+02 0.  0.
          6    2    1    2  501    0  0.28621853627E+02  0.24964130345E+02  0.17101516926E+03  0.24542976611E+03  0.17189288427E+03 0.  0.
         24    2    5    5    0    0  0.51516813917E+02  0.24264337885E+02  0.19094840706E+03  0.21470367158E+03  0.79960191488E+02 0.  0.
          5    1    5    5  501    0 -0.22894960290E+02  0.69979245999E+00 -0.19933237791E+02  0.30726094529E+02  0.47000000000E+01 0. -1.
        -11    1    6    6    0    0  0.11453228940E+02 -0.22419975450E+02  0.17478597741E+02  0.30648542075E+02  0.00000000000E+00 0.  1.
         12    1    6    6    0    0  0.40063584977E+02  0.46684313335E+02  0.17346980931E+03  0.18405512950E+03  0.00000000000E+00 0. -1.
         -5    1    3    3    0  503 -0.44602520066E+02 -0.33737918565E+02 -0.12735448983E+03  0.13917215248E+03  0.47000000000E+01 0.  1.
         11    1    4    4    0    0 -0.94486534345E+01  0.31251716554E+02  0.20510474922E+02  0.38556794743E+02  0.00000000000E+00 0. -1.
        -12    1    4    4    0    0  0.25429319873E+02 -0.22477928335E+02 -0.24106506498E+02  0.41629691651E+02  0.00000000000E+00 0.  1.
</event>
<event>
12    1  0.8356052E-002  0.3203230E+03  0.7818608E-02  0.1075565E+00
         21   -1    0    0  503  502  0.00000000000E+00  0.00000000000E+00  0.13112643351E+03  0.13112643351E+03  0.00000000000E+00 0. -1.
         21   -1    0    0  501  503 -0.00000000000E+00 -0.00000000000E+00 -0.93590964973E+03  0.93590964973E+03  0.00000000000E+00 0. -1.
          6    2    1    2  501    0 -0.19591839693E+03  0.18535327189E+03 -0.61905306603E+03  0.69676252560E+03  0.17178901263E+03 0.  0.
         24    2    3    3    0    0 -0.10897535132E+03  0.18724229909E+03 -0.48188173851E+03  0.53427952742E+03  0.79431088049E+02 0.  0.
         -6    2    1    2    0  502  0.19591839693E+03 -0.18535327189E+03 -0.18573015020E+03  0.37027355764E+03  0.17282061549E+03 0.  0.
        -24    2    5    5    0    0  0.15724552415E+03 -0.14676208796E+03 -0.62827872616E+02  0.23569298549E+03  0.73065563048E+02 0.  0.
          5    1    3    3  501    0 -0.86943045608E+02 -0.18890271938E+01 -0.13717132753E+03  0.16248299818E+03  0.47000000000E+01 0. -1.
        -13    1    4    4    0    0 -0.16901399529E+01  0.55101394436E+02 -0.73743865083E+02  0.92071591054E+02  0.00000000000E+00 0.  1.
         14    1    4    4    0    0 -0.10728521137E+03  0.13214090465E+03 -0.40813787342E+03  0.44220793636E+03  0.00000000000E+00 0. -1.
         -5    1    5    5    0  502  0.38672872778E+02 -0.38591183935E+02 -0.12290227758E+03  0.13458057215E+03  0.47000000000E+01 0.  1.
         11    1    6    6    0    0  0.13763309510E+03 -0.11643954928E+03 -0.78117227988E+02  0.19647732392E+03  0.00000000000E+00 0. -1.
        -12    1    6    6    0    0  0.19612429051E+02 -0.30322538674E+02  0.15289355372E+02  0.39215661573E+02  0.00000000000E+00 0.  1.
</event>
<event>
12    1  0.8356052E-002  0.2071530E+03  0.7818608E-02  0.1143846E+00
         21   -1    0    0  501  502  0.00000000000E+00  0.00000000000E+00  0.38764550422E+03  0.38764550422E+03  0.00000000000E+00 0. -1.
         21   -1    0    0  502  503 -0.00000000000E+00 -0.00000000000E+00 -0.11088113529E+03  0.11088113529E+03  0.00000000000E+00 0.  1.
         -6    2    1    2    0  503  0.10535218631E+03 -0.46095031067E+02  0.14881984059E+03  0.25504730630E+03  0.17227288947E+03 0.  0.
        -24    2    3    3    0    0  0.11802870868E+03 -0.80080838115E+02  0.87635950308E+02  0.18376415450E+03  0.75798997278E+02 0.  0.
          6    2    1    2  501    0 -0.10535218631E+03  0.46095031067E+02  0.12794452834E+03  0.24347933321E+03  0.17230365150E+03 0.  0.
         24    2    5    5    0    0 -0.71670430110E+02 -0.22071452739E+02  0.13190951667E+03  0.16719734748E+03  0.70221313261E+02 0.  0.
          5    1    5    5  501    0 -0.33681756205E+02  0.68166483806E+02 -0.39649883306E+01  0.76281985737E+02  0.47000000000E+01 0. -1.
        -11    1    6    6    0    0 -0.72798640094E+02 -0.15141622607E+02  0.61655980922E+02  0.96593844100E+02  0.00000000000E+00 0.  1.
         12    1    6    6    0    0  0.11282099841E+01 -0.69298301326E+01  0.70253535751E+02  0.70603503376E+02  0.00000000000E+00 0. -1.
         -5    1    3    3    0  503 -0.12676522363E+02  0.33985807048E+02  0.61183890279E+02  0.71283151793E+02  0.47000000000E+01 0.  1.
         11    1    4    4    0    0  0.28115698014E+02 -0.47630629325E+02  0.65344145763E+02  0.85609734903E+02  0.00000000000E+00 0. -1.
        -12    1    4    4    0    0  0.89913010663E+02 -0.32450208790E+02  0.22291804545E+02  0.98154419599E+02  0.00000000000E+00 0.  1.
</event>
<event>
12    1  0.8356052E-002  0.2632039E+03  0.7818608E-02  0.1105743E+00
         21   -1    0    0  503  502  0.00000000000E+00  0.00000000000E+00  0.15890307027E+04  0.15890307027E+04  0.00000000000E+00 0. -1.
         21   -1    0    0  501  503 -0.00000000000E+00 -0.00000000000E+00 -0.55656657763E+02  0.55656657763E+02  0.00000000000E+00 0.  1.
          6    2    1    2  501    0  0.19734827233E+03 -0.24637692690E+02  0.11622325671E+04  0.11916630600E+04  0.17240345719E+03 0.  0.
         24    2    3    3    0    0  0.24459455015E+02 -0.31187418994E+02  0.42876898157E+03  0.43805549411E+03  0.80491343145E+02 0.  0.
         -6    2    1    2    0  502 -0.19734827233E+03  0.24637692690E+02  0.37114147784E+03  0.45302430046E+03  0.16712768695E+03 0.  0.
        -24    2    5    5    0    0 -0.13294261140E+03  0.80296902076E+02  0.25109818500E+03  0.30578803147E+03  0.79590773806E+02 0.  0.
          5    1    3    3  501    0  0.17288881732E+03  0.65497263047E+01  0.73346358555E+03  0.75360756591E+03  0.47000000000E+01 0. -1.
        -11    1    4    4    0    0  0.97071282371E+01 -0.57298444433E+02  0.24108742689E+03  0.24799291820E+03  0.00000000000E+00 0.  1.
         12    1    4    4    0    0  0.14752326778E+02  0.26111025438E+02  0.18768155469E+03  0.19006257592E+03  0.00000000000E+00 0. -1.
         -5    1    5    5    0  502 -0.64405660931E+02 -0.55659209386E+02  0.12004329284E+03  0.14723626899E+03  0.47000000000E+01 0.  1.
         13    1    6    6    0    0 -0.11899449955E+03  0.45362660450E+02  0.22936103525E+03  0.26234318435E+03  0.00000000000E+00 0. -1.
        -14    1    6    6    0    0 -0.13948111854E+02  0.34934241625E+02  0.21737149746E+02  0.43444847120E+02  0.00000000000E+00 0.  1.
</event>
<event>
12    1  0.8356052E-002  0.1985150E+03  0.7818608E-02  0.1151288E+00
         21   -1    0    0  501  502  0.00000000000E+00  0.00000000000E+00  0.17125213729E+03  0.17125213729E+03  0.00000000000E+00 0. -1.
         21   -1    0    0  502  503 -0.00000000000E+00 -0.00000000000E+00 -0.33209733165E+03  0.33209733165E+03  0.00000000000E+00 0. -1.
         -6    2    1    2    0  503 -0.75058262005E+02  0.63712429474E+02 -0.22076601763E+03  0.29598817503E+03  0.17081671128E+03 0.  0.
        -24    2    3    3    0    0 -0.13730254109E+02  0.10264737938E+03 -0.14132624801E+03  0.18823929163E+03  0.68818007564E+02 0.  0.
          6    2    1    2  501    0  0.75058262005E+02 -0.63712429474E+02  0.59920823264E+02  0.20736129391E+03  0.17238092930E+03 0.  0.
         24    2    5    5    0    0  0.59105676878E+02  0.16830757922E+02  0.78842928372E+02  0.12297038166E+03  0.71615305350E+02 0.  0.
          5    1    5    5  501    0  0.15952585127E+02 -0.80543187395E+02 -0.18922105108E+02  0.84390912246E+02  0.47000000000E+01 0. -1.
        -13    1    6    6    0    0 -0.16458799197E+02 -0.36084057247E+00  0.18407797074E+02  0.24695531378E+02  0.00000000000E+00 0.  1.
         14    1    6    6    0    0  0.75564476075E+02  0.17191598494E+02  0.60435131298E+02  0.98274850284E+02  0.00000000000E+00 0. -1.
         -5    1    3    3    0  503 -0.61328007896E+02 -0.38934949908E+02 -0.79439769623E+02  0.10774888340E+03  0.47000000000E+01 0.  1.
         13    1    4    4    0    0 -0.10011959893E+02  0.13713430934E+02 -0.75881946012E+02  0.77758390284E+02  0.00000000000E+00 0. -1.
        -14    1    4    4    0    0 -0.37182942157E+01  0.88933948447E+02 -0.65444301997E+02  0.11048090135E+03  0.00000000000E+00 0.  1.
</event>
<event>
12    1  0.8356052E-002  0.1914225E+03  0.7818608E-02  0.1157291E+00
         21   -1    0    0  501  502  0.00000000000E+00  0.00000000000E+00  0.69835628232E+02  0.69835628232E+02  0.00000000000E+00 0.  1.
         21   -1    0    0  502  503 -0.00000000000E+00 -0.00000000000E+00 -0.52341481445E+03  0.52341481445E+03  0.00000000000E+00 0.  1.
         -6    2    1    2    0  503  0.64557030454E+02 -0.52508822594E+02 -0.22509623131E+03  0.29548413807E+03  0.17238844471E+03 0.  0.
        -24    2    3    3    0    0 -0.32386260125E+01  0.14636038348E+02 -0.47015724085E+02  0.93396433249E+02  0.79295101459E+02 0.  0.
          6    2    1    2  501    0 -0.64557030454E+02  0.52508822594E+02 -0.22848295491E+03  0.29776630462E+03  0.17185902609E+03 0.  0.
         24    2    5    5    0    0 -0.68457268303E+01  0.44905642638E+02 -0.22024309061E+03  0.23878844203E+03  0.80308905915E+02 0.  0.
          5    1    5    5  501    0 -0.57711303624E+02  0.76031799559E+01 -0.82398643026E+01  0.58977862585E+02  0.47000000000E+01 0. -1.
        -13    1    6    6    0    0 -0.39547335245E+02  0.12598587189E+02 -0.67142669091E+02  0.78935759557E+02  0.00000000000E+00 0.  1.
         14    1    6    6    0    0  0.32701608415E+02  0.32307055449E+02 -0.15310042152E+03  0.15985268247E+03  0.00000000000E+00 0. -1.
         -5    1    3    3    0  503  0.67795656466E+02 -0.67144860942E+02 -0.17808050722E+03  0.20208770482E+03  0.47000000000E+01 0.  1.
         13    1    4    4    0    0 -0.26620711173E+02 -0.22497311512E+02 -0.31117399679E+02  0.46723482869E+02  0.00000000000E+00 0. -1.
        -14    1    4    4    0    0  0.23382085161E+02  0.37133349860E+02 -0.15898324406E+02  0.46672950380E+02  0.00000000000E+00 0.  1.
</event>
<event>
12    1  0.8356052E-002  0.1893887E+03  0.7818608E-02  0.1159036E+00
         21   -1    0    0  501  502  0.00000000000E+00  0.00000000000E+00  0.11100622326E+03  0.11100622326E+03  0.00000000000E+00 0. -1.
         21   -1    0    0  502  503 -0.00000000000E+00 -0.00000000000E+00 -0.62622866472E+03  0.62622866472E+03  0.00000000000E+00 0.  1.
         -6    2    1    2    0  503 -0.69711996902E+01 -0.81372424356E+02 -0.51410140049E+03  0.54784286371E+03  0.17076733957E+03 0.  0.
        -24    2    3    3    0    0 -0.60305260507E+02 -0.44156863189E+02 -0.21631337657E+03  0.24299976107E+03  0.81675296068E+02 0.  0.
          6    2    1    2  501    0  0.69711996902E+01  0.81372424356E+02 -0.11210409736E+01  0.18939202426E+03  0.17087426093E+03 0.  0.
         24    2    5    5    0    0 -0.33021269338E+02  0.96984242592E+02 -0.19165342090E+02  0.14258590019E+03  0.97298926285E+02 0.  0.
          5    1    5    5  501    0  0.39992469029E+02 -0.15611818236E+02  0.18044301116E+02  0.46806124069E+02  0.47000000000E+01 0. -1.
        -13    1    6    6    0    0  0.15309423826E+02  0.82669447565E+02 -0.32994036709E+02  0.90317343168E+02  0.00000000000E+00 0.  1.
         14    1    6    6    0    0 -0.48330693164E+02  0.14314795026E+02  0.13828694619E+02  0.52268557023E+02  0.00000000000E+00 0. -1.
         -5    1    3    3    0  503  0.53334060816E+02 -0.37215561166E+02 -0.29778802392E+03  0.30484310264E+03  0.47000000000E+01 0.  1.
         11    1    4    4    0    0 -0.10774787743E+02  0.21403864789E+02 -0.24221096065E+02  0.34071732762E+02  0.00000000000E+00 0. -1.
        -12    1    4    4    0    0 -0.49530472763E+02 -0.65560727978E+02 -0.19209228050E+03  0.20892802831E+03  0.00000000000E+00 0.  1.
</event>
<event>
12    1  0.8356052E-002  0.1974332E+03  0.7818608E-02  0.1152008E+00
         21   -1    0    0  503  502  0.00000000000E+00  0.00000000000E+00  0.50326746347E+03  0.50326746347E+03  0.00000000000E+00 0.  1.
         21   -1    0    0  501  503 -0.00000000000E+00 -0.00000000000E+00 -0.80198389319E+02  0.80198389319E+02  0.00000000000E+00 0. -1.
          6    2    1    2  501    0  0.94092665745E+02  0.11629563744E+01  0.15625989805E+03  0.25178765117E+03  0.17356578963E+03 0.  0.
         24    2    3    3    0    0  0.11846714887E+03  0.29900473779E+02  0.15563968598E+03  0.21380824889E+03  0.81004640295E+02 0.  0.
         -6    2    1    2    0  502 -0.94092665745E+02 -0.11629563744E+01  0.26680917611E+03  0.33167820162E+03  0.17311415529E+03 0.  0.
        -24    2    5    5    0    0 -0.10591439029E+03  0.45020320617E+01  0.10093063921E+03  0.16521612105E+03  0.76624058633E+02 0.  0.
          5    1    3    3  501    0 -0.24374483124E+02 -0.28737517405E+02  0.62021206596E+00  0.37979402275E+02  0.47000000000E+01 0. -1.
        -13    1    4    4    0    0 -0.10371184918E+02  0.13408572992E+01  0.29320383652E+02  0.31129475941E+02  0.00000000000E+00 0.  1.
         14    1    4    4    0    0  0.12883833379E+03  0.28559616480E+02  0.12631930233E+03  0.18267877295E+03  0.00000000000E+00 0. -1.
         -5    1    5    5    0  502  0.11821724540E+02 -0.56649884361E+01  0.16587853690E+03  0.16646208057E+03  0.47000000000E+01 0.  1.
         11    1    6    6    0    0 -0.74814802725E+02  0.38321716853E+02  0.56357263051E+02  0.10120251868E+03  0.00000000000E+00 0. -1.
        -12    1    6    6    0    0 -0.31099587561E+02 -0.33819684791E+02  0.44573376156E+02  0.64013602365E+02  0.00000000000E+00 0.  1.
</event>
<event>
12    1  0.8356052E-002  0.2072200E+03  0.7818608E-02  0.1143840E+00
         21   -1    0    0  501  502  0.00000000000E+00  0.00000000000E+00  0.69262169018E+02  0.69262169018E+02  0.00000000000E+00 0. -1.
         21   -1    0    0  502  503 -0.00000000000E+00 -0.00000000000E+00 -0.64660559643E+03  0.64660559643E+03  0.00000000000E+00 0.  1.
         -6    2    1    2    0  503 -0.86048017806E+02  0.77978219481E+02 -0.36222325478E+03  0.41717592303E+03  0.17130440850E+03 0.  0.
        -24    2    3    3    0    0 -0.98681109386E+02  0.55589871425E+02 -0.15356021215E+03  0.20688282164E+03  0.79947282505E+02 0.  0.
          6    2    1    2  501    0  0.86048017806E+02 -0.77978219481E+02 -0.21512017264E+03  0.29869184242E+03  0.17162535935E+03 0.  0.
         24    2    5    5    0    0  0.63983423521E+02 -0.55266192449E+02 -0.23382485676E+03  0.26161573555E+03  0.81366448458E+02 0.  0.
          5    1    5    5  501    0  0.22064594285E+02 -0.22712027031E+02  0.18704684123E+02  0.37076106875E+02  0.47000000000E+01 0. -1.
        -13    1    6    6    0    0  0.73567715683E+02 -0.68528360493E+02 -0.19261200580E+03  0.21727339865E+03  0.00000000000E+00 0.  1.
         14    1    6    6    0    0 -0.95842921618E+01  0.13262168043E+02 -0.41212850954E+02  0.44342336894E+02  0.00000000000E+00 0. -1.
         -5    1    3    3    0  503  0.12633091580E+02  0.22388348056E+02 -0.20866304263E+03  0.21029310139E+03  0.47000000000E+01 0.  1.
         13    1    4    4    0    0 -0.61504979329E+02  0.33692381479E+02 -0.30492595415E+02  0.76471154216E+02  0.00000000000E+00 0. -1.
        -14    1    4    4    0    0 -0.37176130057E+02  0.21897489946E+02 -0.12306761673E+03  0.13041166742E+03  0.00000000000E+00 0.  1.
</event>
<event>
12    1  0.8356052E-002  0.2185585E+03  0.7818608E-02  0.1135617E+00
         21   -1    0    0  501  502  0.00000000000E+00  0.00000000000E+00  0.68081728830E+03  0.68081728830E+03  0.00000000000E+00 0. -1.
         21   -1    0    0  502  503 -0.00000000000E+00 -0.00000000000E+00 -0.81109300814E+02  0.81109300814E+02  0.00000000000E+00 0. -1.
         -6    2    1    2    0  503  0.10791439223E+03  0.80586253542E+02  0.15098129650E+03  0.26280388349E+03  0.16772259531E+03 0.  0.
        -24    2    3    3    0    0  0.86456684173E+02  0.76906240017E+02  0.34846663332E+02  0.14455279997E+03  0.79321460151E+02 0.  0.
          6    2    1    2  501    0 -0.10791439223E+03 -0.80586253542E+02  0.44872669099E+03  0.49912270562E+03  0.17212835837E+03 0.  0.
         24    2    5    5    0    0 -0.11574999595E+03 -0.69563550763E+02  0.22893330181E+03  0.27886349335E+03  0.84363748685E+02 0.  0.
          5    1    5    5  501    0  0.78356037232E+01 -0.11022702779E+02  0.21979338918E+03  0.22025921227E+03  0.47000000000E+01 0. -1.
        -11    1    6    6    0    0  0.47266500643E+01  0.11196015153E+02  0.79110204423E+01  0.14500904130E+02  0.00000000000E+00 0.  1.
         12    1    6    6    0    0 -0.12047664601E+03 -0.80759565916E+02  0.22102228136E+03  0.26436258922E+03  0.00000000000E+00 0. -1.
         -5    1    3    3    0  503  0.21457708052E+02  0.36800135242E+01  0.11613463317E+03  0.11825108353E+03  0.47000000000E+01 0.  1.
         11    1    4    4    0    0  0.99657124703E+02  0.54576594272E+02  0.22519096501E+02  0.11583288330E+03  0.00000000000E+00 0. -1.
        -12    1    4    4    0    0 -0.13200440529E+02  0.22329645745E+02  0.12327566831E+02  0.28719916665E+02  0.00000000000E+00 0.  1.
</event>
<event>
12    1  0.8356052E-002  0.2007706E+03  0.7818608E-02  0.1149291E+00
         21   -1    0    0  503  502  0.00000000000E+00  0.00000000000E+00  0.47099792389E+03  0.47099792389E+03  0.00000000000E+00 0.  1.
         21   -1    0    0  501  503 -0.00000000000E+00 -0.00000000000E+00 -0.88798811656E+02  0.88798811656E+02  0.00000000000E+00 0.  1.
          6    2    1    2  501    0 -0.10013979272E+03 -0.21865803116E+02  0.13413080204E+03  0.24066239056E+03  0.17152615760E+03 0.  0.
         24    2    3    3    0    0 -0.12729400351E+03 -0.48406336116E+02  0.88448553575E+02  0.18107456562E+03  0.80111890379E+02 0.  0.
         -6    2    1    2    0  502  0.10013979272E+03  0.21865803116E+02  0.24806831019E+03  0.31913434499E+03  0.17263473636E+03 0.  0.
        -24    2    5    5    0    0  0.83083189982E+02  0.65247881341E+01  0.58498764576E+02  0.12812393412E+03  0.77770481023E+02 0.  0.
          5    1    3    3  501    0  0.27154210787E+02  0.26540533000E+02  0.45682248470E+02  0.59587824936E+02  0.47000000000E+01 0. -1.
        -13    1    4    4    0    0 -0.12783226525E+03 -0.33021972568E+02  0.52709609709E+02  0.14216132268E+03  0.00000000000E+00 0.  1.
         14    1    4    4    0    0  0.53826173996E+00 -0.15384363548E+02  0.35738943866E+02  0.38913242940E+02  0.00000000000E+00 0. -1.
         -5    1    5    5    0  502  0.17056602739E+02  0.15341014982E+02  0.18956954562E+03  0.19101041087E+03  0.47000000000E+01 0.  1.
         11    1    6    6    0    0  0.58280902267E+02  0.40253006975E+02  0.27290589131E+02  0.75906155183E+02  0.00000000000E+00 0. -1.
        -12    1    6    6    0    0  0.24802287715E+02 -0.33728218841E+02  0.31208175445E+02  0.52217778933E+02  0.00000000000E+00 0.  1.
</event>
<event>
12    1  0.8356052E-002  0.1867515E+03  0.7818608E-02  0.1161512E+00
         21   -1    0    0  503  502  0.00000000000E+00  0.00000000000E+00  0.12670186146E+03  0.12670186146E+03  0.00000000000E+00 0. -1.
         21   -1    0    0  501  503 -0.00000000000E+00 -0.00000000000E+00 -0.28849707622E+03  0.28849707622E+03  0.00000000000E+00 0. -1.
          6    2    1    2  501    0  0.44262002302E+02 -0.56793623731E+02 -0.12636937881E+03  0.22548914481E+03  0.17231219918E+03 0.  0.
         24    2    3    3    0    0 -0.42317609055E+02 -0.35623865587E+02 -0.51822234196E+02  0.10919832604E+03  0.78605919730E+02 0.  0.
         -6    2    1    2    0  502 -0.44262002302E+02  0.56793623731E+02 -0.35425835958E+02  0.18970979287E+03  0.17190164372E+03 0.  0.
        -24    2    5    5    0    0 -0.86878864137E+02  0.29627527617E+02  0.87982997622E+01  0.12238923233E+03  0.80473515434E+02 0.  0.
          5    1    3    3  501    0  0.86579611357E+02 -0.21169758144E+02 -0.74547144610E+02  0.11629081878E+03  0.47000000000E+01 0. -1.
        -11    1    4    4    0    0  0.65271982708E+01 -0.39852920358E+02 -0.37871422398E+01  0.40561090033E+02  0.00000000000E+00 0.  1.
         12    1    4    4    0    0 -0.48844807325E+02  0.42290547710E+01 -0.48035091956E+02  0.68637236003E+02  0.00000000000E+00 0. -1.
         -5    1    5    5    0  502  0.42616861835E+02  0.27166096113E+02 -0.44224135720E+02  0.67320560536E+02  0.47000000000E+01 0.  1.
         11    1    6    6    0    0 -0.80049833445E+02 -0.70062056206E+00 -0.17180689202E+02  0.81875776548E+02  0.00000000000E+00 0. -1.
        -12    1    6    6    0    0 -0.68290306919E+01  0.30328148180E+02  0.25978988964E+02  0.40513455787E+02  0.00000000000E+00 0.  1.
</event>
<event>
12    1  0.8356052E-002  0.2185587E+03  0.7818608E-02  0.1135765E+00
         21   -1    0    0  501  502  0.00000000000E+00  0.00000000000E+00  0.17245033229E+03  0.17245033229E+03  0.00000000000E+00 0. -1.
         21   -1    0    0  502  503 -0.00000000000E+00 -0.00000000000E+00 -0.40020607328E+03  0.40020607328E+03  0.00000000000E+00 0.  1.
         -6    2    1    2    0  503 -0.24612855091E+02 -0.13177160335E+03 -0.27538914080E+03  0.34896723190E+03  0.16724055124E+03 0.  0.
        -24    2    3    3    0    0 -0.23492231686E+02 -0.78261212536E+02 -0.64585515025E+02  0.13142441689E+03  0.80152269249E+02 0.  0.
          6    2    1    2  501    0  0.24612855091E+02  0.13177160335E+03  0.47633399811E+02  0.22368917368E+03  0.17262200775E+03 0.  0.
         24    2    5    5    0    0  0.82588137381E+02  0.78640399383E+02  0.34583575512E+02  0.14383652122E+03  0.80546932214E+02 0.  0.
          5    1    5    5  501    0 -0.57975282290E+02  0.53131203968E+02  0.13049824299E+02  0.79852652466E+02  0.47000000000E+01 0. -1.
        -13    1    6    6    0    0  0.34047195126E+02 -0.12504004675E+02  0.68367222802E+01  0.36909380927E+02  0.00000000000E+00 0.  1.
         14    1    6    6    0    0  0.48540942254E+02  0.91144404058E+02  0.27746853232E+02  0.10692714029E+03  0.00000000000E+00 0. -1.
         -5    1    3    3    0  503 -0.11206234052E+01 -0.53510390816E+02 -0.21080362578E+03  0.21754281501E+03  0.47000000000E+01 0.  1.
         13    1    4    4    0    0 -0.51534908644E+02 -0.34679332366E+02 -0.41406963385E+02  0.74652793110E+02  0.00000000000E+00 0. -1.
        -14    1    4    4    0    0  0.28042676958E+02 -0.43581880170E+02 -0.23178551639E+02  0.56771623777E+02  0.00000000000E+00 0.  1.
</event>
<event>
12    1  0.8356052E-002  0.1924317E+03  0.7818608E-02  0.1156639E+00
         21   -1    0    0  503  502  0.00000000000E+00  0.00000000000E+00  0.13277171184E+03  0.13277171184E+03  0.00000000000E+00 0.  1.
         21   -1    0    0  501  503 -0.00000000000E+00 -0.00000000000E+00 -0.28086265054E+03  0.28086265054E+03  0.00000000000E+00 0.  1.
          6    2    1    2  501    0 -0.79005689280E+02 -0.30819537796E+02 -0.48294207818E+02  0.19686412899E+03  0.17097196240E+03 0.  0.
         24    2    3    3    0    0  0.20807228942E+02  0.35421001118E+01 -0.38446251940E+01  0.82229072400E+02  0.79381055394E+02 0.  0.
         -6    2    1    2    0  502  0.79005689280E+02  0.30819537796E+02 -0.99796730878E+02  0.21677023339E+03  0.17273738373E+03 0.  0.
        -24    2    5    5    0    0  0.88421481730E+02 -0.35191561508E+02 -0.70590997041E+02  0.14382376488E+03  0.81519212751E+02 0.  0.
          5    1    3    3  501    0 -0.99812918222E+02 -0.34361637908E+02 -0.44449582624E+02  0.11463505659E+03  0.47000000000E+01 0. -1.
        -11    1    4    4    0    0 -0.60853585820E+01  0.28716681175E+00  0.34637232868E+02  0.35168906076E+02  0.00000000000E+00 0.  1.
         12    1    4    4    0    0  0.26892587524E+02  0.32549333000E+01 -0.38481858062E+02  0.47060166324E+02  0.00000000000E+00 0. -1.
         -5    1    5    5    0  502 -0.94157924497E+01  0.66011099305E+02 -0.29205733837E+02  0.72946468508E+02  0.47000000000E+01 0.  1.
         13    1    6    6    0    0  0.20353960341E+02 -0.35177440270E+02  0.63065997487E+01  0.41127961363E+02  0.00000000000E+00 0. -1.
        -14    1    6    6    0    0  0.68067521389E+02 -0.14121238521E-01 -0.76897596790E+02  0.10269580351E+03  0.00000000000E+00 0.  1.
</event>
<event>
12    1  0.8356052E-002  0.3792360E+03  0.7818608E-02  0.1051265E+00
         21   -1    0    0  503  502  0.00000000000E+00  0.00000000000E+00  0.24211238997E+04  0.24211238997E+04  0.00000000000E+00 0. -1.
         21   -1    0    0  501  503 -0.00000000000E+00 -0.00000000000E+00 -0.33905148792E+03  0.33905148792E+03  0.00000000000E+00 0.  1.
          6    2    1    2  501    0 -0.21113150729E+03 -0.26334048019E+03 -0.21265022752E+03  0.43432673833E+03  0.17174071879E+03 0.  0.
         24    2    3    3    0    0 -0.12654344932E+03 -0.70487319918E+02 -0.71461777932E+02  0.18074489893E+03  0.81118591879E+02 0.  0.
         -6    2    1    2    0  502  0.21113150729E+03  0.26334048019E+03  0.22947226393E+04  0.23258486492E+04  0.17290236023E+03 0.  0.
        -24    2    5    5    0    0  0.22748421362E+03  0.23307114790E+03  0.20454983401E+04  0.20742170043E+04  0.11064128453E+03 0.  0.
          5    1    3    3  501    0 -0.84588057966E+02 -0.19285316027E+03 -0.14118844959E+03  0.25358183940E+03  0.47000000000E+01 0. -1.
        -11    1    4    4    0    0 -0.99676768698E+02 -0.27092177075E+02 -0.77799172207E+02  0.12931417352E+03  0.00000000000E+00 0.  1.
         12    1    4    4    0    0 -0.26866680624E+02 -0.43395142843E+02  0.63373942750E+01  0.51430725411E+02  0.00000000000E+00 0. -1.
         -5    1    5    5    0  502 -0.16352706330E+02  0.30269332293E+02  0.24922429913E+03  0.25163164498E+03  0.47000000000E+01 0.  1.
         11    1    6    6    0    0  0.15205548062E+03  0.15429473156E+03  0.10087807610E+04  0.10317782500E+04  0.00000000000E+00 0. -1.
        -12    1    6    6    0    0  0.75428732995E+02  0.78776416339E+02  0.10367175791E+04  0.10424387543E+04  0.00000000000E+00 0.  1.
</event>
<event>
12    1  0.8356052E-002  0.1765629E+03  0.7818608E-02  0.1171483E+00
         21   -1    0    0  503  502  0.00000000000E+00  0.00000000000E+00  0.28232212285E+03  0.28232212285E+03  0.00000000000E+00 0.  1.
         21   -1    0    0  501  503 -0.00000000000E+00 -0.00000000000E+00 -0.12049980481E+03  0.12049980481E+03  0.00000000000E+00 0.  1.
          6    2    1    2  501    0 -0.34604803542E+02 -0.92885766277E+01  0.20184759895E+02  0.17646899547E+03  0.17161034860E+03 0.  0.
         24    2    3    3    0    0 -0.43007161709E+02 -0.25577708406E+02 -0.48683159544E+02  0.10504899991E+03  0.78494631881E+02 0.  0.
         -6    2    1    2    0  502  0.34604803542E+02  0.92885766277E+01  0.14163755815E+03  0.22635293220E+03  0.17288921874E+03 0.  0.
        -24    2    5    5    0    0  0.69922280316E+02  0.31350831726E+02  0.14688591741E+03  0.18411902946E+03  0.80326485928E+02 0.  0.
          5    1    3    3  501    0  0.84023581666E+01  0.16289131778E+02  0.68867919439E+02  0.71419995553E+02  0.47000000000E+01 0. -1.
        -13    1    4    4    0    0  0.19375675056E+02  0.94343882969E+01 -0.11385601664E+02  0.24373272075E+02  0.00000000000E+00 0.  1.
         14    1    4    4    0    0 -0.62382836765E+02 -0.35012096703E+02 -0.37297557881E+02  0.80675727839E+02  0.00000000000E+00 0. -1.
         -5    1    5    5    0  502 -0.35317476773E+02 -0.22062255098E+02 -0.52483592670E+01  0.42233902740E+02  0.47000000000E+01 0.  1.
         13    1    6    6    0    0  0.77386850877E+02 -0.11390814049E+01  0.96481623859E+02  0.12368801857E+03  0.00000000000E+00 0. -1.
        -14    1    6    6    0    0 -0.74645705614E+01  0.32489913131E+02  0.50404293554E+02  0.60431010893E+02  0.00000000000E+00 0.  1.
</event>
<event>
12    1  0.8356052E-002  0.2126604E+03  0.7818608E-02  0.1140309E+00
         21   -1    0    0  503  502  0.00000000000E+00  0.00000000000E+00  0.91247117143E+03  0.91247117143E+03  0.00000000000E+00 0.  1.
         21   -1    0    0  501  503 -0.00000000000E+00 -0.00000000000E+00 -0.49220479197E+02  0.49220479197E+02  0.00000000000E+00 0.  1.
          6    2    1    2  501    0 -0.11033347445E+03 -0.40635262470E+02  0.48213668516E+03  0.52526027896E+03  0.17209845247E+03 0.  0.
         24    2    3    3    0    0 -0.14636190407E+03 -0.36296373550E+02  0.37419385901E+03  0.41128388925E+03  0.79963490013E+02 0.  0.
         -6    2    1    2    0  502  0.11033347445E+03  0.40635262470E+02  0.38111400708E+03  0.43643137166E+03  0.17719976197E+03 0.  0.
        -24    2    5    5    0    0  0.70590627100E+02 -0.94557796726E+00  0.89185555604E+02  0.13885319540E+03  0.79638029817E+02 0.  0.
          5    1    3    3  501    0  0.36028429616E+02 -0.43388889200E+01  0.10794282614E+03  0.11397638972E+03  0.47000000000E+01 0. -1.
        -13    1    4    4    0    0 -0.10449744248E+03 -0.62049460656E+02  0.26743324020E+03  0.29375225789E+03  0.00000000000E+00 0.  1.
         14    1    4    4    0    0 -0.41864461590E+02  0.25753087106E+02  0.10676061881E+03  0.11753163135E+03  0.00000000000E+00 0. -1.
         -5    1    5    5    0  502  0.39742847350E+02  0.41580840438E+02  0.29192845147E+03  0.29757817626E+03  0.47000000000E+01 0.  1.
         11    1    6    6    0    0  0.19911939592E+02 -0.32169276013E+02  0.63729185294E+02  0.74113134570E+02  0.00000000000E+00 0. -1.
        -12    1    6    6    0    0  0.50678687509E+02  0.31223698046E+02  0.25456370310E+02  0.64740060833E+02  0.00000000000E+00 0.  1.
</event>
<event>
12    1  0.8356052E-002  0.1922638E+03  0.7818608E-02  0.1157019E+00
         21   -1    0    0  503  502  0.00000000000E+00  0.00000000000E+00  0.22656465664E+03  0.22656465664E+03  0.00000000000E+00 0. -1.
         21   -1    0    0  501  503 -0.00000000000E+00 -0.00000000000E+00 -0.19648572896E+03  0.19648572896E+03  0.00000000000E+00 0. -1.
          6    2    1    2  501    0  0.80331803546E+02  0.31785544220E+02 -0.74833975725E+02  0.20631406875E+03  0.17176103038E+03 0.  0.
         24    2    3    3    0    0 -0.20302253117E+02  0.32185458415E+02 -0.51379688534E+02  0.10287535801E+03  0.80593930764E+02 0.  0.
         -6    2    1    2    0  502 -0.80331803546E+02 -0.31785544220E+02  0.10491290340E+03  0.21673631685E+03  0.16883244434E+03 0.  0.
        -24    2    5    5    0    0 -0.65642311979E+02 -0.59542496601E+02  0.12934998921E+03  0.17666774150E+03  0.81399319135E+02 0.  0.
          5    1    3    3  501    0  0.10063405666E+03 -0.39991419513E+00 -0.23454287191E+02  0.10343871074E+03  0.47000000000E+01 0. -1.
        -11    1    4    4    0    0 -0.19492161346E+02 -0.24137511954E+02 -0.87549382757E+01  0.32236823378E+02  0.00000000000E+00 0.  1.
         12    1    4    4    0    0 -0.81009177129E+00  0.56322970369E+02 -0.42624750258E+02  0.70638534628E+02  0.00000000000E+00 0. -1.
         -5    1    5    5    0  502 -0.14689491567E+02  0.27756952382E+02 -0.24437085808E+02  0.40068575353E+02  0.47000000000E+01 0.  1.
         11    1    6    6    0    0 -0.39303937623E+02 -0.85718336614E+01  0.10834151194E+03  0.11556884985E+03  0.00000000000E+00 0. -1.
        -12    1    6    6    0    0 -0.26338374356E+02 -0.50970662940E+02  0.21008477263E+02  0.61098891653E+02  0.00000000000E+00 0.  1.
</event>
<event>
12    1  0.8356052E-002  0.1725986E+03  0.7818608E-02  0.1175239E+00
         21   -1    0    0  501  502  0.00000000000E+00  0.00000000000E+00  0.12792274282E+03  0.12792274282E+03  0.00000000000E+00 0.  1.
         21   -1    0    0  502  503 -0.00000000000E+00 -0.00000000000E+00 -0.44068203032E+03  0.44068203032E+03  0.00000000000E+00 0.  1.
         -6    2    1    2    0  503 -0.21526436368E+02  0.81882716328E+01 -0.35172324575E+03  0.39166273896E+03  0.17076306459E+03 0.  0.
        -24    2    3    3    0    0  0.36128322680E+02  0.36265296414E+02 -0.12526416809E+03  0.15625204587E+03  0.78122740657E+02 0.  0.
          6    2    1    2  501    0  0.21526436368E+02 -0.81882716328E+01  0.38963958252E+02  0.17694203418E+03  0.17105513194E+03 0.  0.
         24    2    5    5    0    0 -0.23425123707E+02 -0.45136913565E+02 -0.16818557499E+02  0.96197845797E+02  0.79906722325E+02 0.  0.
          5    1    5    5  501    0  0.44951560075E+02  0.36948641933E+02  0.55782515751E+02  0.80744188382E+02  0.47000000000E+01 0. -1.
        -11    1    6    6    0    0 -0.52983817035E+02 -0.23836514829E+02 -0.74146228820E+01  0.58569966188E+02  0.00000000000E+00 0.  1.
         12    1    6    6    0    0  0.29558693328E+02 -0.21300398736E+02 -0.94039346169E+01  0.37627879609E+02  0.00000000000E+00 0. -1.
         -5    1    3    3    0  503 -0.57654759049E+02 -0.28077024781E+02 -0.22645907767E+03  0.23541069309E+03  0.47000000000E+01 0.  1.
         11    1    4    4    0    0 -0.24528791518E+02  0.10812788311E+02 -0.27376497882E+02  0.38315148971E+02  0.00000000000E+00 0. -1.
        -12    1    4    4    0    0  0.60657114198E+02  0.25452508103E+02 -0.97887670205E+02  0.11793689690E+03  0.00000000000E+00 0.  1.
</event>
<event>
12    1  0.8356052E-002  0.2701255E+03  0.7818608E-02  0.1101288E+00
         21   -1    0    0  501  502  0.00000000000E+00  0.00000000000E+00  0.25275743694E+03  0.25275743694E+03  0.00000000000E+00 0. -1.
         21   -1    0    0  502  503 -0.00000000000E+00 -0.00000000000E+00 -0.29071685766E+03  0.29071685766E+03  0.00000000000E+00 0.  1.
         -6    2    1    2    0  503  0.20689206439E+03  0.21027649226E+02 -0.44846014387E+02  0.27382286970E+03  0.17239869670E+03 0.  0.
        -24    2    3    3    0    0  0.17603941607E+03  0.46868759935E+01  0.26430315472E+02  0.19431619088E+03  0.77771316343E+02 0.  0.
          6    2    1    2  501    0 -0.20689206439E+03 -0.21027649226E+02  0.68865936705E+01  0.26965142490E+03  0.17151669727E+03 0.  0.
         24    2    5    5    0    0 -0.13267919781E+03 -0.28879711669E+02 -0.59536306442E+02  0.16963494571E+03  0.82423514514E+02 0.  0.
          5    1    5    5  501    0 -0.74212866579E+02  0.78520624432E+01  0.66422900112E+02  0.10001647919E+03  0.47000000000E+01 0. -1.
        -11    1    6    6    0    0 -0.12866890297E+03 -0.48379315854E+01 -0.31639636572E+02  0.13259019110E+03  0.00000000000E+00 0.  1.
         12    1    6    6    0    0 -0.40102948362E+01 -0.24041780084E+02 -0.27896669870E+02  0.37044754610E+02  0.00000000000E+00 0. -1.
         -5    1    3    3    0  503  0.30852648314E+02  0.16340773233E+02 -0.71276329859E+02  0.79506678814E+02  0.47000000000E+01 0.  1.
         13    1    4    4    0    0  0.17067317752E+03 -0.50924955317E+01  0.57815666628E+01  0.17084698870E+03  0.00000000000E+00 0. -1.
        -14    1    4    4    0    0  0.53662385524E+01  0.97793715252E+01  0.20648748809E+02  0.23469202181E+02  0.00000000000E+00 0.  1.
</event>
<event>
12    1  0.8356052E-002  0.1920719E+03  0.7818608E-02  0.1156993E+00
         21   -1    0    0  501  502  0.00000000000E+00  0.00000000000E+00  0.12900394313E+03  0.12900394313E+03  0.00000000000E+00 0.  1.
         21   -1    0    0  502  503 -0.00000000000E+00 -0.00000000000E+00 -0.91931719422E+03  0.91931719422E+03  0.00000000000E+00 0. -1.
         -6    2    1    2    0  503  0.74297879126E+02  0.35619149738E+02 -0.83165207814E+03  0.85354367070E+03  0.17350135460E+03 0.  0.
        -24    2    3    3    0    0 -0.49194570650E+00  0.73714223377E+02 -0.47187722049E+03  0.48407812328E+03  0.78927114997E+02 0.  0.
          6    2    1    2  501    0 -0.74297879126E+02 -0.35619149738E+02  0.41338827050E+02  0.19477746664E+03  0.17158223748E+03 0.  0.
         24    2    5    5    0    0 -0.74974982945E+02  0.35670219614E+02  0.36820063380E+02  0.12318737042E+03  0.83221382641E+02 0.  0.
          5    1    5    5  501    0  0.67710381922E+00 -0.71289369352E+02  0.45187636705E+01  0.71590096223E+02  0.47000000000E+01 0. -1.
        -11    1    6    6    0    0 -0.36086616702E+01  0.21527467648E+02  0.44960695465E+02  0.49979180057E+02  0.00000000000E+00 0.  1.
         12    1    6    6    0    0 -0.71366321275E+02  0.14142751966E+02 -0.81406320856E+01  0.73208190363E+02  0.00000000000E+00 0. -1.
         -5    1    3    3    0  503  0.74789824832E+02 -0.38095073639E+02 -0.35977485765E+03  0.36946554742E+03  0.47000000000E+01 0.  1.
         11    1    4    4    0    0  0.15081027742E+02  0.36474362945E+02 -0.39749116075E+03  0.39944591552E+03  0.00000000000E+00 0. -1.
        -12    1    4    4    0    0 -0.15572973448E+02  0.37239860431E+02 -0.74386059746E+02  0.84632207767E+02  0.00000000000E+00 0.  1.
</event>
<event>
12    1  0.8356052E-002  0.1990597E+03  0.7818608E-02  0.1150552E+00
         21   -1    0    0  503  502  0.00000000000E+00  0.00000000000E+00  0.15271883340E+03  0.15271883340E+03  0.00000000000E+00 0. -1.
         21   -1    0    0  501  503 -0.00000000000E+00 -0.00000000000E+00 -0.35446957180E+03  0.35446957180E+03  0.00000000000E+00 0. -1.
          6    2    1    2  501    0 -0.52970514823E+01 -0.99449475992E+02 -0.23225134210E+03  0.30588469982E+03  0.17235575605E+03 0.  0.
         24    2    3    3    0    0  0.40758707667E+01 -0.13687930910E+03 -0.16934853989E+03  0.23194082512E+03  0.79781328724E+02 0.  0.
         -6    2    1    2    0  502  0.52970514823E+01  0.99449475992E+02  0.30500603700E+02  0.20130370539E+03  0.17226328090E+03 0.  0.
        -24    2    5    5    0    0  0.39355646417E+02  0.50622143123E+02 -0.41220058751E+02  0.10797611168E+03  0.76474042470E+02 0.  0.
          5    1    3    3  501    0 -0.93729222490E+01  0.37429833113E+02 -0.62902802215E+02  0.73943874695E+02  0.47000000000E+01 0. -1.
        -11    1    4    4    0    0 -0.31269372586E+01 -0.88271413435E+02 -0.46912338683E+02  0.10001193772E+03  0.00000000000E+00 0.  1.
         12    1    4    4    0    0  0.72028080253E+01 -0.48607895670E+02 -0.12243620121E+03  0.13192888740E+03  0.00000000000E+00 0. -1.
         -5    1    5    5    0  502 -0.34058594935E+02  0.48827332870E+02  0.71720662450E+02  0.93327593703E+02  0.47000000000E+01 0.  1.
         13    1    6    6    0    0  0.12033349224E+02  0.46390166626E+02  0.10743616591E+02  0.49114909657E+02  0.00000000000E+00 0. -1.
        -14    1    6    6    0    0  0.27322297193E+02  0.42319764967E+01 -0.51963675342E+02  0.58861202027E+02  0.00000000000E+00 0.  1.
</event>
<event>
12    1  0.8356052E-002  0.1778394E+03  0.7818608E-02  0.1170031E+00
         21   -1    0    0  503  502  0.00000000000E+00  0.00000000000E+00  0.54115496056E+03  0.54115496056E+03  0.00000000000E+00 0.  1.
         21   -1    0    0  501  503 -0.00000000000E+00 -0.00000000000E+00 -0.72771013358E+02  0.72771013358E+02  0.00000000000E+00 0.  1.
          6    2    1    2  501    0  0.16480027540E+02 -0.42332454385E+02  0.97482267135E+02  0.20280447350E+03  0.17193962331E+03 0.  0.
         24    2    3    3    0    0  0.11152080047E+01  0.42839416747E+02  0.56085631243E+02  0.10675190053E+03  0.80086896048E+02 0.  0.
         -6    2    1    2    0  502 -0.16480027540E+02  0.42332454385E+02  0.37090168007E+03  0.41112150042E+03  0.17143279682E+03 0.  0.
        -24    2    5    5    0    0 -0.19322022295E+02  0.65237229121E+02  0.37312175057E+03  0.38746300611E+03  0.79237009931E+02 0.  0.
          5    1    3    3  501    0  0.15364819535E+02 -0.85171871131E+02  0.41396635892E+02  0.96052572972E+02  0.47000000000E+01 0. -1.
        -11    1    4    4    0    0  0.14543272722E+02  0.14452106080E+02 -0.17365874599E+02  0.26869011002E+02  0.00000000000E+00 0.  1.
         12    1    4    4    0    0 -0.13428064717E+02  0.28387310666E+02  0.73451505841E+02  0.79882889528E+02  0.00000000000E+00 0. -1.
         -5    1    5    5    0  502  0.28419947555E+01 -0.22904774737E+02 -0.22200705050E+01  0.23658494309E+02  0.47000000000E+01 0.  1.
         13    1    6    6    0    0 -0.58169606239E+01  0.25745994148E+02  0.23443693870E+02  0.35302974773E+02  0.00000000000E+00 0. -1.
        -14    1    6    6    0    0 -0.13505061671E+02  0.39491234973E+02  0.34967805670E+03  0.35216003134E+03  0.00000000000E+00 0.  1.
</event>
<event>
12    1  0.8356052E-002  0.1907658E+03  0.7818608E-02  0.1160074E+00
         21   -1    0    0  503  502  0.00000000000E+00  0.00000000000E+00  0.20176441045E+03  0.20176441045E+03  0.00000000000E+00 0. -1.
         21   -1    0    0  501  503 -0.00000000000E+00 -0.00000000000E+00 -0.40334037474E+03  0.40334037474E+03  0.00000000000E+00 0. -1.
          6    2    1    2  501    0  0.14218814459E+02 -0.54088710534E+02 -0.32920351204E+03  0.37558273319E+03  0.17192926987E+03 0.  0.
         24    2    3    3    0    0  0.63872015074E+02 -0.53964337322E+02 -0.13019030883E+03  0.17041499485E+03  0.71414073868E+02 0.  0.
         -6    2    1    2    0  502 -0.14218814459E+02  0.54088710534E+02  0.12762754775E+03  0.22952205200E+03  0.18238371122E+03 0.  0.
        -24    2    5    5    0    0 -0.71784265893E+02  0.26999233817E+01  0.49340503971E+02  0.11949687366E+03  0.81760302515E+02 0.  0.
          5    1    3    3  501    0 -0.49653200615E+02 -0.12437321290E+00 -0.19901320321E+03  0.20516773833E+03  0.47000000000E+01 0. -1.
        -11    1    4    4    0    0  0.78886083560E+01 -0.53351996305E+02 -0.66281114412E+02  0.85450873484E+02  0.00000000000E+00 0.  1.
         12    1    4    4    0    0  0.55983406718E+02 -0.61234101621E+00 -0.63909194414E+02  0.84964121369E+02  0.00000000000E+00 0. -1.
         -5    1    5    5    0  502  0.57565451434E+02  0.51388787153E+02  0.78287043777E+02  0.11002517833E+03  0.47000000000E+01 0.  1.
         11    1    6    6    0    0 -0.79285866516E+02 -0.12280562349E+02  0.59515170006E+02  0.99895526935E+02  0.00000000000E+00 0. -1.
        -12    1    6    6    0    0  0.75016006233E+01  0.14980485731E+02 -0.10174666035E+02  0.19601346728E+02  0.00000000000E+00 0.  1.
</event>
<event>
12    1  0.8356052E-002  0.1812858E+03  0.7818608E-02  0.1166808E+00
         21   -1    0    0  501  502  0.00000000000E+00  0.00000000000E+00  0.90112432522E+02  0.90112432522E+02  0.00000000000E+00 0.  1.
         21   -1    0    0  502  503 -0.00000000000E+00 -0.00000000000E+00 -0.49199962245E+03  0.49199962245E+03  0.00000000000E+00 0.  1.
         -6    2    1    2    0  503 -0.52981389052E+02  0.19606603533E+02 -0.35058132925E+03  0.39467939091E+03  0.17225883635E+03 0.  0.
        -24    2    3    3    0    0 -0.99312206766E+01 -0.17375865750E+02 -0.70648666185E+02  0.10901279174E+03  0.80572978561E+02 0.  0.
          6    2    1    2  501    0  0.52981389052E+02 -0.19606603533E+02 -0.51305860673E+02  0.18743266406E+03  0.17119364979E+03 0.  0.
         24    2    5    5    0    0  0.71439494788E+01 -0.70949829382E+02 -0.51072965356E+02  0.11844467998E+03  0.79597613790E+02 0.  0.
          5    1    5    5  501    0  0.45837439573E+02  0.51343225849E+02 -0.23289531674E+00  0.68987984080E+02  0.47000000000E+01 0. -1.
        -11    1    6    6    0    0 -0.35702750803E+02 -0.30558835714E+02 -0.14733008902E+02  0.49250283313E+02  0.00000000000E+00 0.  1.
         12    1    6    6    0    0  0.42846700282E+02 -0.40390993668E+02 -0.36339956454E+02  0.69194396664E+02  0.00000000000E+00 0. -1.
         -5    1    3    3    0  503 -0.43050168376E+02  0.36982469283E+02 -0.27993266307E+03  0.28566659917E+03  0.47000000000E+01 0.  1.
         13    1    4    4    0    0 -0.99211063870E+01 -0.49652754839E+02 -0.45863915989E+02  0.68317810305E+02  0.00000000000E+00 0. -1.
        -14    1    4    4    0    0 -0.10114289645E-01  0.32276889089E+02 -0.24784750196E+02  0.40694981433E+02  0.00000000000E+00 0.  1.
</event>
<event>
12    1  0.8356052E-002  0.1878261E+03  0.7818608E-02  0.1160646E+00
         21   -1    0    0  501  502  0.00000000000E+00  0.00000000000E+00  0.72206952479E+02  0.72206952479E+02  0.00000000000E+00 0. -1.
         21   -1    0    0  502  503 -0.00000000000E+00 -0.00000000000E+00 -0.71765975423E+03  0.71765975423E+03  0.00000000000E+00 0. -1.
         -6    2    1    2    0  503 -0.15131315801E+02  0.75464408626E+02 -0.54647505694E+03  0.57755744452E+03  0.17033431883E+03 0.  0.
        -24    2    3    3    0    0  0.34093097807E+02  0.97335839712E+02 -0.35187348572E+03  0.37558402073E+03  0.81312985850E+02 0.  0.
          6    2    1    2  501    0  0.15131315801E+02 -0.75464408626E+02 -0.98977744807E+02  0.21230926219E+03  0.17133241129E+03 0.  0.
         24    2    5    5    0    0  0.74010125074E+02 -0.56291256562E+02 -0.46854303873E+02  0.13123357510E+03  0.79879417024E+02 0.  0.
          5    1    5    5  501    0 -0.58878809274E+02 -0.19173152064E+02 -0.52123440933E+02  0.81075687085E+02  0.47000000000E+01 0. -1.
        -13    1    6    6    0    0  0.10938500037E+02 -0.77977009649E+01  0.22158882264E+02  0.25912757217E+02  0.00000000000E+00 0.  1.
         14    1    6    6    0    0  0.63071625038E+02 -0.48493555597E+02 -0.69013186138E+02  0.10532081789E+03  0.00000000000E+00 0. -1.
         -5    1    3    3    0  503 -0.49224413608E+02 -0.21871431086E+02 -0.19460157122E+03  0.20197342379E+03  0.47000000000E+01 0.  1.
         11    1    4    4    0    0 -0.10115517723E+02  0.67671744773E+02 -0.12452706968E+03  0.14208722611E+03  0.00000000000E+00 0. -1.
        -12    1    4    4    0    0  0.44208615531E+02  0.29664094939E+02 -0.22734641604E+03  0.23349679462E+03  0.00000000000E+00 0.  1.
</event>
<event>
12    1  0.8356052E-002  0.1853711E+03  0.7818608E-02  0.1165428E+00
         21   -1    0    0  503  502  0.00000000000E+00  0.00000000000E+00  0.23977983281E+02  0.23977983281E+02  0.00000000000E+00 0.  1.
         21   -1    0    0  501  503 -0.00000000000E+00 -0.00000000000E+00 -0.16420447442E+04  0.16420447442E+04  0.00000000000E+00 0.  1.
          6    2    1    2  501    0  0.16504346524E+02 -0.25361671687E+02 -0.11411234122E+04  0.11543222174E+04  0.17141041984E+03 0.  0.
         24    2    3    3    0    0  0.20405134622E+02  0.44881397028E+02 -0.42054939621E+03  0.43030681199E+03  0.76625377491E+02 0.  0.
         -6    2    1    2    0  502 -0.16504346524E+02  0.25361671687E+02 -0.47694334879E+03  0.51170051008E+03  0.18288478947E+03 0.  0.
        -24    2    5    5    0    0 -0.57141220222E+02  0.14808992046E+02 -0.45169702132E+03  0.46248484588E+03  0.79859929308E+02 0.  0.
          5    1    3    3  501    0 -0.39007880981E+01 -0.70243068715E+02 -0.72057401595E+03  0.72401540544E+03  0.47000000000E+01 0. -1.
        -13    1    4    4    0    0 -0.45353696172E+00  0.12856805470E+02 -0.34859507789E+03  0.34883238306E+03  0.00000000000E+00 0.  1.
         14    1    4    4    0    0  0.20858671584E+02  0.32024591558E+02 -0.71954318318E+02  0.81474428928E+02  0.00000000000E+00 0. -1.
         -5    1    5    5    0  502  0.40636873698E+02  0.10552679642E+02 -0.25246327467E+02  0.49215664194E+02  0.47000000000E+01 0.  1.
         13    1    6    6    0    0 -0.96771761623E+01  0.13620619416E+02 -0.34838184946E+03  0.34878228459E+03  0.00000000000E+00 0. -1.
        -14    1    6    6    0    0 -0.47464044060E+02  0.11883726291E+01 -0.10331517186E+03  0.11370256129E+03  0.00000000000E+00 0.  1.
</event>
<event>
12    1  0.8356052E-002  0.1966948E+03  0.7818608E-02  0.1152703E+00
         21   -1    0    0  501  502  0.00000000000E+00  0.00000000000E+00  0.85082979675E+02  0.85082979675E+02  0.00000000000E+00 0. -1.
         21   -1    0    0  502  503 -0.00000000000E+00 -0.00000000000E+00 -0.53861661105E+03  0.53861661105E+03  0.00000000000E+00 0.  1.
         -6    2    1    2    0  503  0.46579146019E+01  0.95245461595E+02 -0.10222814793E+03  0.22107771776E+03  0.17126403281E+03 0.  0.
        -24    2    3    3    0    0  0.13536801150E+01 -0.23200703654E+01 -0.89469992739E+02  0.12251397434E+03  0.83651533944E+02 0.  0.
          6    2    1    2  501    0 -0.46579146019E+01 -0.95245461595E+02 -0.35130548345E+03  0.40262187297E+03  0.17203324032E+03 0.  0.
         24    2    5    5    0    0  0.48530744299E+02 -0.49990437080E+02 -0.11898095666E+03  0.15998258014E+03  0.81139885131E+02 0.  0.
          5    1    5    5  501    0 -0.53188658901E+02 -0.45255024516E+02 -0.23232452679E+03  0.24263929284E+03  0.47000000000E+01 0. -1.
        -11    1    6    6    0    0  0.15336527448E+02 -0.65250108998E+02 -0.95056938226E+02  0.11631254147E+03  0.00000000000E+00 0.  1.
         12    1    6    6    0    0  0.33194216851E+02  0.15259671918E+02 -0.23924018430E+02  0.43670038668E+02  0.00000000000E+00 0. -1.
         -5    1    3    3    0  503  0.33042344869E+01  0.97565531961E+02 -0.12758155193E+02  0.98563743416E+02  0.47000000000E+01 0.  1.
         11    1    4    4    0    0 -0.24733384827E+02  0.16924439777E+02 -0.29430390525E+01  0.30113758743E+02  0.00000000000E+00 0. -1.
        -12    1    4    4    0    0  0.26087064942E+02 -0.19244510142E+02 -0.86526953686E+02  0.92400215596E+02  0.00000000000E+00 0.  1.
</event>
<event>
12    1  0.8356052E-002  0.1771128E+03  0.7818608E-02  0.1170811E+00
         21   -1    0    0  503  502  0.00000000000E+00  0.00000000000E+00  0.26591617826E+03  0.26591617826E+03  0.00000000000E+00 0.  1.
         21   -1    0    0  501  503 -0.00000000000E+00 -0.00000000000E+00 -0.41449533992E+03  0.41449533992E+03  0.00000000000E+00 0.  1.
          6    2    1    2  501    0  0.30706375978E+02 -0.25996972099E+02 -0.36232414428E+03  0.40329610183E+03  0.17248256762E+03 0.  0.
         24    2    3    3    0    0  0.60037982085E+02  0.29647680224E+02 -0.29009435870E+03  0.30740083409E+03  0.76530984672E+02 0.  0.
         -6    2    1    2    0  502 -0.30706375978E+02  0.25996972099E+02  0.21374498263E+03  0.27711541636E+03  0.17171870108E+03 0.  0.
        -24    2    5    5    0    0  0.34703537098E+02 -0.27202514727E+02  0.12558317285E+03  0.15503660234E+03  0.79504103472E+02 0.  0.
          5    1    3    3  501    0 -0.29331606107E+02 -0.55644652323E+02 -0.72229785589E+02  0.95895267741E+02  0.47000000000E+01 0. -1.
        -11    1    4    4    0    0  0.55990248360E+02 -0.81822774651E+01 -0.22497455466E+03  0.23198148163E+03  0.00000000000E+00 0.  1.
         12    1    4    4    0    0  0.40477337253E+01  0.37829957689E+02 -0.65119804037E+02  0.75419352456E+02  0.00000000000E+00 0. -1.
         -5    1    5    5    0  502 -0.65409913076E+02  0.53199486826E+02  0.88161809780E+02  0.12207881401E+03  0.47000000000E+01 0.  1.
         11    1    6    6    0    0  0.51668761578E+01 -0.12715626887E+02 -0.90512701438E+01  0.16441084744E+02  0.00000000000E+00 0. -1.
        -12    1    6    6    0    0  0.29536660940E+02 -0.14486887841E+02  0.13463444299E+03  0.13859551760E+03  0.00000000000E+00 0.  1.
</event>
<event>
12    1  0.8356052E-002  0.1868273E+03  0.7818608E-02  0.1162363E+00
         21   -1    0    0  501  502  0.00000000000E+00  0.00000000000E+00  0.65938338817E+02  0.65938338817E+02  0.00000000000E+00 0.  1.
         21   -1    0    0  502  503 -0.00000000000E+00 -0.00000000000E+00 -0.63738691038E+03  0.63738691038E+03  0.00000000000E+00 0.  1.
         -6    2    1    2    0  503 -0.16182559977E+02  0.71031664524E+02 -0.43572112325E+03  0.47240016414E+03  0.16733692128E+03 0.  0.
        -24    2    3    3    0    0 -0.12122323071E+02  0.95469951386E+02 -0.42882298487E+03  0.44625844076E+03  0.77433721704E+02 0.  0.
          6    2    1    2  501    0  0.16182559977E+02 -0.71031664524E+02 -0.13572744831E+03  0.23092508505E+03  0.17203802507E+03 0.  0.
         24    2    5    5    0    0  0.69510631736E+00 -0.11457580509E+03 -0.11496904248E+03  0.18004331218E+03  0.77907735457E+02 0.  0.
          5    1    5    5  501    0  0.15487453659E+02  0.43544140567E+02 -0.20758405827E+02  0.50881772877E+02  0.47000000000E+01 0. -1.
        -13    1    6    6    0    0  0.31390404967E+02 -0.97062954873E+02 -0.74527669215E+02  0.12633664635E+03  0.00000000000E+00 0.  1.
         14    1    6    6    0    0 -0.30695298650E+02 -0.17512850219E+02 -0.40441373270E+02  0.53706665824E+02  0.00000000000E+00 0. -1.
         -5    1    3    3    0  503 -0.40602369061E+01 -0.24438286862E+02 -0.68981383728E+01  0.26141723384E+02  0.47000000000E+01 0.  1.
         11    1    4    4    0    0 -0.21485106019E+02  0.13901592217E+02 -0.31715832632E+02  0.40752399762E+02  0.00000000000E+00 0. -1.
        -12    1    4    4    0    0  0.93627829488E+01  0.81568359169E+02 -0.39710715224E+03  0.40550604099E+03  0.00000000000E+00 0.  1.
</event>
<event>
12    1  0.8356052E-002  0.1807413E+03  0.7818608E-02  0.1167434E+00
         21   -1    0    0  501  502  0.00000000000E+00  0.00000000000E+00  0.40081186925E+03  0.40081186925E+03  0.00000000000E+00 0.  1.
         21   -1    0    0  502  503 -0.00000000000E+00 -0.00000000000E+00 -0.13765936058E+03  0.13765936058E+03  0.00000000000E+00 0.  1.
         -6    2    1    2    0  503  0.23679487720E+02  0.50147230976E+02 -0.41677647462E+02  0.18408605581E+03  0.17051447661E+03 0.  0.
        -24    2    3    3    0    0  0.19475025590E+02  0.62804199442E+02 -0.87849805500E+02  0.13579698323E+03  0.79997426456E+02 0.  0.
          6    2    1    2  501    0 -0.23679487720E+02 -0.50147230976E+02  0.30483015613E+03  0.35438517401E+03  0.17202315124E+03 0.  0.
         24    2    5    5    0    0 -0.24241098576E+02 -0.47673852025E+02  0.67086260693E+02  0.11658129930E+03  0.78931653638E+02 0.  0.
          5    1    5    5  501    0  0.56161085587E+00 -0.24733789508E+01  0.23774389544E+03  0.23780387471E+03  0.47000000000E+01 0. -1.
        -11    1    6    6    0    0  0.76082545740E+01 -0.58880755177E+02  0.54364764122E+02  0.80500661152E+02  0.00000000000E+00 0.  1.
         12    1    6    6    0    0 -0.31849353150E+02  0.11206903151E+02  0.12721496571E+02  0.36080638150E+02  0.00000000000E+00 0. -1.
         -5    1    3    3    0  503  0.42044621300E+01 -0.12656968466E+02  0.46172158038E+02  0.48289072578E+02  0.47000000000E+01 0.  1.
         11    1    4    4    0    0  0.12478767745E+02 -0.14339706150E+02 -0.41200109637E+02  0.45373955646E+02  0.00000000000E+00 0. -1.
        -12    1    4    4    0    0  0.69962578457E+01  0.77143905592E+02 -0.46649695863E+02  0.90423027587E+02  0.00000000000E+00 0.  1.
</event>
<event>
12    1  0.8356052E-002  0.1796283E+03  0.7818608E-02  0.1170078E+00
         21   -1    0    0  503  502  0.00000000000E+00  0.00000000000E+00  0.12775168005E+03  0.12775168005E+03  0.00000000000E+00 0.  1.
         21   -1    0    0  501  503 -0.00000000000E+00 -0.00000000000E+00 -0.37026384071E+03  0.37026384071E+03  0.00000000000E+00 0.  1.
          6    2    1    2  501    0 -0.22481082386E+02  0.59299602363E+01 -0.26614186523E+03  0.31683966470E+03  0.17033883059E+03 0.  0.
         24    2    3    3    0    0  0.20916805198E+02  0.20989040358E+02 -0.25887344612E+03  0.27009490610E+03  0.71117822240E+02 0.  0.
         -6    2    1    2    0  502  0.22481082386E+02 -0.59299602363E+01  0.23629704578E+02  0.18117585606E+03  0.17811727706E+03 0.  0.
        -24    2    5    5    0    0 -0.27588311150E+02  0.59410457924E+02  0.21951292640E+02  0.98706337562E+02  0.70500811368E+02 0.  0.
          5    1    3    3  501    0 -0.43397887584E+02 -0.15059080121E+02 -0.72684191196E+01  0.46744758609E+02  0.47000000000E+01 0. -1.
        -11    1    4    4    0    0  0.33347316991E+02  0.13179549053E+02 -0.54766883763E+02  0.65461100059E+02  0.00000000000E+00 0.  1.
         12    1    4    4    0    0 -0.12430511793E+02  0.78094913050E+01 -0.20410656235E+03  0.20463380604E+03  0.00000000000E+00 0. -1.
         -5    1    5    5    0  502  0.50069393536E+02 -0.65340418160E+02  0.16784119382E+01  0.82469518497E+02  0.47000000000E+01 0.  1.
         13    1    6    6    0    0  0.19401160796E+02  0.37820680421E+02  0.19950585278E+02  0.46955668036E+02  0.00000000000E+00 0. -1.
        -14    1    6    6    0    0 -0.46989471947E+02  0.21589777503E+02  0.20007073617E+01  0.51750669526E+02  0.00000000000E+00 0.  1.
</event>
<event>
12    1  0.8356052E-002  0.1871754E+03  0.7818608E-02  0.1162583E+00
         21   -1    0    0  503  502  0.00000000000E+00  0.00000000000E+00  0.53465084597E+02  0.53465084597E+02  0.00000000000E+00 0.  1.
         21   -1    0    0  501  503 -0.00000000000E+00 -0.00000000000E+00 -0.80838751709E+03  0.80838751709E+03  0.00000000000E+00 0.  1.
          6    2    1    2  501    0  0.40074503170E+02  0.55407301455E+02 -0.57322275034E+03  0.60098977009E+03  0.16711806421E+03 0.  0.
         24    2    3    3    0    0  0.45133575646E+02  0.44510768145E+02 -0.57800932652E+03  0.58723004756E+03  0.82012798297E+02 0.  0.
         -6    2    1    2    0  502 -0.40074503170E+02 -0.55407301455E+02 -0.18169968215E+03  0.26086283160E+03  0.17423750330E+03 0.  0.
        -24    2    5    5    0    0  0.18141470934E+02 -0.14196795609E+02 -0.16551764273E+03  0.18757331098E+03  0.85187997760E+02 0.  0.
          5    1    3    3  501    0 -0.50590724761E+01  0.10896533310E+02  0.47865761795E+01  0.13759722527E+02  0.47000000000E+01 0. -1.
        -13    1    4    4    0    0 -0.10297909453E+02  0.36199824890E+02 -0.36623129302E+03  0.36816006607E+03  0.00000000000E+00 0.  1.
         14    1    4    4    0    0  0.55431485099E+02  0.83109432544E+01 -0.21177803350E+03  0.21906998149E+03  0.00000000000E+00 0. -1.
         -5    1    5    5    0  502 -0.58215974104E+02 -0.41210505846E+02 -0.16182039420E+02  0.73289520620E+02  0.47000000000E+01 0.  1.
         13    1    6    6    0    0  0.13321509224E+01  0.35397892403E+02 -0.76326328242E+02  0.84145670094E+02  0.00000000000E+00 0. -1.
        -14    1    6    6    0    0  0.16809320012E+02 -0.49594688012E+02 -0.89191314491E+02  0.10342764088E+03  0.00000000000E+00 0.  1.
</event>
<event>
12    1  0.8356052E-002  0.2872739E+03  0.7818608E-02  0.1092666E+00
         21   -1    0    0  503  502  0.00000000000E+00  0.00000000000E+00  0.54266755294E+03  0.54266755294E+03  0.00000000000E+00 0.  1.
         21   -1    0    0  501  503 -0.00000000000E+00 -0.00000000000E+00 -0.21081831313E+03  0.21081831313E+03  0.00000000000E+00 0. -1.
          6    2    1    2  501    0  0.18660872119E+03  0.12141904781E+03 -0.40104072433E+02  0.28351188684E+03  0.17089544570E+03 0.  0.
         24    2    3    3    0    0  0.14215360379E+03  0.26495375574E+02  0.14633462394E+02  0.16516895831E+03  0.78466518785E+02 0.  0.
         -6    2    1    2    0  502 -0.18660872119E+03 -0.12141904781E+03  0.37195331224E+03  0.46997397922E+03  0.18155130036E+03 0.  0.
        -24    2    5    5    0    0 -0.18370128074E+03 -0.15180079998E+03  0.29853706624E+03  0.39032764063E+03  0.80259851106E+02 0.  0.
          5    1    3    3  501    0  0.44455117396E+02  0.94923672240E+02 -0.54737534828E+02  0.11834292853E+03  0.47000000000E+01 0. -1.
        -11    1    4    4    0    0 -0.12585490018E+01  0.18126880763E+02  0.11450741016E+02  0.21477598134E+02  0.00000000000E+00 0.  1.
         12    1    4    4    0    0  0.14341215279E+03  0.83684948110E+01  0.31827213783E+01  0.14369136018E+03  0.00000000000E+00 0. -1.
         -5    1    5    5    0  502 -0.29074404464E+01  0.30381752163E+02  0.73416246004E+02  0.79646338596E+02  0.47000000000E+01 0.  1.
         11    1    6    6    0    0 -0.13540766354E+03 -0.69418197257E+02  0.14947273293E+03  0.21329842790E+03  0.00000000000E+00 0. -1.
        -12    1    6    6    0    0 -0.48293617202E+02 -0.82382602720E+02  0.14906433331E+03  0.17702921273E+03  0.00000000000E+00 0.  1.
</event>
<event>
12    1  0.8356052E-002  0.1791585E+03  0.7818608E-02  0.1171205E+00
         21   -1    0    0  501  502  0.00000000000E+00  0.00000000000E+00  0.63435172910E+02  0.63435172910E+02  0.00000000000E+00 0.  1.
         21   -1    0    0  502  503 -0.00000000000E+00 -0.00000000000E+00 -0.59483918551E+03  0.59483918551E+03  0.00000000000E+00 0. -1.
         -6    2    1    2    0  503  0.51167559568E+02 -0.31583373315E+02 -0.41822875612E+03  0.45498689425E+03  0.16876656325E+03 0.  0.
        -24    2    3    3    0    0  0.51206132415E+02  0.39778412881E+01 -0.40638652365E+03  0.41721216802E+03  0.79234432679E+02 0.  0.
          6    2    1    2  501    0 -0.51167559568E+02  0.31583373315E+02 -0.11317525648E+03  0.20328746417E+03  0.15780217295E+03 0.  0.
         24    2    5    5    0    0 -0.56496391653E+02  0.21699297478E+02 -0.13585994316E+02  0.10295699749E+03  0.82175801237E+02 0.  0.
          5    1    5    5  501    0  0.53288320855E+01  0.98840758374E+01 -0.99589262163E+02  0.10033046668E+03  0.47000000000E+01 0. -1.
        -13    1    6    6    0    0  0.10705525776E+02  0.55629934548E+01 -0.29643047384E+02  0.32004147177E+02  0.00000000000E+00 0.  1.
         14    1    6    6    0    0 -0.67201917429E+02  0.16136304023E+02  0.16057053068E+02  0.70952850309E+02  0.00000000000E+00 0. -1.
         -5    1    3    3    0  503 -0.38572847018E-01 -0.35561214603E+02 -0.11842232471E+02  0.37774726231E+02  0.47000000000E+01 0.  1.
         13    1    4    4    0    0  0.21244020471E+02  0.29274336202E+02 -0.72408503501E+02  0.80940018193E+02  0.00000000000E+00 0. -1.
        -14    1    4    4    0    0  0.29962111944E+02 -0.25296494914E+02 -0.33397802014E+03  0.33627214982E+03  0.00000000000E+00 0.  1.
</event>
<event>
12    1  0.8356052E-002  0.1862252E+03  0.7818608E-02  0.1161922E+00
         21   -1    0    0  501  502  0.00000000000E+00  0.00000000000E+00  0.12420620357E+03  0.12420620357E+03  0.00000000000E+00 0.  1.
         21   -1    0    0  502  503 -0.00000000000E+00 -0.00000000000E+00 -0.50111058275E+03  0.50111058275E+03  0.00000000000E+00 0.  1.
         -6    2    1    2    0  503 -0.23776622669E+02  0.67338068896E+02 -0.39655608470E+03  0.43810562297E+03  0.17198856141E+03 0.  0.
        -24    2    3    3    0    0 -0.17250767690E+02  0.26941743438E+02 -0.73383262659E+02  0.11231855631E+03  0.78783934457E+02 0.  0.
          6    2    1    2  501    0  0.23776622669E+02 -0.67338068896E+02  0.19651705513E+02  0.18721116335E+03  0.17193628717E+03 0.  0.
         24    2    5    5    0    0 -0.39433330945E+02 -0.11921948312E+01  0.31923419559E+02  0.94780325112E+02  0.80048712633E+02 0.  0.
          5    1    5    5  501    0  0.63209953614E+02 -0.66145874065E+02 -0.12271714046E+02  0.92430838238E+02  0.47000000000E+01 0. -1.
        -11    1    6    6    0    0 -0.46674443127E+02 -0.31016410581E+02  0.96645734462E+01  0.56867612456E+02  0.00000000000E+00 0.  1.
         12    1    6    6    0    0  0.72411121814E+01  0.29824215750E+02  0.22258846113E+02  0.37912712657E+02  0.00000000000E+00 0. -1.
         -5    1    3    3    0  503 -0.65258549794E+01  0.40396325458E+02 -0.32317282204E+03  0.32578706665E+03  0.47000000000E+01 0.  1.
         13    1    4    4    0    0 -0.29437760239E+02  0.47736745681E+02 -0.67018961882E+02  0.87389472294E+02  0.00000000000E+00 0. -1.
        -14    1    4    4    0    0  0.12186992550E+02 -0.20795002243E+02 -0.63643007777E+01  0.24929084020E+02  0.00000000000E+00 0.  1.
</event>
<event>
12    1  0.8356052E-002  0.2396512E+03  0.7818608E-02  0.1120056E+00
         21   -1    0    0  501  502  0.00000000000E+00  0.00000000000E+00  0.56446455590E+03  0.56446455590E+03  0.00000000000E+00 0. -1.
         21   -1    0    0  502  503 -0.00000000000E+00 -0.00000000000E+00 -0.32939075159E+03  0.32939075159E+03  0.00000000000E+00 0. -1.
         -6    2    1    2    0  503 -0.15518811496E+03  0.61644594496E+02 -0.25408241507E+03  0.34914758395E+03  0.17164718079E+03 0.  0.
        -24    2    3    3    0    0 -0.17121555296E+03  0.17387996209E+02 -0.22227430013E+03  0.29214432582E+03  0.79531972332E+02 0.  0.
          6    2    1    2  501    0  0.15518811496E+03 -0.61644594496E+02  0.48915621939E+03  0.54470772354E+03  0.17189906941E+03 0.  0.
         24    2    5    5    0    0  0.15554742292E+03 -0.82577145586E+02  0.31687181957E+03  0.37109232901E+03  0.79295528630E+02 0.  0.
          5    1    5    5  501    0 -0.35930796393E+00  0.20932551091E+02  0.17228439982E+03  0.17361539453E+03  0.47000000000E+01 0. -1.
        -11    1    6    6    0    0  0.71673317880E+02 -0.19286503016E+01  0.16389512433E+03  0.17889213500E+03  0.00000000000E+00 0.  1.
         12    1    6    6    0    0  0.83874105041E+02 -0.80648495285E+02  0.15297669525E+03  0.19220019401E+03  0.00000000000E+00 0. -1.
         -5    1    3    3    0  503  0.16027438002E+02  0.44256598287E+02 -0.31808114943E+02  0.57003258127E+02  0.47000000000E+01 0.  1.
         11    1    4    4    0    0 -0.73680728659E+02  0.46764391068E+02 -0.92530473386E+02  0.12719137767E+03  0.00000000000E+00 0. -1.
        -12    1    4    4    0    0 -0.97534824300E+02 -0.29376394859E+02 -0.12974382675E+03  0.16495294815E+03  0.00000000000E+00 0.  1.
</event>
<event>
12    1  0.8356052E-002  0.2388058E+03  0.7818608E-02  0.1120757E+00
         21   -1    0    0  503  502  0.00000000000E+00  0.00000000000E+00  0.93652247796E+02  0.93652247796E+02  0.00000000000E+00 0.  1.
         21   -1    0    0  501  503 -0.00000000000E+00 -0.00000000000E+00 -0.82481985247E+03  0.82481985247E+03  0.00000000000E+00 0.  1.
          6    2    1    2  501    0 -0.13971526646E+03 -0.89915895873E+02 -0.60133979864E+03  0.64665695614E+03  0.17014829260E+03 0.  0.
         24    2    3    3    0    0 -0.11304788988E+03  0.16185093973E+01 -0.40172098575E+03  0.42538911667E+03  0.82423935895E+02 0.  0.
         -6    2    1    2    0  502  0.13971526646E+03  0.89915895873E+02 -0.12982780603E+03  0.27181514413E+03  0.17153130719E+03 0.  0.
        -24    2    5    5    0    0  0.63487672604E+01  0.80959899383E+01 -0.60530282035E+02  0.10062706935E+03  0.79724777475E+02 0.  0.
          5    1    3    3  501    0 -0.26667376580E+02 -0.91534405270E+02 -0.19961881289E+03  0.22126783947E+03  0.47000000000E+01 0. -1.
        -13    1    4    4    0    0 -0.92916910666E+01 -0.18390359513E+02 -0.16338445864E+03  0.16467854192E+03  0.00000000000E+00 0.  1.
         14    1    4    4    0    0 -0.10375619881E+03  0.20008868910E+02 -0.23833652711E+03  0.26071057475E+03  0.00000000000E+00 0. -1.
         -5    1    5    5    0  502  0.13336649920E+03  0.81819905935E+02 -0.69297523997E+02  0.17118807478E+03  0.47000000000E+01 0.  1.
         11    1    6    6    0    0  0.21077841967E+02 -0.21199573699E+02  0.20623370720E+01  0.29965823553E+02  0.00000000000E+00 0. -1.
        -12    1    6    6    0    0 -0.14729074707E+02  0.29295563637E+02 -0.62592619107E+02  0.70661245795E+02  0.00000000000E+00 0.  1.
</event>
<event>
12    1  0.8356052E-002  0.2224825E+03  0.7818608E-02  0.1132079E+00
         21   -1    0    0  503  502  0.00000000000E+00  0.00000000000E+00  0.79662473557E+02  0.79662473557E+02  0.00000000000E+00 0.  1.
         21   -1    0    0  501  503 -0.00000000000E+00 -0.00000000000E+00 -0.70063154284E+03  0.70063154284E+03  0.00000000000E+00 0. -1.
          6    2    1    2  501    0  0.62834873811E+02  0.12530265968E+03 -0.44226207416E+03  0.49506991537E+03  0.17277008125E+03 0.  0.
         24    2    3    3    0    0  0.10437759758E+03  0.11886836841E+03 -0.38755028416E+03  0.42591307936E+03  0.78627962761E+02 0.  0.
         -6    2    1    2    0  502 -0.62834873811E+02 -0.12530265968E+03 -0.17870699512E+03  0.28522410102E+03  0.17253295283E+03 0.  0.
        -24    2    5    5    0    0 -0.47020330870E+02 -0.10845468821E+03 -0.20559413585E+03  0.24946151935E+03  0.77387143822E+02 0.  0.
          5    1    3    3  501    0 -0.41542723772E+02  0.64342912701E+01 -0.54711790001E+02  0.69156836016E+02  0.47000000000E+01 0. -1.
        -11    1    4    4    0    0  0.21075444548E+02  0.67229958908E+02 -0.10164954171E+03  0.12367971162E+03  0.00000000000E+00 0.  1.
         12    1    4    4    0    0  0.83302153035E+02  0.51638409500E+02 -0.28590074246E+03  0.30223336773E+03  0.00000000000E+00 0. -1.
         -5    1    5    5    0  502 -0.15814542942E+02 -0.16847971470E+02  0.26887140736E+02  0.35762581675E+02  0.47000000000E+01 0.  1.
         11    1    6    6    0    0 -0.35118457507E+02 -0.34363100176E+01 -0.58850278583E+02  0.68618288915E+02  0.00000000000E+00 0. -1.
        -12    1    6    6    0    0 -0.11901873363E+02 -0.10501837819E+03 -0.14674385727E+03  0.18084323043E+03  0.00000000000E+00 0.  1.
</event>
<event>
12    1  0.8356052E-002  0.1917873E+03  0.7818608E-02  0.1157137E+00
         21   -1    0    0  503  502  0.00000000000E+00  0.00000000000E+00  0.70561840611E+02  0.70561840611E+02  0.00000000000E+00 0. -1.
         21   -1    0    0  501  503 -0.00000000000E+00 -0.00000000000E+00 -0.10559850131E+04  0.10559850131E+04  0.00000000000E+00 0. -1.
          6    2    1    2  501    0 -0.59016197437E+02  0.58973656540E+02 -0.89557691332E+03  0.91588230141E+03  0.17268925458E+03 0.  0.
         24    2    3    3    0    0 -0.74801851334E+02  0.39137646790E+02 -0.32997196279E+03  0.34969001587E+03  0.79211985261E+02 0.  0.
         -6    2    1    2    0  502  0.59016197437E+02 -0.58973656540E+02 -0.89846259217E+02  0.21066455234E+03  0.17130790873E+03 0.  0.
        -24    2    5    5    0    0  0.14284505287E+00 -0.91033130460E+02 -0.40231124472E+02  0.12713232452E+03  0.79101411594E+02 0.  0.
          5    1    3    3  501    0  0.15785653897E+02  0.19836009750E+02 -0.56560495052E+03  0.56619228554E+03  0.47000000000E+01 0. -1.
        -13    1    4    4    0    0 -0.68513592190E+02 -0.71637839915E+01 -0.20531116591E+03  0.21655970762E+03  0.00000000000E+00 0.  1.
         14    1    4    4    0    0 -0.62882591437E+01  0.46301430781E+02 -0.12466079688E+03  0.13313030825E+03  0.00000000000E+00 0. -1.
         -5    1    5    5    0  502  0.58873352384E+02  0.32059473921E+02 -0.49615134744E+02  0.83532227821E+02  0.47000000000E+01 0.  1.
         13    1    6    6    0    0  0.23531465663E+02  0.41636698279E+00  0.22066091084E+01  0.23638366303E+02  0.00000000000E+00 0. -1.
        -14    1    6    6    0    0 -0.23388620610E+02 -0.91449497443E+02 -0.42437733581E+02  0.10349395822E+03  0.00000000000E+00 0.  1.
</event>
<event>
12    1  0.8356052E-002  0.1789996E+03  0.7818608E-02  0.1168926E+00
         21   -1    0    0  501  502  0.00000000000E+00  0.00000000000E+00  0.80925810995E+03  0.80925810995E+03  0.00000000000E+00 0. -1.
         21   -1    0    0  502  503 -0.00000000000E+00 -0.00000000000E+00 -0.40594462303E+02  0.40594462303E+02  0.00000000000E+00 0. -1.
         -6    2    1    2    0  503  0.46814738436E+02  0.17368317792E+02  0.31381291665E+03  0.36127468178E+03  0.17189406865E+03 0.  0.
        -24    2    3    3    0    0  0.31736247396E+02  0.51811061809E+02  0.30695527527E+03  0.32276778950E+03  0.79157623772E+02 0.  0.
          6    2    1    2  501    0 -0.46814738436E+02 -0.17368317792E+02  0.45485073099E+03  0.48857789047E+03  0.17124803467E+03 0.  0.
         24    2    5    5    0    0 -0.42179979962E+02 -0.72076741285E+02  0.36732820527E+03  0.38515267548E+03  0.80239427340E+02 0.  0.
          5    1    5    5  501    0 -0.46347584739E+01  0.54708423493E+02  0.87522525722E+02  0.10342521499E+03  0.47000000000E+01 0. -1.
        -11    1    6    6    0    0  0.10644857573E+01 -0.37178112194E+02  0.46487322953E+02  0.59535001063E+02  0.00000000000E+00 0.  1.
         12    1    6    6    0    0 -0.43244465719E+02 -0.34898629091E+02  0.32084088232E+03  0.32561767442E+03  0.00000000000E+00 0. -1.
         -5    1    3    3    0  503  0.15078491040E+02 -0.34442744017E+02  0.68576413872E+01  0.38506892278E+02  0.47000000000E+01 0.  1.
         13    1    4    4    0    0  0.20041294804E+02  0.12267440945E+02  0.14917488529E+02  0.27832985265E+02  0.00000000000E+00 0. -1.
        -14    1    4    4    0    0  0.11694952592E+02  0.39543620864E+02  0.29203778674E+03  0.29493480424E+03  0.00000000000E+00 0.  1.
</event>
<event>
12    1  0.8356052E-002  0.1952830E+03  0.7818608E-02  0.1153954E+00
         21   -1    0    0  501  502  0.00000000000E+00  0.00000000000E+00  0.40726563742E+03  0.40726563742E+03  0.00000000000E+00 0.  1.
         21   -1    0    0  502  503 -0.00000000000E+00 -0.00000000000E+00 -0.21091375800E+03  0.21091375800E+03  0.00000000000E+00 0.  1.
         -6    2    1    2    0  503  0.40725095422E+02  0.82697131209E+02 -0.13276645878E+03  0.23548585968E+03  0.17125801770E+03 0.  0.
        -24    2    3    3    0    0  0.86934011799E+02  0.46711008511E+02 -0.55963967216E+02  0.13878540627E+03  0.79937367008E+02 0.  0.
          6    2    1    2  501    0 -0.40725095422E+02 -0.82697131209E+02  0.32911833820E+03  0.38269353574E+03  0.17215723293E+03 0.  0.
         24    2    5    5    0    0 -0.76529160242E+02 -0.98017308066E+02  0.20524888281E+03  0.25276135784E+03  0.79354237898E+02 0.  0.
          5    1    5    5  501    0  0.35804064821E+02  0.15320176856E+02  0.12386945539E+03  0.12993217790E+03  0.47000000000E+01 0. -1.
        -13    1    6    6    0    0 -0.68094819068E+02 -0.10536960590E+03  0.14614843078E+03  0.19261106420E+03  0.00000000000E+00 0.  1.
         14    1    6    6    0    0 -0.84343411746E+01  0.73522978374E+01  0.59100452031E+02  0.60150293639E+02  0.00000000000E+00 0. -1.
         -5    1    3    3    0  503 -0.46208916378E+02  0.35986122698E+02 -0.76802491563E+02  0.96700453412E+02  0.47000000000E+01 0.  1.
         11    1    4    4    0    0  0.64014041919E+02 -0.24101983838E+01 -0.47868436858E+01  0.64237998814E+02  0.00000000000E+00 0. -1.
        -12    1    4    4    0    0  0.22919969880E+02  0.49121206895E+02 -0.51177123530E+02  0.74547407459E+02  0.00000000000E+00 0.  1.
</event>
<event>
12    1  0.8356052E-002  0.1856966E+03  0.7818608E-02  0.1164834E+00
         21   -1    0    0  501  502  0.00000000000E+00  0.00000000000E+00  0.40147970611E+03  0.40147970611E+03  0.00000000000E+00 0.  1.
         21   -1    0    0  502  503 -0.00000000000E+00 -0.00000000000E+00 -0.10400322613E+03  0.10400322613E+03  0.00000000000E+00 0.  1.
         -6    2    1    2    0  503 -0.19257198385E+02 -0.28304450863E+02  0.26363600734E+03  0.31672808148E+03  0.17216489655E+03 0.  0.
        -24    2    3    3    0    0  0.26636114958E+02 -0.54456909179E+02  0.23873401577E+03  0.25814185042E+03  0.77254430791E+02 0.  0.
          6    2    1    2  501    0  0.19257198385E+02  0.28304450863E+02  0.33840472638E+02  0.18875485075E+03  0.18251365556E+03 0.  0.
         24    2    5    5    0    0  0.45750925656E+02  0.48263122050E+02 -0.35385942850E+02  0.11184807120E+03  0.82676175112E+02 0.  0.
          5    1    5    5  501    0 -0.26493727271E+02 -0.19958671187E+02  0.69226415487E+02  0.76906779555E+02  0.47000000000E+01 0. -1.
        -13    1    6    6    0    0 -0.97333679709E+01  0.18309982842E+02  0.19341779890E+02  0.28356628380E+02  0.00000000000E+00 0.  1.
         14    1    6    6    0    0  0.55484293627E+02  0.29953139208E+02 -0.54727722740E+02  0.83491442819E+02  0.00000000000E+00 0. -1.
         -5    1    3    3    0  503 -0.45893313343E+02  0.26152458316E+02  0.24901991568E+02  0.58586231058E+02  0.47000000000E+01 0.  1.
         11    1    4    4    0    0  0.18837791830E+02  0.15716680100E+02  0.36870340971E+02  0.44286549625E+02  0.00000000000E+00 0. -1.
        -12    1    4    4    0    0  0.77983231274E+01 -0.70173589279E+02  0.20186367480E+03  0.21385530080E+03  0.00000000000E+00 0.  1.
</event>
<event>
12    1  0.8356052E-002  0.1933165E+03  0.7818608E-02  0.1155560E+00
         21   -1    0    0  501  502  0.00000000000E+00  0.00000000000E+00  0.96065118877E+03  0.96065118877E+03  0.00000000000E+00 0. -1.
         21   -1    0    0  502  503 -0.00000000000E+00 -0.00000000000E+00 -0.45169272775E+02  0.45169272775E+02  0.00000000000E+00 0. -1.
         -6    2    1    2    0  503 -0.86890087646E+02  0.13115145976E+02  0.26990617817E+03  0.33199490232E+03  0.17218994095E+03 0.  0.
        -24    2    3    3    0    0 -0.11896430034E+03  0.29746076870E+02  0.16451290992E+03  0.22048179110E+03  0.80686980545E+02 0.  0.
          6    2    1    2  501    0  0.86890087646E+02 -0.13115145976E+02  0.64557573782E+03  0.67382555922E+03  0.17190391681E+03 0.  0.
         24    2    5    5    0    0  0.12717072352E+03 -0.41030681579E+01  0.47410473698E+03  0.49739386903E+03  0.80225502419E+02 0.  0.
          5    1    5    5  501    0 -0.40280635877E+02 -0.90120778178E+01  0.17147100084E+03  0.17643169019E+03  0.47000000000E+01 0. -1.
        -13    1    6    6    0    0  0.33981621044E+02 -0.35901960220E+02  0.11823174813E+03  0.12815009786E+03  0.00000000000E+00 0.  1.
         14    1    6    6    0    0  0.93189102479E+02  0.31798892062E+02  0.35587298885E+03  0.36924377117E+03  0.00000000000E+00 0. -1.
         -5    1    3    3    0  503  0.32074212693E+02 -0.16630930894E+02  0.10539326825E+03  0.11151311122E+03  0.47000000000E+01 0.  1.
         11    1    4    4    0    0 -0.79106614773E+02 -0.11735176061E+02  0.55891948599E+02  0.97567826542E+02  0.00000000000E+00 0. -1.
        -12    1    4    4    0    0 -0.39857685566E+02  0.41481252931E+02  0.10862096132E+03  0.12291396455E+03  0.00000000000E+00 0.  1.
</event>
<event>
12    1  0.8356052E-002  0.2248708E+03  0.7818608E-02  0.1130348E+00
         21   -1    0    0  503  502  0.00000000000E+00  0.00000000000E+00  0.31827275179E+03  0.31827275179E+03  0.00000000000E+00 0.  1.
         21   -1    0    0  501  503 -0.00000000000E+00 -0.00000000000E+00 -0.23892498282E+03  0.23892498282E+03  0.00000000000E+00 0. -1.
          6    2    1    2  501    0  0.14370243324E+03  0.15545357887E+02 -0.12174690541E+03  0.25571313171E+03  0.17226389430E+03 0.  0.
         24    2    3    3    0    0  0.30492572601E+02 -0.37050514009E+02 -0.83319996596E+02  0.12501685935E+03  0.79902789166E+02 0.  0.
         -6    2    1    2    0  502 -0.14370243324E+03 -0.15545357887E+02  0.20109467438E+03  0.30148460290E+03  0.17193559914E+03 0.  0.
        -24    2    5    5    0    0 -0.67545917536E+02 -0.52195334820E+02  0.47605571830E+02  0.12620188757E+03  0.79836219872E+02 0.  0.
          5    1    3    3  501    0  0.11320986064E+03  0.52595871897E+02 -0.38426908814E+02  0.13069627236E+03  0.47000000000E+01 0. -1.
        -11    1    4    4    0    0 -0.62794126995E+01 -0.20058184147E+02  0.10006231475E+02  0.23278454491E+02  0.00000000000E+00 0.  1.
         12    1    4    4    0    0  0.36771985300E+02 -0.16992329862E+02 -0.93326228071E+02  0.10173840486E+03  0.00000000000E+00 0. -1.
         -5    1    5    5    0  502 -0.76156515705E+02  0.36649976933E+02  0.15348910255E+03  0.17528271533E+03  0.47000000000E+01 0.  1.
         11    1    6    6    0    0  0.17735135599E+01  0.15345625427E+02 -0.47547372325E+01  0.16162954440E+02  0.00000000000E+00 0. -1.
        -12    1    6    6    0    0 -0.69319431096E+02 -0.67540960247E+02  0.52360309062E+02  0.11003893313E+03  0.00000000000E+00 0.  1.
</event>
<event>
12    1  0.8356052E-002  0.1856808E+03  0.7818608E-02  0.1162761E+00
         21   -1    0    0  503  502  0.00000000000E+00  0.00000000000E+00  0.19612345103E+02  0.19612345103E+02  0.00000000000E+00 0. -1.
         21   -1    0    0  501  503 -0.00000000000E+00 -0.00000000000E+00 -0.17760452820E+04  0.17760452820E+04  0.00000000000E+00 0. -1.
          6    2    1    2  501    0 -0.39693120971E+02 -0.57836467346E+02 -0.99543532805E+03  0.10123347619E+04  0.17032198064E+03 0.  0.
         24    2    3    3    0    0 -0.28065479573E+02 -0.10492167788E+03 -0.69094735938E+03  0.70397258501E+03  0.79830554151E+02 0.  0.
         -6    2    1    2    0  502  0.39693120971E+02  0.57836467346E+02 -0.76099760886E+03  0.78332286518E+03  0.17192076550E+03 0.  0.
        -24    2    5    5    0    0  0.20638828623E+02  0.18027589374E+02 -0.71462102616E+03  0.71913026245E+03  0.75592116728E+02 0.  0.
          5    1    3    3  501    0 -0.11627641399E+02  0.47085210538E+02 -0.30448796867E+03  0.30836217693E+03  0.47000000000E+01 0. -1.
        -11    1    4    4    0    0 -0.16128804096E+02 -0.27452854067E+02 -0.57781786415E+02  0.65973724765E+02  0.00000000000E+00 0.  1.
         12    1    4    4    0    0 -0.11936675477E+02 -0.77468823817E+02 -0.63316557296E+03  0.63799886024E+03  0.00000000000E+00 0. -1.
         -5    1    5    5    0  502  0.19054292349E+02  0.39808877972E+02 -0.46376582697E+02  0.64192602727E+02  0.47000000000E+01 0.  1.
         11    1    6    6    0    0  0.14149743406E+02  0.29838224697E+02 -0.12300464524E+03  0.12736042416E+03  0.00000000000E+00 0. -1.
        -12    1    6    6    0    0  0.64890852171E+01 -0.11810635322E+02 -0.59161638092E+03  0.59176983829E+03  0.00000000000E+00 0.  1.
</event>
<event>
12    1  0.8356052E-002  0.3020183E+03  0.7818608E-02  0.1084452E+00
         21   -1    0    0  501  502  0.00000000000E+00  0.00000000000E+00  0.50286459820E+03  0.50286459820E+03  0.00000000000E+00 0.  1.
         21   -1    0    0  502  503 -0.00000000000E+00 -0.00000000000E+00 -0.19001868708E+03  0.19001868708E+03  0.00000000000E+00 0. -1.
         -6    2    1    2    0  503  0.24563998090E+03  0.16778525075E+02  0.78701035274E+02  0.31210402801E+03  0.17491298473E+03 0.  0.
        -24    2    3    3    0    0  0.19791245013E+03 -0.48176808814E+02  0.76064234030E+02  0.23131940500E+03  0.78946542716E+02 0.  0.
          6    2    1    2  501    0 -0.24563998090E+03 -0.16778525075E+02  0.23414487584E+03  0.38077925727E+03  0.17189677356E+03 0.  0.
         24    2    5    5    0    0 -0.14315315745E+03  0.29342269741E+02  0.20369649374E+03  0.26424655512E+03  0.83547501777E+02 0.  0.
          5    1    5    5  501    0 -0.10248682345E+03 -0.46120794816E+02  0.30448382104E+02  0.11653270214E+03  0.47000000000E+01 0. -1.
        -11    1    6    6    0    0 -0.12750705825E+03 -0.14435065304E+01  0.18580845026E+03  0.22535508382E+03  0.00000000000E+00 0.  1.
         12    1    6    6    0    0 -0.15646099196E+02  0.30785776272E+02  0.17888043473E+02  0.38891471302E+02  0.00000000000E+00 0. -1.
         -5    1    3    3    0  503  0.47727530766E+02  0.64955333889E+02  0.26368012435E+01  0.80784623008E+02  0.47000000000E+01 0.  1.
         13    1    4    4    0    0  0.35415784675E+02  0.13245113102E+02 -0.74998017029E+01  0.38548123830E+02  0.00000000000E+00 0. -1.
        -14    1    4    4    0    0  0.16249666546E+03 -0.61421921916E+02  0.83564035733E+02  0.19277128117E+03  0.00000000000E+00 0.  1.
</event>
<event>
12    1  0.8356052E-002  0.1737283E+03  0.7818608E-02  0.1174049E+00
         21   -1    0    0  501  502  0.00000000000E+00  0.00000000000E+00  0.38107775627E+02  0.38107775627E+02  0.00000000000E+00 0.  1.
         21   -1    0    0  502  503 -0.00000000000E+00 -0.00000000000E+00 -0.80126649149E+03  0.80126649149E+03  0.00000000000E+00 0.  1.
         -6    2    1    2    0  503 -0.25677984828E+02  0.13779852512E+01 -0.33510916884E+03  0.37746478579E+03  0.17181458529E+03 0.  0.
        -24    2    3    3    0    0 -0.45509554331E+02  0.13881506809E+01 -0.34348898449E+03  0.35542839401E+03  0.79193524394E+02 0.  0.
          6    2    1    2  501    0  0.25677984828E+02 -0.13779852512E+01 -0.42804954703E+03  0.46190948134E+03  0.17167613838E+03 0.  0.
         24    2    5    5    0    0 -0.23748342813E+02  0.47554076543E+02 -0.18244613825E+03  0.20660489278E+03  0.81077829126E+02 0.  0.
          5    1    5    5  501    0  0.49426327641E+02 -0.48932061794E+02 -0.24560340877E+03  0.25530458855E+03  0.47000000000E+01 0. -1.
        -13    1    6    6    0    0 -0.16910612337E+02 -0.20543498694E+02 -0.70992734671E+02  0.75815384482E+02  0.00000000000E+00 0.  1.
         14    1    6    6    0    0 -0.68377304757E+01  0.68097575236E+02 -0.11145340358E+03  0.13078950830E+03  0.00000000000E+00 0. -1.
         -5    1    3    3    0  503  0.19831569504E+02 -0.10165429660E-01  0.83798156457E+01  0.22036391777E+02  0.47000000000E+01 0.  1.
         11    1    4    4    0    0 -0.50118795245E+02  0.30691487358E+02 -0.18249796030E+03  0.19172732342E+03  0.00000000000E+00 0. -1.
        -12    1    4    4    0    0  0.46092409140E+01 -0.29303336677E+02 -0.16099102419E+03  0.16370107059E+03  0.00000000000E+00 0.  1.
</event>
<event>
12    1  0.8356052E-002  0.1863294E+03  0.7818608E-02  0.1163448E+00
         21   -1    0    0  503  502  0.00000000000E+00  0.00000000000E+00  0.72697556349E+02  0.72697556349E+02  0.00000000000E+00 0. -1.
         21   -1    0    0  501  503 -0.00000000000E+00 -0.00000000000E+00 -0.13272421160E+04  0.13272421160E+04  0.00000000000E+00 0. -1.
          6    2    1    2  501    0  0.85147552175E+01  0.69606354461E+02 -0.11889374137E+04  0.12023973815E+04  0.16513553142E+03 0.  0.
         24    2    3    3    0    0  0.26456344497E+01  0.10132921431E+03 -0.65506920638E+03  0.66753465220E+03  0.78817749857E+02 0.  0.
         -6    2    1    2    0  502 -0.85147552175E+01 -0.69606354461E+02 -0.65607145920E+02  0.19754229080E+03  0.17262998993E+03 0.  0.
        -24    2    5    5    0    0  0.43792852006E+01 -0.47120096570E+02  0.31467862131E+02  0.96956331245E+02  0.78554580909E+02 0.  0.
          5    1    3    3  501    0  0.58691207678E+01 -0.31722859852E+02 -0.53386820731E+03  0.53486272930E+03  0.47000000000E+01 0. -1.
        -11    1    4    4    0    0  0.34032379423E+02  0.48895072332E+02 -0.20988474326E+03  0.21817547158E+03  0.00000000000E+00 0.  1.
         12    1    4    4    0    0 -0.31386744973E+02  0.52434141981E+02 -0.44518446312E+03  0.44935918062E+03  0.00000000000E+00 0. -1.
         -5    1    5    5    0  502 -0.12894040418E+02 -0.22486257892E+02 -0.97075008051E+02  0.10058595956E+03  0.47000000000E+01 0.  1.
         13    1    6    6    0    0 -0.26719185776E+02 -0.52995688996E+02  0.26184274867E+02  0.64869670810E+02  0.00000000000E+00 0. -1.
        -14    1    6    6    0    0  0.31098470977E+02  0.58755924265E+01  0.52835872642E+01  0.32086660435E+02  0.00000000000E+00 0.  1.
</event>
<event>
12    1  0.8356052E-002  0.2003028E+03  0.7818608E-02  0.1150537E+00
         21   -1    0    0  503  502  0.00000000000E+00  0.00000000000E+00  0.16542243696E+03  0.16542243696E+03  0.00000000000E+00 0.  1.
         21   -1    0    0  501  503 -0.00000000000E+00 -0.00000000000E+00 -0.41479829942E+03  0.41479829942E+03  0.00000000000E+00 0.  1.
          6    2    1    2  501    0  0.10515374039E+02 -0.10058823160E+03 -0.31394333305E+03  0.36976842701E+03  0.16715175088E+03 0.  0.
         24    2    3    3    0    0  0.25783809034E+01 -0.92063288720E+02 -0.32867776200E+03  0.35040702449E+03  0.79206782515E+02 0.  0.
         -6    2    1    2    0  502 -0.10515374039E+02  0.10058823160E+03  0.64567470592E+02  0.21045230937E+03  0.17289491268E+03 0.  0.
        -24    2    5    5    0    0 -0.29740373288E+01 -0.36032545709E+01  0.25675087092E+02  0.98884190963E+02  0.95378429342E+02 0.  0.
          5    1    3    3  501    0  0.79369931360E+01 -0.85249428834E+01  0.14734428953E+02  0.19361402526E+02  0.47000000000E+01 0. -1.
        -11    1    4    4    0    0 -0.11326783836E+02 -0.13185389479E+02 -0.67200359020E+01  0.18636239168E+02  0.00000000000E+00 0.  1.
         12    1    4    4    0    0  0.13905164740E+02 -0.78877899240E+02 -0.32195772610E+03  0.33177078532E+03  0.00000000000E+00 0. -1.
         -5    1    5    5    0  502 -0.75413367106E+01  0.10419148617E+03  0.38892383500E+02  0.11156811841E+03  0.47000000000E+01 0.  1.
         13    1    6    6    0    0  0.54830125438E+01  0.35030006875E+02 -0.18167482444E+02  0.39839957663E+02  0.00000000000E+00 0. -1.
        -14    1    6    6    0    0 -0.84570498726E+01 -0.38633261446E+02  0.43842569536E+02  0.59044233300E+02  0.00000000000E+00 0.  1.
</event>
<event>
12    1  0.8356052E-002  0.2236872E+03  0.7818608E-02  0.1131600E+00
         21   -1    0    0  503  502  0.00000000000E+00  0.00000000000E+00  0.76392686107E+03  0.76392686107E+03  0.00000000000E+00 0. -1.
         21   -1    0    0  501  503 -0.00000000000E+00 -0.00000000000E+00 -0.74024964901E+02  0.74024964901E+02  0.00000000000E+00 0.  1.
          6    2    1    2  501    0 -0.97461601618E+02 -0.10400021623E+03  0.49120803734E+03  0.53876090499E+03  0.16930200244E+03 0.  0.
         24    2    3    3    0    0 -0.81891471488E+02 -0.31839280748E+02  0.16043190310E+03  0.19981464000E+03  0.80421029138E+02 0.  0.
         -6    2    1    2    0  502  0.97461601618E+02  0.10400021623E+03  0.19869385883E+03  0.29919092098E+03  0.17239822765E+03 0.  0.
        -24    2    5    5    0    0  0.11484815786E+03  0.68175198261E+02  0.20658246813E+03  0.25832474417E+03  0.78850493295E+02 0.  0.
          5    1    3    3  501    0 -0.15570130130E+02 -0.72160935481E+02  0.33077613424E+03  0.33894626498E+03  0.47000000000E+01 0. -1.
        -11    1    4    4    0    0 -0.66022329670E+02 -0.22885099625E+02  0.16653340381E+03  0.18059914281E+03  0.00000000000E+00 0.  1.
         12    1    4    4    0    0 -0.15869141817E+02 -0.89541811222E+01 -0.61015007084E+01  0.19215497196E+02  0.00000000000E+00 0. -1.
         -5    1    5    5    0  502 -0.17386556243E+02  0.35825017967E+02 -0.78886092986E+01  0.40866176809E+02  0.47000000000E+01 0.  1.
         11    1    6    6    0    0  0.49984729117E+01  0.34484449133E+02  0.80629794333E+02  0.87836926731E+02  0.00000000000E+00 0. -1.
        -12    1    6    6    0    0  0.10984968495E+03  0.33690749128E+02  0.12595267379E+03  0.17048781744E+03  0.00000000000E+00 0.  1.
</event>
<event>
12    1  0.8356052E-002  0.2324056E+03  0.7818608E-02  0.1125196E+00
         21   -1    0    0  503  502  0.00000000000E+00  0.00000000000E+00  0.58182003117E+02  0.58182003117E+02  0.00000000000E+00 0. -1.
         21   -1    0    0  501  503 -0.00000000000E+00 -0.00000000000E+00 -0.96535877799E+03  0.96535877799E+03  0.00000000000E+00 0.  1.
          6    2    1    2  501    0  0.14478502744E+03 -0.52456812784E+02 -0.55966880885E+03  0.60548081323E+03  0.17223071216E+03 0.  0.
         24    2    3    3    0    0  0.16977201362E+03 -0.29003300651E+02 -0.51278040656E+03  0.54721393603E+03  0.82677798522E+02 0.  0.
         -6    2    1    2    0  502 -0.14478502744E+03  0.52456812784E+02 -0.34750796602E+03  0.41805996788E+03  0.17406300272E+03 0.  0.
        -24    2    5    5    0    0 -0.82759569626E+02 -0.18609982614E+02 -0.10264987454E+03  0.15561907588E+03  0.80528393871E+02 0.  0.
          5    1    3    3  501    0 -0.24986986184E+02 -0.23453512133E+02 -0.46888402287E+02  0.58266877203E+02  0.47000000000E+01 0. -1.
        -11    1    4    4    0    0  0.22774179659E+02 -0.15199941022E+02 -0.19375382947E+03  0.19567894088E+03  0.00000000000E+00 0.  1.
         12    1    4    4    0    0  0.14699783396E+03 -0.13803359629E+02 -0.31902657709E+03  0.35153499515E+03  0.00000000000E+00 0. -1.
         -5    1    5    5    0  502 -0.62025457810E+02  0.71066795397E+02 -0.24485809149E+03  0.26244089199E+03  0.47000000000E+01 0.  1.
         11    1    6    6    0    0 -0.18889124077E+02 -0.18135560505E+01  0.12606891825E+02  0.22782048096E+02  0.00000000000E+00 0. -1.
        -12    1    6    6    0    0 -0.63870445548E+02 -0.16796426563E+02 -0.11525676636E+03  0.13283702779E+03  0.00000000000E+00 0.  1.
</event>
<event>
12    1  0.8356052E-002  0.2539735E+03  0.7818608E-02  0.1111004E+00
         21   -1    0    0  501  502  0.00000000000E+00  0.00000000000E+00  0.75737347424E+03  0.75737347424E+03  0.00000000000E+00 0.  1.
         21   -1    0    0  502  503 -0.00000000000E+00 -0.00000000000E+00 -0.12087130955E+03  0.12087130955E+03  0.00000000000E+00 0.  1.
         -6    2    1    2    0  503 -0.16762837634E+03 -0.79233030367E+02  0.77735026225E+02  0.26446691500E+03  0.17182220221E+03 0.  0.
        -24    2    3    3    0    0 -0.13705719003E+02 -0.44320295074E+02  0.46409557594E+02  0.10348723146E+03  0.80022651486E+02 0.  0.
          6    2    1    2  501    0  0.16762837634E+03  0.79233030367E+02  0.55876713846E+03  0.61377786878E+03  0.17356673508E+03 0.  0.
         24    2    5    5    0    0  0.14349547850E+03  0.72667895401E+02  0.27296149172E+03  0.32684154228E+03  0.80286003943E+02 0.  0.
          5    1    5    5  501    0  0.24132897845E+02  0.65651349659E+01  0.28580564674E+03  0.28693632650E+03  0.47000000000E+01 0. -1.
        -11    1    6    6    0    0  0.11952637161E+03  0.81590059184E+02  0.26137252680E+03  0.29876259645E+03  0.00000000000E+00 0.  1.
         12    1    6    6    0    0  0.23969106883E+02 -0.89221637836E+01  0.11588964916E+02  0.28078945834E+02  0.00000000000E+00 0. -1.
         -5    1    3    3    0  503 -0.15392265734E+03 -0.34912735292E+02  0.31325468631E+02  0.16097968354E+03  0.47000000000E+01 0.  1.
         11    1    4    4    0    0 -0.47880351882E+01 -0.56696141479E+02  0.60264304133E+02  0.82880420440E+02  0.00000000000E+00 0. -1.
        -12    1    4    4    0    0 -0.89176838147E+01  0.12375846405E+02 -0.13854746539E+02  0.20606811023E+02  0.00000000000E+00 0.  1.
</event>
<event>
12    1  0.8356052E-002  0.1998055E+03  0.7818608E-02  0.1150547E+00
         21   -1    0    0  503  502  0.00000000000E+00  0.00000000000E+00  0.47913100718E+03  0.47913100718E+03  0.00000000000E+00 0.  1.
         21   -1    0    0  501  503 -0.00000000000E+00 -0.00000000000E+00 -0.85487401856E+02  0.85487401856E+02  0.00000000000E+00 0.  1.
          6    2    1    2  501    0 -0.97171668729E+02  0.32037739194E+01  0.14179226520E+03  0.24500470068E+03  0.17455560579E+03 0.  0.
         24    2    3    3    0    0 -0.66466279658E+02 -0.27367697194E+02  0.13710520344E+02  0.10971072768E+03  0.81741716515E+02 0.  0.
         -6    2    1    2    0  502  0.97171668729E+02 -0.32037739194E+01  0.25185134013E+03  0.31961370836E+03  0.17108836219E+03 0.  0.
        -24    2    5    5    0    0  0.84807761197E+02  0.64975525997E+02  0.20243878801E+03  0.23437889474E+03  0.50376860473E+02 0.  0.
          5    1    3    3  501    0 -0.30705389071E+02  0.30571471114E+02  0.12808174485E+03  0.13529397299E+03  0.47000000000E+01 0. -1.
        -11    1    4    4    0    0 -0.42385390197E+02  0.25334518302E+02 -0.28063428463E+01  0.49459424581E+02  0.00000000000E+00 0.  1.
         12    1    4    4    0    0 -0.24080889461E+02 -0.52702215497E+02  0.16516863191E+02  0.60251303099E+02  0.00000000000E+00 0. -1.
         -5    1    5    5    0  502  0.12363907532E+02 -0.68179299916E+02  0.49412552122E+02  0.85234813625E+02  0.47000000000E+01 0.  1.
         11    1    6    6    0    0  0.61873362903E+02  0.17139651410E+02  0.96609391368E+02  0.11599765165E+03  0.00000000000E+00 0. -1.
        -12    1    6    6    0    0  0.22934398294E+02  0.47835874587E+02  0.10582939664E+03  0.11838124309E+03  0.00000000000E+00 0.  1.
</event>
<event>
12    1  0.8356052E-002  0.1933619E+03  0.7818608E-02  0.1155727E+00
         21   -1    0    0  501  502  0.00000000000E+00  0.00000000000E+00  0.49100617007E+02  0.49100617007E+02  0.00000000000E+00 0.  1.
         21   -1    0    0  502  503 -0.00000000000E+00 -0.00000000000E+00 -0.76725773896E+03  0.76725773896E+03  0.00000000000E+00 0.  1.
         -6    2    1    2    0  503  0.82922962458E+02  0.19183425403E+02 -0.40564984917E+03  0.44886739669E+03  0.17229601903E+03 0.  0.
        -24    2    3    3    0    0  0.35431961217E+02 -0.53527223113E+01 -0.37893495921E+03  0.38892414779E+03  0.79913790504E+02 0.  0.
          6    2    1    2  501    0 -0.82922962458E+02 -0.19183425403E+02 -0.31250727279E+03  0.36749095928E+03  0.17362196892E+03 0.  0.
         24    2    5    5    0    0 -0.10904790226E+02  0.25884801997E+02 -0.67043070408E+02  0.10769772052E+03  0.79467529793E+02 0.  0.
          5    1    5    5  501    0 -0.72018172232E+02 -0.45068227400E+02 -0.24546420238E+03  0.25979323876E+03  0.47000000000E+01 0. -1.
        -13    1    6    6    0    0 -0.24638821342E+02  0.38315814237E+02 -0.74828242996E+02  0.87603875985E+02  0.00000000000E+00 0.  1.
         14    1    6    6    0    0  0.13734031116E+02 -0.12431012240E+02  0.77851725876E+01  0.20093844536E+02  0.00000000000E+00 0. -1.
         -5    1    3    3    0  503  0.47491001241E+02  0.24536147714E+02 -0.26714889959E+02  0.59943248903E+02  0.47000000000E+01 0.  1.
         13    1    4    4    0    0  0.20255857731E+02  0.36495078217E+02 -0.14986104244E+03  0.15556517139E+03  0.00000000000E+00 0. -1.
        -14    1    4    4    0    0  0.15176103486E+02 -0.41847800529E+02 -0.22907391676E+03  0.23335897640E+03  0.00000000000E+00 0.  1.
</event>
<event>
12    1  0.8356052E-002  0.1782888E+03  0.7818608E-02  0.1169531E+00
         21   -1    0    0  501  502  0.00000000000E+00  0.00000000000E+00  0.23683010893E+03  0.23683010893E+03  0.00000000000E+00 0. -1.
         21   -1    0    0  502  503 -0.00000000000E+00 -0.00000000000E+00 -0.15180445043E+03  0.15180445043E+03  0.00000000000E+00 0. -1.
         -6    2    1    2    0  503 -0.20686632422E+02  0.39517857068E+02  0.10903136831E+03  0.20898499742E+03  0.17261892157E+03 0.  0.
        -24    2    3    3    0    0 -0.49686597991E+02 -0.28567608959E+02  0.36388248591E+02  0.10517872820E+03  0.80334263727E+02 0.  0.
          6    2    1    2  501    0  0.20686632422E+02 -0.39517857068E+02 -0.24005709814E+02  0.17964956194E+03  0.17236035860E+03 0.  0.
         24    2    5    5    0    0  0.46450280385E+02 -0.81349564587E+02  0.82187451580E+00  0.12440323850E+03  0.81854200050E+02 0.  0.
          5    1    5    5  501    0 -0.25763647963E+02  0.41831707519E+02 -0.24827584330E+02  0.55246323443E+02  0.47000000000E+01 0. -1.
        -11    1    6    6    0    0  0.61635635748E+01  0.12052295272E+02 -0.16368683830E+02  0.21241025107E+02  0.00000000000E+00 0.  1.
         12    1    6    6    0    0  0.40286716810E+02 -0.93401859859E+02  0.17190558345E+02  0.10316221340E+03  0.00000000000E+00 0. -1.
         -5    1    3    3    0  503  0.28999965569E+02  0.68085466027E+02  0.72643119722E+02  0.10380626922E+03  0.47000000000E+01 0.  1.
         13    1    4    4    0    0 -0.66660492756E+02 -0.14714914209E+01  0.23311670427E+02  0.70634414838E+02  0.00000000000E+00 0. -1.
        -14    1    4    4    0    0  0.16973894764E+02 -0.27096117538E+02  0.13076578164E+02  0.34544313361E+02  0.00000000000E+00 0.  1.
</event>
<event>
12    1  0.8356052E-002  0.1842015E+03  0.7818608E-02  0.1165160E+00
         21   -1    0    0  501  502  0.00000000000E+00  0.00000000000E+00  0.59297503550E+03  0.59297503550E+03  0.00000000000E+00 0.  1.
         21   -1    0    0  502  503 -0.00000000000E+00 -0.00000000000E+00 -0.10192073163E+03  0.10192073163E+03  0.00000000000E+00 0.  1.
         -6    2    1    2    0  503  0.49552937350E+02 -0.44301992751E+02  0.13063393606E+02  0.18466411683E+03  0.17179063895E+03 0.  0.
        -24    2    3    3    0    0  0.62247778308E+02  0.30676052886E+02  0.22051973620E+02  0.10794546926E+03  0.79687694581E+02 0.  0.
          6    2    1    2  501    0 -0.49552937350E+02  0.44301992751E+02  0.47799091027E+03  0.51023165030E+03  0.16565888599E+03 0.  0.
         24    2    5    5    0    0 -0.18510058176E+02  0.45200274357E+02  0.46804209327E+03  0.47728417366E+03  0.79693753188E+02 0.  0.
          5    1    5    5  501    0 -0.31042879173E+02 -0.89828160641E+00  0.99488169958E+01  0.32947476638E+02  0.47000000000E+01 0. -1.
        -13    1    6    6    0    0  0.73174375632E+01  0.53098107116E+02  0.40725679901E+03  0.41076885740E+03  0.00000000000E+00 0.  1.
         14    1    6    6    0    0 -0.25827495740E+02 -0.78978327593E+01  0.60785294263E+02  0.66515316260E+02  0.00000000000E+00 0. -1.
         -5    1    3    3    0  503 -0.12694840958E+02 -0.74978045637E+02 -0.89885800139E+01  0.76718647571E+02  0.47000000000E+01 0.  1.
         11    1    4    4    0    0  0.15515307129E+02  0.42241471831E+02 -0.14740716933E+02  0.47353515534E+02  0.00000000000E+00 0. -1.
        -12    1    4    4    0    0  0.46732471179E+02 -0.11565418944E+02  0.36792690553E+02  0.60591953723E+02  0.00000000000E+00 0.  1.
</event>
<event>
12    1  0.8356052E-002  0.1756592E+03  0.7818608E-02  0.1172565E+00
         21   -1    0    0  503  502  0.00000000000E+00  0.00000000000E+00  0.22256520130E+03  0.22256520130E+03  0.00000000000E+00 0. -1.
         21   -1    0    0  501  503 -0.00000000000E+00 -0.00000000000E+00 -0.13833434523E+03  0.13833434523E+03  0.00000000000E+00 0. -1.
          6    2    1    2  501    0 -0.16539676329E+02 -0.33204994261E+02  0.59437040503E+02  0.18544248069E+03  0.17169746453E+03 0.  0.
         24    2    3    3    0    0 -0.59363402355E+01  0.47330445754E+02  0.23749065523E+02  0.96593679953E+02  0.80566181881E+02 0.  0.
         -6    2    1    2    0  502  0.16539676329E+02  0.33204994261E+02  0.24793815565E+02  0.17545706583E+03  0.16968888038E+03 0.  0.
        -24    2    5    5    0    0  0.46345404082E+02  0.72491606087E+02  0.39120545827E+02  0.12388997870E+03  0.80096069088E+02 0.  0.
          5    1    3    3  501    0 -0.10603336094E+02 -0.80535440015E+02  0.35687974979E+02  0.88848800739E+02  0.47000000000E+01 0. -1.
        -13    1    4    4    0    0 -0.33366939625E+02  0.30027421563E+02  0.40173065583E+02  0.60240135325E+02  0.00000000000E+00 0.  1.
         14    1    4    4    0    0  0.27430599390E+02  0.17303024191E+02 -0.16424000059E+02  0.36353544627E+02  0.00000000000E+00 0. -1.
         -5    1    5    5    0  502 -0.29805727753E+02 -0.39286611826E+02 -0.14326730262E+02  0.51567087136E+02  0.47000000000E+01 0.  1.
         13    1    6    6    0    0  0.78306668054E+00  0.49374321018E+02  0.51469805478E+02  0.71327257380E+02  0.00000000000E+00 0. -1.
        -14    1    6    6    0    0  0.45562337402E+02  0.23117285069E+02 -0.12349259651E+02  0.52562721318E+02  0.00000000000E+00 0.  1.
</event>
<event>
12    1  0.8356052E-002  0.1763119E+03  0.7818608E-02  0.1171838E+00
         21   -1    0    0  501  502  0.00000000000E+00  0.00000000000E+00  0.77907052101E+02  0.77907052101E+02  0.00000000000E+00 0. -1.
         21   -1    0    0  502  503 -0.00000000000E+00 -0.00000000000E+00 -0.13396688734E+04  0.13396688734E+04  0.00000000000E+00 0. -1.
         -6    2    1    2    0  503  0.24317830423E+02  0.65395719087E+01 -0.12251090208E+04  0.12374945598E+04  0.17281941417E+03 0.  0.
        -24    2    3    3    0    0  0.64768280630E+02  0.14062827101E+02 -0.11298390469E+04  0.11336133959E+04  0.64423336042E+02 0.  0.
          6    2    1    2  501    0 -0.24317830423E+02 -0.65395719087E+01 -0.36652800506E+02  0.18008136567E+03  0.17450429106E+03 0.  0.
         24    2    5    5    0    0 -0.24454459996E+01 -0.58589786870E+02 -0.64987347492E+02  0.11673657400E+03  0.77235542623E+02 0.  0.
          5    1    5    5  501    0 -0.21872384424E+02  0.52050214962E+02  0.28334546986E+02  0.63344791663E+02  0.47000000000E+01 0. -1.
        -13    1    6    6    0    0 -0.23585716831E+02 -0.15366541371E+02 -0.62510921067E+02  0.68556778547E+02  0.00000000000E+00 0.  1.
         14    1    6    6    0    0  0.21140270832E+02 -0.43223245499E+02 -0.24764264256E+01  0.48179795456E+02  0.00000000000E+00 0. -1.
         -5    1    3    3    0  503 -0.40450450206E+02 -0.75232551926E+01 -0.95269973888E+02  0.10388116391E+03  0.47000000000E+01 0.  1.
         11    1    4    4    0    0  0.73327648658E+02  0.11398541591E+02 -0.74863313404E+03  0.75230209371E+03  0.00000000000E+00 0. -1.
        -12    1    4    4    0    0 -0.85593680287E+01  0.26642855104E+01 -0.38120591286E+03  0.38131130221E+03  0.00000000000E+00 0.  1.
</event>
<event>
12    1  0.8356052E-002  0.2045420E+03  0.7818608E-02  0.1146307E+00
         21   -1    0    0  501  502  0.00000000000E+00  0.00000000000E+00  0.15052484677E+03  0.15052484677E+03  0.00000000000E+00 0. -1.
         21   -1    0    0  502  503 -0.00000000000E+00 -0.00000000000E+00 -0.35639462641E+03  0.35639462641E+03  0.00000000000E+00 0. -1.
         -6    2    1    2    0  503 -0.28149545417E+01  0.10746817823E+03 -0.22323301425E+03  0.30164178762E+03  0.17203911209E+03 0.  0.
        -24    2    3    3    0    0  0.10492901184E+02  0.14344699080E+03 -0.17261584513E+03  0.23795692453E+03  0.78358967557E+02 0.  0.
          6    2    1    2  501    0  0.28149545417E+01 -0.10746817823E+03  0.17363234608E+02  0.20527768555E+03  0.17401181847E+03 0.  0.
         24    2    5    5    0    0  0.36734523925E+02 -0.66113962438E+02 -0.48024035116E+02  0.12067098728E+03  0.80837478591E+02 0.  0.
          5    1    5    5  501    0 -0.33919569383E+02 -0.41354215794E+02  0.65387269724E+02  0.84606698275E+02  0.47000000000E+01 0. -1.
        -13    1    6    6    0    0 -0.61834552042E+01  0.14630367699E+02 -0.18933142604E+02  0.24713289261E+02  0.00000000000E+00 0.  1.
         14    1    6    6    0    0  0.42917979129E+02 -0.80744330137E+02 -0.29090892512E+02  0.95957698018E+02  0.00000000000E+00 0. -1.
         -5    1    3    3    0  503 -0.13307855726E+02 -0.35978812567E+02 -0.50617169122E+02  0.63684863097E+02  0.47000000000E+01 0.  1.
         11    1    4    4    0    0  0.24030619613E+02  0.10428128671E+03 -0.16369015090E+03  0.19556718268E+03  0.00000000000E+00 0. -1.
        -12    1    4    4    0    0 -0.13537718429E+02  0.39165704084E+02 -0.89256942252E+01  0.42389741849E+02  0.00000000000E+00 0.  1.
</event>
<event>
12    1  0.8356052E-002  0.2242639E+03  0.7818608E-02  0.1130874E+00
         21   -1    0    0  501  502  0.00000000000E+00  0.00000000000E+00  0.44073719389E+03  0.44073719389E+03  0.00000000000E+00 0. -1.
         21   -1    0    0  502  503 -0.00000000000E+00 -0.00000000000E+00 -0.50639983618E+03  0.50639983618E+03  0.00000000000E+00 0.  1.
         -6    2    1    2    0  503 -0.14064558546E+03 -0.28586900646E+02 -0.44984547863E+03  0.50264823651E+03  0.17232499361E+03 0.  0.
        -24    2    3    3    0    0 -0.13691026239E+01 -0.28332149150E+02 -0.19422810198E+03  0.21151195087E+03  0.78791907231E+02 0.  0.
          6    2    1    2  501    0  0.14064558546E+03  0.28586900646E+02  0.38418283634E+03  0.44448879356E+03  0.17139266105E+03 0.  0.
         24    2    5    5    0    0  0.10597446224E+03 -0.45673742101E+02  0.19961038972E+03  0.24248431862E+03  0.75084350737E+02 0.  0.
          5    1    5    5  501    0  0.34671123222E+02  0.74260642747E+02  0.18457244662E+03  0.20200447494E+03  0.47000000000E+01 0. -1.
        -11    1    6    6    0    0  0.85474574259E+02 -0.13070160000E+02  0.17902955355E+03  0.19881728539E+03  0.00000000000E+00 0.  1.
         12    1    6    6    0    0  0.20499887979E+02 -0.32603582100E+02  0.20580836174E+02  0.43667033223E+02  0.00000000000E+00 0. -1.
         -5    1    3    3    0  503 -0.13927648284E+03 -0.25475149614E+00 -0.25561737665E+03  0.29113628563E+03  0.47000000000E+01 0.  1.
         11    1    4    4    0    0  0.81923231612E+01  0.38485423891E+01  0.44019346486E+01  0.10064912615E+02  0.00000000000E+00 0. -1.
        -12    1    4    4    0    0 -0.95614257850E+01 -0.32180691539E+02 -0.19863003663E+03  0.20144703826E+03  0.00000000000E+00 0.  1.
</event>
<event>
12    1  0.8356052E-002  0.1969233E+03  0.7818608E-02  0.1154530E+00
         21   -1    0    0  503  502  0.00000000000E+00  0.00000000000E+00  0.46425088526E+03  0.46425088526E+03  0.00000000000E+00 0.  1.
         21   -1    0    0  501  503 -0.00000000000E+00 -0.00000000000E+00 -0.91534430288E+02  0.91534430288E+02  0.00000000000E+00 0.  1.
          6    2    1    2  501    0  0.43683647854E+02  0.76230341734E+02  0.89430038643E+02  0.21627884074E+03  0.17623699683E+03 0.  0.
         24    2    3    3    0    0 -0.44760746613E+00  0.39051277217E+02  0.12120988392E+03  0.15023416571E+03  0.79707377208E+02 0.  0.
         -6    2    1    2    0  502 -0.43683647854E+02 -0.76230341734E+02  0.28328641633E+03  0.33950647480E+03  0.16520934195E+03 0.  0.
        -24    2    5    5    0    0 -0.80351846224E+02 -0.29475286012E+02  0.23545366422E+03  0.26308230205E+03  0.80303536524E+02 0.  0.
          5    1    3    3  501    0  0.44131255321E+02  0.37179064517E+02 -0.31779845278E+02  0.66044675035E+02  0.47000000000E+01 0. -1.
        -11    1    4    4    0    0  0.10746099500E+02  0.49714959281E+02  0.12444598611E+03  0.13443905418E+03  0.00000000000E+00 0.  1.
         12    1    4    4    0    0 -0.11193706966E+02 -0.10663682064E+02 -0.32361021873E+01  0.15795111528E+02  0.00000000000E+00 0. -1.
         -5    1    5    5    0  502  0.36668198370E+02 -0.46755055722E+02  0.47832752109E+02  0.76424172757E+02  0.47000000000E+01 0.  1.
         13    1    6    6    0    0 -0.58900715493E+02  0.95494132587E+01  0.71191736550E+02  0.92891059484E+02  0.00000000000E+00 0. -1.
        -14    1    6    6    0    0 -0.21451130731E+02 -0.39024699270E+02  0.16426192767E+03  0.17019124256E+03  0.00000000000E+00 0.  1.
</event>
<event>
12    1  0.8356052E-002  0.2049085E+03  0.7818608E-02  0.1148649E+00
         21   -1    0    0  501  502  0.00000000000E+00  0.00000000000E+00  0.92327264691E+03  0.92327264691E+03  0.00000000000E+00 0. -1.
         21   -1    0    0  502  503 -0.00000000000E+00 -0.00000000000E+00 -0.20598030945E+03  0.20598030945E+03  0.00000000000E+00 0. -1.
         -6    2    1    2    0  503  0.24518709549E+00  0.82346821475E+02 -0.14706903268E+03  0.24093540689E+03  0.17216129296E+03 0.  0.
        -24    2    3    3    0    0  0.17693048628E+02  0.98733500911E+02 -0.16634600035E+03  0.20984453013E+03  0.79387573474E+02 0.  0.
          6    2    1    2  501    0 -0.24518709549E+00 -0.82346821475E+02  0.86436137014E+03  0.88831754948E+03  0.18763376937E+03 0.  0.
         24    2    5    5    0    0  0.24702214774E+01 -0.13020795394E+03  0.71572798723E+03  0.73207404095E+03  0.81887950636E+02 0.  0.
          5    1    5    5  501    0 -0.27154085729E+01  0.47861132467E+02  0.14863338290E+03  0.15624350853E+03  0.47000000000E+01 0. -1.
        -13    1    6    6    0    0 -0.10397926699E+02 -0.61838982748E+02  0.15744347146E+03  0.16947160049E+03  0.00000000000E+00 0.  1.
         14    1    6    6    0    0  0.12868148177E+02 -0.68368971194E+02  0.55828451578E+03  0.56260244047E+03  0.00000000000E+00 0. -1.
         -5    1    3    3    0  503 -0.17447861533E+02 -0.16386679436E+02  0.19276967669E+02  0.31090876757E+02  0.47000000000E+01 0.  1.
         11    1    4    4    0    0 -0.94771413703E+01  0.79853681008E+02 -0.65514460968E+02  0.10372353241E+03  0.00000000000E+00 0. -1.
        -12    1    4    4    0    0  0.27170189998E+02  0.18879819903E+02 -0.10083153938E+03  0.10612099772E+03  0.00000000000E+00 0.  1.
</event>
<event>
12    1  0.8356052E-002  0.3219125E+03  0.7818608E-02  0.1075442E+00
         21   -1    0    0  503  502  0.00000000000E+00  0.00000000000E+00  0.63179935495E+02  0.63179935495E+02  0.00000000000E+00 0. -1.
         21   -1    0    0  501  503 -0.00000000000E+00 -0.00000000000E+00 -0.17125797225E+04  0.17125797225E+04  0.00000000000E+00 0.  1.
          6    2    1    2  501    0  0.25598590471E+03  0.79291011367E+02 -0.10482391763E+04  0.10965550649E+04  0.17835860418E+03 0.  0.
         24    2    3    3    0    0  0.25146357033E+03  0.26655240357E+02 -0.80309269677E+03  0.84573667973E+03  0.79801145370E+02 0.  0.
         -6    2    1    2    0  502 -0.25598590471E+03 -0.79291011367E+02 -0.60116061070E+03  0.67920459312E+03  0.16765724428E+03 0.  0.
        -24    2    5    5    0    0 -0.17145473465E+03 -0.11796777582E+03 -0.41814342537E+03  0.47387853304E+03  0.80023857247E+02 0.  0.
          5    1    3    3  501    0  0.45223343709E+01  0.52635771010E+02 -0.24514647953E+03  0.25081838514E+03  0.47000000000E+01 0. -1.
        -13    1    4    4    0    0  0.37220203508E+02  0.10615023887E+02 -0.53961623937E+02  0.66406920868E+02  0.00000000000E+00 0.  1.
         14    1    4    4    0    0  0.21424336683E+03  0.16040216469E+02 -0.74913107283E+03  0.77932975886E+03  0.00000000000E+00 0. -1.
         -5    1    5    5    0  502 -0.84531170052E+02  0.38676764458E+02 -0.18301718533E+03  0.20532606007E+03  0.47000000000E+01 0.  1.
         13    1    6    6    0    0 -0.75759731648E+02 -0.36418345324E+02 -0.25116501310E+03  0.26485788005E+03  0.00000000000E+00 0. -1.
        -14    1    6    6    0    0 -0.95695003006E+02 -0.81549430500E+02 -0.16697841227E+03  0.20902065300E+03  0.00000000000E+00 0.  1.
</event>
<event>
12    1  0.8356052E-002  0.1837836E+03  0.7818608E-02  0.1164680E+00
         21   -1    0    0  501  502  0.00000000000E+00  0.00000000000E+00  0.46125140412E+02  0.46125140412E+02  0.00000000000E+00 0.  1.
         21   -1    0    0  502  503 -0.00000000000E+00 -0.00000000000E+00 -0.15256361782E+04  0.15256361782E+04  0.00000000000E+00 0.  1.
         -6    2    1    2    0  503 -0.56651224438E+02  0.64537246951E+01 -0.13113765459E+04  0.13241921552E+04  0.17471521623E+03 0.  0.
        -24    2    3    3    0    0  0.18406149559E+02 -0.40229918296E+02 -0.82057599297E+03  0.82547355244E+03  0.78130614173E+02 0.  0.
          6    2    1    2  501    0  0.56651224438E+02 -0.64537246951E+01 -0.16813449190E+03  0.24756916349E+03  0.17254063740E+03 0.  0.
         24    2    5    5    0    0  0.85813929760E+02  0.23271700486E+02 -0.65551914495E+02  0.13675698243E+03  0.80621437387E+02 0.  0.
          5    1    5    5  501    0 -0.29162705322E+02 -0.29725425181E+02 -0.10258257741E+03  0.11081218106E+03  0.47000000000E+01 0. -1.
        -13    1    6    6    0    0 -0.98162102756E+01 -0.12629510424E+02 -0.12249668260E+01  0.16042539121E+02  0.00000000000E+00 0.  1.
         14    1    6    6    0    0  0.95630140036E+02  0.35901210910E+02 -0.64326947669E+02  0.12071444331E+03  0.00000000000E+00 0. -1.
         -5    1    3    3    0  503 -0.75057373996E+02  0.46683642991E+02 -0.49080055295E+03  0.49871860271E+03  0.47000000000E+01 0.  1.
         11    1    4    4    0    0 -0.95681924451E+01  0.13242060675E+02 -0.51400663943E+02  0.53934504090E+02  0.00000000000E+00 0. -1.
        -12    1    4    4    0    0  0.27974342004E+02 -0.53471978971E+02 -0.76917532903E+03  0.77153904835E+03  0.00000000000E+00 0.  1.
</event>
<event>
12    1  0.8356052E-002  0.2201291E+03  0.7818608E-02  0.1134103E+00
         21   -1    0    0  501  502  0.00000000000E+00  0.00000000000E+00  0.21788631759E+03  0.21788631759E+03  0.00000000000E+00 0. -1.
         21   -1    0    0  502  503 -0.00000000000E+00 -0.00000000000E+00 -0.22117374778E+03  0.22117374778E+03  0.00000000000E+00 0. -1.
         -6    2    1    2    0  503  0.13337711509E+03 -0.27793418482E+02 -0.11915449907E+02  0.22045138982E+03  0.17290144125E+03 0.  0.
        -24    2    3    3    0    0  0.15466406621E+03  0.66567014563E+01 -0.27239911434E+02  0.17689827085E+03  0.81152328393E+02 0.  0.
          6    2    1    2  501    0 -0.13337711509E+03  0.27793418482E+02  0.86280197263E+01  0.21860867555E+03  0.17074361293E+03 0.  0.
         24    2    5    5    0    0 -0.47100868931E+02  0.68566054054E+02  0.33345807538E+02  0.11992201232E+03  0.79684067021E+02 0.  0.
          5    1    5    5  501    0 -0.86276246162E+02 -0.40772635572E+02 -0.24717787812E+02  0.98686663220E+02  0.47000000000E+01 0. -1.
        -13    1    6    6    0    0 -0.11736974390E+02  0.53950180765E+02 -0.15994771319E+02  0.57482269284E+02  0.00000000000E+00 0.  1.
         14    1    6    6    0    0 -0.35363894541E+02  0.14615873288E+02  0.49340578857E+02  0.62439743041E+02  0.00000000000E+00 0. -1.
         -5    1    3    3    0  503 -0.21286951116E+02 -0.34450119938E+02  0.15324461527E+02  0.43553118977E+02  0.47000000000E+01 0.  1.
         13    1    4    4    0    0  0.12083315175E+03 -0.19699251961E+02  0.60962421814E+01  0.12258007692E+03  0.00000000000E+00 0. -1.
        -14    1    4    4    0    0  0.33830914463E+02  0.26355953417E+02 -0.33336153615E+02  0.54318193930E+02  0.00000000000E+00 0.  1.
</event>
<event>
12    1  0.8356052E-002  0.2120623E+03  0.7818608E-02  0.1140274E+00
         21   -1    0    0  501  502  0.00000000000E+00  0.00000000000E+00  0.10026636988E+04  0.10026636988E+04  0.00000000000E+00 0. -1.
         21   -1    0    0  502  503 -0.00000000000E+00 -0.00000000000E+00 -0.65787668237E+02  0.65787668237E+02  0.00000000000E+00 0. -1.
         -6    2    1    2    0  503 -0.11650232620E+03  0.41476111043E+02  0.16578109391E+03  0.26917239508E+03  0.17227114494E+03 0.  0.
        -24    2    3    3    0    0 -0.16767000470E+02  0.46814935847E+02  0.24990198957E+02  0.96488277830E+02  0.78820728185E+02 0.  0.
          6    2    1    2  501    0  0.11650232620E+03 -0.41476111043E+02  0.77109493664E+03  0.79927897194E+03  0.17019522285E+03 0.  0.
         24    2    5    5    0    0  0.63218838665E+02 -0.87490627671E+02  0.58796525621E+03  0.60302649263E+03  0.79287936055E+02 0.  0.
          5    1    5    5  501    0  0.53283487538E+02  0.46014516628E+02  0.18312968043E+03  0.19625247932E+03  0.47000000000E+01 0. -1.
        -13    1    6    6    0    0  0.21214014863E+02 -0.37478274276E+02  0.79779901374E+02  0.90661392734E+02  0.00000000000E+00 0.  1.
         14    1    6    6    0    0  0.42004823802E+02 -0.50012353395E+02  0.50818535484E+03  0.51236509989E+03  0.00000000000E+00 0. -1.
         -5    1    3    3    0  503 -0.99735325733E+02 -0.53388248038E+01  0.14079089496E+03  0.17268411725E+03  0.47000000000E+01 0.  1.
         13    1    4    4    0    0  0.17673354402E+02  0.44339120312E+02  0.36503638780E+02  0.60090104760E+02  0.00000000000E+00 0. -1.
        -14    1    4    4    0    0 -0.34440354872E+02  0.24758155356E+01 -0.11513439823E+02  0.36398173070E+02  0.00000000000E+00 0.  1.
</event>
<event>
12    1  0.8356052E-002  0.1992777E+03  0.7818608E-02  0.1150669E+00
         21   -1    0    0  501  502  0.00000000000E+00  0.00000000000E+00  0.86809389472E+02  0.86809389472E+02  0.00000000000E+00 0. -1.
         21   -1    0    0  502  503 -0.00000000000E+00 -0.00000000000E+00 -0.49827630533E+03  0.49827630533E+03  0.00000000000E+00 0. -1.
         -6    2    1    2    0  503  0.39933061956E+01 -0.10318760542E+03 -0.29362072989E+03  0.35485875587E+03  0.17043466545E+03 0.  0.
        -24    2    3    3    0    0 -0.13906874835E+02 -0.12571216517E+03 -0.16509911654E+03  0.22307230978E+03  0.80663420879E+02 0.  0.
          6    2    1    2  501    0 -0.39933061956E+01  0.10318760542E+03 -0.11784618596E+03  0.23022693893E+03  0.16868044184E+03 0.  0.
         24    2    5    5    0    0  0.57958288152E+02  0.91313501338E+02 -0.85771059964E+02  0.15930516444E+03  0.79524474198E+02 0.  0.
          5    1    5    5  501    0 -0.61951594348E+02  0.11874104078E+02 -0.32075125998E+02  0.70921774496E+02  0.47000000000E+01 0. -1.
        -13    1    6    6    0    0  0.49765350094E+02  0.94277549320E+02 -0.97652699270E+02  0.14457142197E+03  0.00000000000E+00 0.  1.
         14    1    6    6    0    0  0.81929380576E+01 -0.29640479817E+01  0.11881639306E+02  0.14733742466E+02  0.00000000000E+00 0. -1.
         -5    1    3    3    0  503  0.17900181030E+02  0.22524559758E+02 -0.12852161335E+03  0.13178644609E+03  0.47000000000E+01 0.  1.
         11    1    4    4    0    0  0.33745081813E+02 -0.59914999319E+02 -0.74596346451E+02  0.10145517529E+03  0.00000000000E+00 0. -1.
        -12    1    4    4    0    0 -0.47651956648E+02 -0.65797165855E+02 -0.90502770089E+02  0.12161713449E+03  0.00000000000E+00 0.  1.
</event>
<event>
12    1  0.8356052E-002  0.2616206E+03  0.7818608E-02  0.1106447E+00
         21   -1    0    0  503  502  0.00000000000E+00  0.00000000000E+00  0.89226057615E+02  0.89226057615E+02  0.00000000000E+00 0. -1.
         21   -1    0    0  501  503 -0.00000000000E+00 -0.00000000000E+00 -0.85033398556E+03  0.85033398556E+03  0.00000000000E+00 0.  1.
          6    2    1    2  501    0 -0.17611047884E+03 -0.87615702906E+02 -0.53099071126E+03  0.59113603631E+03  0.16970346439E+03 0.  0.
         24    2    3    3    0    0 -0.16582833588E+03 -0.83970264755E+02 -0.54056844170E+03  0.57587711749E+03  0.69786617285E+02 0.  0.
         -6    2    1    2    0  502  0.17611047884E+03  0.87615702906E+02 -0.23011721668E+03  0.34842400686E+03  0.17249331290E+03 0.  0.
        -24    2    5    5    0    0  0.13604698408E+03 -0.62792654977E+01 -0.12999395992E+03  0.20535722089E+03  0.82005777261E+02 0.  0.
          5    1    3    3  501    0 -0.10282142961E+02 -0.36454381514E+01  0.95777304337E+01  0.15258918817E+02  0.47000000000E+01 0. -1.
        -13    1    4    4    0    0 -0.97962602557E+02 -0.43860731561E+02 -0.20761730098E+03  0.23372072851E+03  0.00000000000E+00 0.  1.
         14    1    4    4    0    0 -0.67865733318E+02 -0.40109533194E+02 -0.33295114072E+03  0.34215638898E+03  0.00000000000E+00 0. -1.
         -5    1    5    5    0  502  0.40063494752E+02  0.93894968404E+02 -0.10012325676E+03  0.14306678597E+03  0.47000000000E+01 0.  1.
         13    1    6    6    0    0  0.76612933066E+02 -0.21175784516E+01 -0.18346778307E+02  0.78807549929E+02  0.00000000000E+00 0. -1.
        -14    1    6    6    0    0  0.59434051018E+02 -0.41616870461E+01 -0.11164718161E+03  0.12654967096E+03  0.00000000000E+00 0.  1.
</event>
<event>
12    1  0.8356052E-002  0.2142327E+03  0.7818608E-02  0.1138444E+00
         21   -1    0    0  503  502  0.00000000000E+00  0.00000000000E+00  0.57863665706E+03  0.57863665706E+03  0.00000000000E+00 0. -1.
         21   -1    0    0  501  503 -0.00000000000E+00 -0.00000000000E+00 -0.81202006527E+02  0.81202006527E+02  0.00000000000E+00 0. -1.
          6    2    1    2  501    0 -0.11548605129E+03 -0.52169978450E+02  0.19334490730E+03  0.28786258805E+03  0.17153390839E+03 0.  0.
         24    2    3    3    0    0 -0.35318714450E+01  0.12143670037E+02  0.10300325347E+03  0.13021206258E+03  0.78648383186E+02 0.  0.
         -6    2    1    2    0  502  0.11548605129E+03  0.52169978450E+02  0.30408974323E+03  0.37197607553E+03  0.17273359295E+03 0.  0.
        -24    2    5    5    0    0  0.12593300431E+03  0.81580386676E+02  0.20885355172E+03  0.27164595487E+03  0.87505643605E+02 0.  0.
          5    1    3    3  501    0 -0.11195417984E+03 -0.64313648487E+02  0.90341653830E+02  0.15765052548E+03  0.47000000000E+01 0. -1.
        -13    1    4    4    0    0 -0.44056601408E+01 -0.18224316039E+02  0.97563011436E+02  0.99348259858E+02  0.00000000000E+00 0.  1.
         14    1    4    4    0    0  0.87378869583E+00  0.30367986075E+02  0.54402420324E+01  0.30863802720E+02  0.00000000000E+00 0. -1.
         -5    1    5    5    0  502 -0.10446953022E+02 -0.29410408226E+02  0.95236191512E+02  0.10033012067E+03  0.47000000000E+01 0.  1.
         11    1    6    6    0    0  0.90025569783E+02  0.76041315996E+02  0.20316968822E+03  0.23487189522E+03  0.00000000000E+00 0. -1.
        -12    1    6    6    0    0  0.35907434528E+02  0.55390706802E+01  0.56838635012E+01  0.36774059644E+02  0.00000000000E+00 0.  1.
</event>
<event>
12    1  0.8356052E-002  0.1716169E+03  0.7818608E-02  0.1176269E+00
         21   -1    0    0  501  502  0.00000000000E+00  0.00000000000E+00  0.93403904752E+03  0.93403904752E+03  0.00000000000E+00 0. -1.
         21   -1    0    0  502  503 -0.00000000000E+00 -0.00000000000E+00 -0.42919620949E+02  0.42919620949E+02  0.00000000000E+00 0. -1.
         -6    2    1    2    0  503 -0.93003673650E+01 -0.12087008068E+02  0.19354421043E+03  0.25867303329E+03  0.17093795413E+03 0.  0.
        -24    2    3    3    0    0 -0.51105107629E+02  0.17612286140E+02  0.17745960495E+03  0.20472408595E+03  0.86591658550E+02 0.  0.
          6    2    1    2  501    0  0.93003673650E+01  0.12087008068E+02  0.69757521614E+03  0.71828563518E+03  0.17055931209E+03 0.  0.
         24    2    5    5    0    0 -0.48812936593E+02  0.45209735275E+02  0.44011826211E+03  0.45223969116E+03  0.79937667415E+02 0.  0.
          5    1    5    5  501    0  0.58113303958E+02 -0.33122727207E+02  0.25745695403E+03  0.26604594403E+03  0.47000000000E+01 0. -1.
        -11    1    6    6    0    0 -0.20752908063E+02 -0.19788072195E+02  0.19518591992E+03  0.19728100347E+03  0.00000000000E+00 0.  1.
         12    1    6    6    0    0 -0.28060028530E+02  0.64997807470E+02  0.24493234219E+03  0.25495868768E+03  0.00000000000E+00 0. -1.
         -5    1    3    3    0  503  0.41804740264E+02 -0.29699294208E+02  0.16084605479E+02  0.53948947333E+02  0.47000000000E+01 0.  1.
         11    1    4    4    0    0  0.70593549531E+01  0.38913434130E+02  0.58674968448E+02  0.70759040203E+02  0.00000000000E+00 0. -1.
        -12    1    4    4    0    0 -0.58164462582E+02 -0.21301147990E+02  0.11878463650E+03  0.13396504575E+03  0.00000000000E+00 0.  1.
</event>
<event>
12    1  0.8356052E-002  0.1925534E+03  0.7818608E-02  0.1157634E+00
         21   -1    0    0  503  502  0.00000000000E+00  0.00000000000E+00  0.34289053630E+03  0.34289053630E+03  0.00000000000E+00 0. -1.
         21   -1    0    0  501  503 -0.00000000000E+00 -0.00000000000E+00 -0.12106631423E+03  0.12106631423E+03  0.00000000000E+00 0. -1.
          6    2    1    2  501    0 -0.38659507618E+02  0.67134228949E+02  0.26842422066E+02  0.19441535263E+03  0.17628173896E+03 0.  0.
         24    2    3    3    0    0 -0.35626148875E+02 -0.20952123723E+02  0.51881574287E+02  0.10266865822E+03  0.78364160544E+02 0.  0.
         -6    2    1    2    0  502  0.38659507618E+02 -0.67134228949E+02  0.19498180000E+03  0.26954149790E+03  0.16921334028E+03 0.  0.
        -24    2    5    5    0    0  0.33058391353E+02 -0.19790286971E+02  0.23155366170E+02  0.91162029599E+02  0.79308460841E+02 0.  0.
          5    1    3    3  501    0 -0.30333587432E+01  0.88086352672E+02 -0.25039152221E+02  0.91746694416E+02  0.47000000000E+01 0. -1.
        -11    1    4    4    0    0 -0.12231286383E+01 -0.65428088499E+01 -0.20330683044E+02  0.21392546935E+02  0.00000000000E+00 0.  1.
         12    1    4    4    0    0 -0.34403020237E+02 -0.14409314873E+02  0.72212257331E+02  0.81276111284E+02  0.00000000000E+00 0. -1.
         -5    1    5    5    0  502  0.56011162655E+01 -0.47343941978E+02  0.17182643384E+03  0.17837946830E+03  0.47000000000E+01 0.  1.
         13    1    6    6    0    0  0.51436057464E+02 -0.36246210498E+02  0.21268626594E+02  0.66421459334E+02  0.00000000000E+00 0. -1.
        -14    1    6    6    0    0 -0.18377666111E+02  0.16455923527E+02  0.18867395756E+01  0.24740570265E+02  0.00000000000E+00 0.  1.
</event>
<event>
12    1  0.8356052E-002  0.2068350E+03  0.7818608E-02  0.1144680E+00
         21   -1    0    0  503  502  0.00000000000E+00  0.00000000000E+00  0.84898833418E+03  0.84898833418E+03  0.00000000000E+00 0.  1.
         21   -1    0    0  501  503 -0.00000000000E+00 -0.00000000000E+00 -0.55866323006E+02  0.55866323006E+02  0.00000000000E+00 0. -1.
          6    2    1    2  501    0  0.11248390461E+03 -0.61575327120E+01  0.24865292680E+03  0.32343311520E+03  0.17346514922E+03 0.  0.
         24    2    3    3    0    0  0.33440404557E+02 -0.27473370534E+02  0.39219485884E+02  0.98518251268E+02  0.79338710693E+02 0.  0.
         -6    2    1    2    0  502 -0.11248390461E+03  0.61575327120E+01  0.54446908438E+03  0.58142154199E+03  0.17004082346E+03 0.  0.
        -24    2    5    5    0    0 -0.14874598957E+02  0.28526003763E+02  0.13087351294E+03  0.15584979509E+03  0.78270656414E+02 0.  0.
          5    1    3    3  501    0  0.79043500058E+02  0.21315837822E+02  0.20943344091E+03  0.22491486393E+03  0.47000000000E+01 0. -1.
        -13    1    4    4    0    0  0.24933464604E+02  0.12474596797E+02  0.49129995233E+02  0.56489376470E+02  0.00000000000E+00 0.  1.
         14    1    4    4    0    0  0.85069399528E+01 -0.39947967330E+02 -0.99105093488E+01  0.42028874797E+02  0.00000000000E+00 0. -1.
         -5    1    5    5    0  502 -0.97609305658E+02 -0.22368471051E+02  0.41359557144E+03  0.42557174690E+03  0.47000000000E+01 0.  1.
         11    1    6    6    0    0 -0.15266224514E+02  0.47882164491E+02  0.12633573154E+03  0.13596498207E+03  0.00000000000E+00 0. -1.
        -12    1    6    6    0    0  0.39162555652E+00 -0.19356160728E+02  0.45377814053E+01  0.19884813018E+02  0.00000000000E+00 0.  1.
</event>
<event>
12    1  0.8356052E-002  0.1724001E+03  0.7818608E-02  0.1175554E+00
         21   -1    0    0  503  502  0.00000000000E+00  0.00000000000E+00  0.16669882623E+03  0.16669882623E+03  0.00000000000E+00 0.  1.
         21   -1    0    0  501  503 -0.00000000000E+00 -0.00000000000E+00 -0.61032113663E+03  0.61032113663E+03  0.00000000000E+00 0.  1.
          6    2    1    2  501    0  0.49607966556E+01  0.44764132649E+01 -0.54910199835E+03  0.57553002724E+03  0.17227060076E+03 0.  0.
         24    2    3    3    0    0 -0.31418548183E+02  0.44118404441E+02 -0.46933482400E+03  0.47919812028E+03  0.80138022676E+02 0.  0.
         -6    2    1    2    0  502 -0.49607966556E+01 -0.44764132649E+01  0.10547968795E+03  0.20148993562E+03  0.17154469332E+03 0.  0.
        -24    2    5    5    0    0 -0.15637301115E+02 -0.67250442442E+02  0.48250245624E+02  0.11574691517E+03  0.79385861303E+02 0.  0.
          5    1    3    3  501    0  0.36379344838E+02 -0.39641991176E+02 -0.79767174349E+02  0.96331906962E+02  0.47000000000E+01 0. -1.
        -13    1    4    4    0    0 -0.38762417615E+02 -0.11113297305E+02 -0.22564063165E+03  0.22921545552E+03  0.00000000000E+00 0.  1.
         14    1    4    4    0    0  0.73438694326E+01  0.55231701746E+02 -0.24369419235E+03  0.24998266476E+03  0.00000000000E+00 0. -1.
         -5    1    5    5    0  502  0.10676504460E+02  0.62774029177E+02  0.57229442323E+02  0.85743020446E+02  0.47000000000E+01 0.  1.
         11    1    6    6    0    0  0.32418410685E+02 -0.29548706055E+02  0.16128792470E+02  0.46735610913E+02  0.00000000000E+00 0. -1.
        -12    1    6    6    0    0 -0.48055711800E+02 -0.37701736387E+02  0.32121453154E+02  0.69011304262E+02  0.00000000000E+00 0.  1.
</event>
<event>
12    1  0.8356052E-002  0.2004797E+03  0.7818608E-02  0.1151806E+00
         21   -1    0    0  501  502  0.00000000000E+00  0.00000000000E+00  0.38339776602E+03  0.38339776602E+03  0.00000000000E+00 0.  1.
         21   -1    0    0  502  503 -0.00000000000E+00 -0.00000000000E+00 -0.12698957917E+03  0.12698957917E+03  0.00000000000E+00 0.  1.
         -6    2    1    2    0  503 -0.73268387296E+02  0.28666046277E+02  0.54312305101E+01  0.18916853076E+03  0.17194544477E+03 0.  0.
        -24    2    3    3    0    0 -0.30825802763E+02 -0.49447481413E+02 -0.80677167253E+01  0.99127385906E+02  0.79786383859E+02 0.  0.
          6    2    1    2  501    0  0.73268387296E+02 -0.28666046277E+02  0.25097695634E+03  0.32121881442E+03  0.18439657084E+03 0.  0.
         24    2    5    5    0    0  0.27141312004E+02  0.51363943163E+02  0.17041702887E+03  0.19856279868E+03  0.83727628740E+02 0.  0.
          5    1    5    5  501    0  0.46127075292E+02 -0.80029989440E+02  0.80559927471E+02  0.12265601575E+03  0.47000000000E+01 0. -1.
        -11    1    6    6    0    0 -0.36259382542E+01 -0.37912426238E+01  0.11326396488E+03  0.11338539010E+03  0.00000000000E+00 0.  1.
         12    1    6    6    0    0  0.30767250258E+02  0.55155185787E+02  0.57153063995E+02  0.85177408576E+02  0.00000000000E+00 0. -1.
         -5    1    3    3    0  503 -0.42442584533E+02  0.78113527690E+02  0.13498947235E+02  0.90041144853E+02  0.47000000000E+01 0.  1.
         11    1    4    4    0    0 -0.24165769714E+02 -0.60505326664E+02  0.20066694250E+02  0.68172950638E+02  0.00000000000E+00 0. -1.
        -12    1    4    4    0    0 -0.66600330491E+01  0.11057845252E+02 -0.28134410975E+02  0.30954435268E+02  0.00000000000E+00 0.  1.
</event>
<event>
12    1  0.8356052E-002  0.1778961E+03  0.7818608E-02  0.1172823E+00
         21   -1    0    0  501  502  0.00000000000E+00  0.00000000000E+00  0.71241521974E+03  0.71241521974E+03  0.00000000000E+00 0.  1.
         21   -1    0    0  502  503 -0.00000000000E+00 -0.00000000000E+00 -0.41597425328E+02  0.41597425328E+02  0.00000000000E+00 0.  1.
         -6    2    1    2    0  503 -0.90208443606E+01 -0.39948625318E+02  0.35794262315E+03  0.39971231549E+03  0.17311772120E+03 0.  0.
        -24    2    3    3    0    0 -0.10617933551E+02  0.39315454879E+02  0.25152358827E+03  0.26692509440E+03  0.79538953069E+02 0.  0.
          6    2    1    2  501    0  0.90208443606E+01  0.39948625318E+02  0.31287517126E+03  0.35430032957E+03  0.16112287995E+03 0.  0.
         24    2    5    5    0    0 -0.32417904928E+02  0.70662663698E+01  0.87499309111E+02  0.12275165496E+03  0.79441720906E+02 0.  0.
          5    1    5    5  501    0  0.41438749288E+02  0.32882358948E+02  0.22537586215E+03  0.23154867461E+03  0.47000000000E+01 0. -1.
        -13    1    6    6    0    0 -0.38766536040E+02  0.38119396001E+02  0.53755180211E+02  0.76456210131E+02  0.00000000000E+00 0.  1.
         14    1    6    6    0    0  0.63486311122E+01 -0.31053129631E+02  0.33744128899E+02  0.46295444830E+02  0.00000000000E+00 0. -1.
         -5    1    3    3    0  503  0.15970891907E+01 -0.79264080197E+02  0.10641903487E+03  0.13278722110E+03  0.47000000000E+01 0.  1.
         13    1    4    4    0    0 -0.27197983147E+02 -0.14847275796E+01  0.27845424567E+02  0.38952565674E+02  0.00000000000E+00 0. -1.
        -14    1    4    4    0    0  0.16580049595E+02  0.40800182459E+02  0.22367816371E+03  0.22797252872E+03  0.00000000000E+00 0.  1.
</event>
<event>
12    1  0.8356052E-002  0.2011743E+03  0.7818608E-02  0.1148770E+00
         21   -1    0    0  501  502  0.00000000000E+00  0.00000000000E+00  0.97337039530E+02  0.97337039530E+02  0.00000000000E+00 0. -1.
         21   -1    0    0  502  503 -0.00000000000E+00 -0.00000000000E+00 -0.17244808836E+04  0.17244808836E+04  0.00000000000E+00 0. -1.
         -6    2    1    2    0  503 -0.84686899014E+02 -0.61721105458E+02 -0.16072027423E+04  0.16197443541E+04  0.17172580468E+03 0.  0.
        -24    2    3    3    0    0 -0.30894845062E+02 -0.75954053337E+02 -0.56259763630E+03  0.57364776229E+03  0.76368482637E+02 0.  0.
          6    2    1    2  501    0  0.84686899014E+02  0.61721105458E+02 -0.19941101756E+02  0.20207356904E+03  0.17162375721E+03 0.  0.
         24    2    5    5    0    0  0.91365998528E+02  0.30388100993E+02 -0.71458925888E+02  0.14122503789E+03  0.74612002180E+02 0.  0.
          5    1    5    5  501    0 -0.66790995144E+01  0.31333004464E+02  0.51517824132E+02  0.60848531144E+02  0.47000000000E+01 0. -1.
        -13    1    6    6    0    0  0.42420493390E+01  0.34333979161E+02 -0.20783905513E+02  0.40358243718E+02  0.00000000000E+00 0.  1.
         14    1    6    6    0    0  0.87123949189E+02 -0.39458781674E+01 -0.50675020374E+02  0.10086679417E+03  0.00000000000E+00 0. -1.
         -5    1    3    3    0  503 -0.53792053952E+02  0.14232947880E+02 -0.10446051060E+04  0.10460965918E+04  0.47000000000E+01 0.  1.
         11    1    4    4    0    0 -0.36230512313E+02 -0.14093274106E+01 -0.22255886911E+03  0.22549298535E+03  0.00000000000E+00 0. -1.
        -12    1    4    4    0    0  0.53356672501E+01 -0.74544725927E+02 -0.34003876720E+03  0.34815477694E+03  0.00000000000E+00 0.  1.
</event>
<event>
12    1  0.8356052E-002  0.1992657E+03  0.7818608E-02  0.1150706E+00
         21   -1    0    0  501  502  0.00000000000E+00  0.00000000000E+00  0.61040254653E+02  0.61040254653E+02  0.00000000000E+00 0. -1.
         21   -1    0    0  502  503 -0.00000000000E+00 -0.00000000000E+00 -0.77431106738E+03  0.77431106738E+03  0.00000000000E+00 0. -1.
         -6    2    1    2    0  503  0.97741246343E+02 -0.10396611736E+02 -0.18487310652E+03  0.27062930020E+03  0.17146635775E+03 0.  0.
        -24    2    3    3    0    0 -0.12484420106E+02  0.12894775728E+02 -0.95892564888E+02  0.12699151596E+03  0.81297756042E+02 0.  0.
          6    2    1    2  501    0 -0.97741246343E+02  0.10396611736E+02 -0.52839770621E+03  0.56472202183E+03  0.17333604716E+03 0.  0.
         24    2    5    5    0    0 -0.54120463603E+02  0.90323786434E+01 -0.14865169306E+03  0.18244756765E+03  0.90438822677E+02 0.  0.
          5    1    5    5  501    0 -0.43620782739E+02  0.13642330930E+01 -0.37974601315E+03  0.38227445418E+03  0.47000000000E+01 0. -1.
        -11    1    6    6    0    0  0.25283747644E+02  0.48017507282E+01 -0.44574888614E+02  0.51470820859E+02  0.00000000000E+00 0.  1.
         12    1    6    6    0    0 -0.79404211247E+02  0.42306279152E+01 -0.10407680445E+03  0.13097674679E+03  0.00000000000E+00 0. -1.
         -5    1    3    3    0  503  0.11022566645E+03 -0.23291387464E+02 -0.88980541634E+02  0.14363778425E+03  0.47000000000E+01 0.  1.
         11    1    4    4    0    0  0.26986231310E+02 -0.14168404694E+02 -0.59556585317E+02  0.66902819272E+02  0.00000000000E+00 0. -1.
        -12    1    4    4    0    0 -0.39470651417E+02  0.27063180422E+02 -0.36335979570E+02  0.60088696683E+02  0.00000000000E+00 0.  1.
</event>
<event>
12    1  0.8356052E-002  0.1786908E+03  0.7818608E-02  0.1169083E+00
         21   -1    0    0  501  502  0.00000000000E+00  0.00000000000E+00  0.34070948875E+03  0.34070948875E+03  0.00000000000E+00 0. -1.
         21   -1    0    0  502  503 -0.00000000000E+00 -0.00000000000E+00 -0.11356229956E+03  0.11356229956E+03  0.00000000000E+00 0. -1.
         -6    2    1    2    0  503 -0.15218053963E+02  0.36508799018E+02  0.18579333125E+02  0.17962481364E+03  0.17422801291E+03 0.  0.
        -24    2    3    3    0    0  0.69029453597E+01  0.73619307123E+01  0.76425722168E+02  0.11101597115E+03  0.79886207585E+02 0.  0.
          6    2    1    2  501    0  0.15218053963E+02 -0.36508799018E+02  0.20856785606E+03  0.27464697467E+03  0.17425822374E+03 0.  0.
         24    2    5    5    0    0  0.36484323602E+01  0.34914063713E+02  0.17326844602E+03  0.19400443122E+03  0.79896570915E+02 0.  0.
          5    1    5    5  501    0  0.11569621603E+02 -0.71422862731E+02  0.35299410043E+02  0.80642543450E+02  0.47000000000E+01 0. -1.
        -11    1    6    6    0    0  0.23524861435E+02  0.23693594574E+02  0.19737794814E+02  0.38786416095E+02  0.00000000000E+00 0.  1.
         12    1    6    6    0    0 -0.19876429074E+02  0.11220469139E+02  0.15353065120E+03  0.15521801513E+03  0.00000000000E+00 0. -1.
         -5    1    3    3    0  503 -0.22120999323E+02  0.29146868305E+02 -0.57846389043E+02  0.68608842494E+02  0.47000000000E+01 0.  1.
         11    1    4    4    0    0  0.28668941461E+02 -0.23985365898E+02  0.18648718016E+02  0.41772965725E+02  0.00000000000E+00 0. -1.
        -12    1    4    4    0    0 -0.21765996102E+02  0.31347296611E+02  0.57777004153E+02  0.69243005423E+02  0.00000000000E+00 0.  1.
</event>
<event>
12    1  0.8356052E-002  0.1769269E+03  0.7818608E-02  0.1171383E+00
         21   -1    0    0  503  502  0.00000000000E+00  0.00000000000E+00  0.35529710571E+03  0.35529710571E+03  0.00000000000E+00 0.  1.
         21   -1    0    0  501  503 -0.00000000000E+00 -0.00000000000E+00 -0.16975446559E+03  0.16975446559E+03  0.00000000000E+00 0.  1.
          6    2    1    2  501    0 -0.26956587921E+02 -0.33840104912E+02 -0.90873388915E+02  0.19686116321E+03  0.16918786729E+03 0.  0.
         24    2    3    3    0    0  0.36183950970E+02 -0.38518944451E+01 -0.89951711595E+02  0.12679719311E+03  0.81621702764E+02 0.  0.
         -6    2    1    2    0  502  0.26956587921E+02  0.33840104912E+02  0.27641602903E+03  0.32819040808E+03  0.17155556685E+03 0.  0.
        -24    2    5    5    0    0  0.83461553702E+02  0.19728203114E+02  0.17599817965E+03  0.21201041236E+03  0.81351230883E+02 0.  0.
          5    1    3    3  501    0 -0.63140538891E+02 -0.29988210467E+02 -0.92167732040E+00  0.70063970110E+02  0.47000000000E+01 0. -1.
        -11    1    4    4    0    0 -0.17823526019E+01 -0.37241607086E+02 -0.49927610755E+02  0.62312762697E+02  0.00000000000E+00 0.  1.
         12    1    4    4    0    0  0.37966303572E+02  0.33389712641E+02 -0.40024100839E+02  0.64484430409E+02  0.00000000000E+00 0. -1.
         -5    1    5    5    0  502 -0.56504965781E+02  0.14111901798E+02  0.10041784938E+03  0.11617999572E+03  0.47000000000E+01 0.  1.
         13    1    6    6    0    0  0.55880163854E+02 -0.80560753692E+01  0.36754026756E+02  0.67367288394E+02  0.00000000000E+00 0. -1.
        -14    1    6    6    0    0  0.27581389847E+02  0.27784278483E+02  0.13924415289E+03  0.14464312397E+03  0.00000000000E+00 0.  1.
</event>
<event>
12    1  0.8356052E-002  0.2725692E+03  0.7818608E-02  0.1099938E+00
         21   -1    0    0  501  502  0.00000000000E+00  0.00000000000E+00  0.14005845291E+03  0.14005845291E+03  0.00000000000E+00 0. -1.
         21   -1    0    0  502  503 -0.00000000000E+00 -0.00000000000E+00 -0.64089268996E+03  0.64089268996E+03  0.00000000000E+00 0.  1.
         -6    2    1    2    0  503 -0.17261341106E+03 -0.11977731015E+03 -0.41339322069E+03  0.49469971984E+03  0.17231327342E+03 0.  0.
        -24    2    3    3    0    0 -0.18478179109E+03 -0.93621107290E+02 -0.40843528163E+03  0.46505368166E+03  0.80909365950E+02 0.  0.
          6    2    1    2  501    0  0.17261341106E+03  0.11977731015E+03 -0.87441016362E+02  0.28625142303E+03  0.17364317476E+03 0.  0.
         24    2    5    5    0    0  0.15774950739E+03  0.13975823755E+03 -0.11064808221E+03  0.25188820146E+03  0.82385653436E+02 0.  0.
          5    1    5    5  501    0  0.14863903670E+02 -0.19980927401E+02  0.23207065843E+02  0.34363221577E+02  0.47000000000E+01 0. -1.
        -11    1    6    6    0    0  0.91153329524E+02  0.12008143969E+03 -0.47603583419E+02  0.15809675138E+03  0.00000000000E+00 0.  1.
         12    1    6    6    0    0  0.66596177868E+02  0.19676797855E+02 -0.63044498787E+02  0.93791450078E+02  0.00000000000E+00 0. -1.
         -5    1    3    3    0  503  0.12168380025E+02 -0.26156202857E+02 -0.49579390604E+01  0.29646038185E+02  0.47000000000E+01 0.  1.
         11    1    4    4    0    0 -0.15109936559E+03 -0.88427551062E+02 -0.26488287931E+03  0.31751124361E+03  0.00000000000E+00 0. -1.
        -12    1    4    4    0    0 -0.33682425501E+02 -0.51935562278E+01 -0.14355240232E+03  0.14754243805E+03  0.00000000000E+00 0.  1.
</event>
<event>
12    1  0.8356052E-002  0.2322789E+03  0.7818608E-02  0.1125381E+00
         21   -1    0    0  503  502  0.00000000000E+00  0.00000000000E+00  0.20318109602E+04  0.20318109602E+04  0.00000000000E+00 0. -1.
         21   -1    0    0  501  503 -0.00000000000E+00 -0.00000000000E+00 -0.32846463401E+02  0.32846463401E+02  0.00000000000E+00 0.  1.
          6    2    1    2  501    0  0.12441818705E+03 -0.89230301965E+02  0.14624341162E+04  0.14807656938E+04  0.17467559593E+03 0.  0.
         24    2    3    3    0    0  0.10614847992E+03 -0.81351077586E+02  0.80407569077E+03  0.82208992331E+03  0.10681117871E+03 0.  0.
         -6    2    1    2    0  502 -0.12441818705E+03  0.89230301965E+02  0.53653038068E+03  0.58389172983E+03  0.17211266865E+03 0.  0.
        -24    2    5    5    0    0 -0.27025509408E+02 -0.21654037237E+02  0.14957679207E+03  0.16972287528E+03  0.72341980758E+02 0.  0.
          5    1    3    3  501    0  0.18269707122E+02 -0.78792243787E+01  0.65835842539E+03  0.65867577051E+03  0.47000000000E+01 0. -1.
        -13    1    4    4    0    0  0.33115937477E+02  0.24817802001E+02  0.23401094467E+03  0.23764198038E+03  0.00000000000E+00 0.  1.
         14    1    4    4    0    0  0.73032542447E+02 -0.10616887959E+03  0.57006474610E+03  0.58444794293E+03  0.00000000000E+00 0. -1.
         -5    1    5    5    0  502 -0.97392677639E+02  0.11088433920E+03  0.38695358861E+03  0.41416885455E+03  0.47000000000E+01 0.  1.
         11    1    6    6    0    0 -0.31010851237E+02  0.20055059798E+02  0.85845085931E+02  0.93451897232E+02  0.00000000000E+00 0. -1.
        -12    1    6    6    0    0  0.39853418291E+01 -0.41709097035E+02  0.63731706139E+02  0.76270978047E+02  0.00000000000E+00 0.  1.
</event>
<event>
12    1  0.8356052E-002  0.2591183E+03  0.7818608E-02  0.1108095E+00
         21   -1    0    0  503  502  0.00000000000E+00  0.00000000000E+00  0.71475059811E+03  0.71475059811E+03  0.00000000000E+00 0.  1.
         21   -1    0    0  501  503 -0.00000000000E+00 -0.00000000000E+00 -0.17524743822E+03  0.17524743822E+03  0.00000000000E+00 0.  1.
          6    2    1    2  501    0  0.61982432580E+02 -0.18335457569E+03 -0.35993941574E+02  0.25885684757E+03  0.16807909249E+03 0.  0.
         24    2    3    3    0    0  0.86384090921E+01 -0.39512476013E+02  0.25941392491E+02  0.93344883998E+02  0.80027830483E+02 0.  0.
         -6    2    1    2    0  502 -0.61982432580E+02  0.18335457569E+03  0.57549710146E+03  0.63114118876E+03  0.17228338279E+03 0.  0.
        -24    2    5    5    0    0  0.20979933074E+01  0.64859519298E+02  0.38185023415E+03  0.39519929212E+03  0.78496626380E+02 0.  0.
          5    1    3    3  501    0  0.53344023488E+02 -0.14384209968E+03 -0.61935334064E+02  0.16551196358E+03  0.47000000000E+01 0. -1.
        -13    1    4    4    0    0  0.40981311039E+02 -0.16609193868E+02  0.30107007179E+02  0.53495467627E+02  0.00000000000E+00 0.  1.
         14    1    4    4    0    0 -0.32342901947E+02 -0.22903282145E+02 -0.41656146881E+01  0.39849416371E+02  0.00000000000E+00 0. -1.
         -5    1    5    5    0  502 -0.64080425888E+02  0.11849505639E+03  0.19364686731E+03  0.23594189664E+03  0.47000000000E+01 0.  1.
         13    1    6    6    0    0  0.10867393176E+02  0.26800450961E+02  0.31826765826E+02  0.43003574609E+02  0.00000000000E+00 0. -1.
        -14    1    6    6    0    0 -0.87693998684E+01  0.38059068337E+02  0.35002346832E+03  0.35219571751E+03  0.00000000000E+00 0.  1.
</event>
<event>
12    1  0.8356052E-002  0.2686500E+03  0.7818608E-02  0.1102830E+00
         21   -1    0    0  501  502  0.00000000000E+00  0.00000000000E+00  0.80017906432E+02  0.80017906432E+02  0.00000000000E+00 0. -1.
         21   -1    0    0  502  503 -0.00000000000E+00 -0.00000000000E+00 -0.91929991680E+03  0.91929991680E+03  0.00000000000E+00 0. -1.
         -6    2    1    2    0  503 -0.17389778521E+03 -0.10662706867E+03 -0.51328032442E+03  0.57688449407E+03  0.16652103947E+03 0.  0.
        -24    2    3    3    0    0 -0.85789832240E+02  0.63026701183E+01 -0.19593328352E+03  0.22867856125E+03  0.80649946183E+02 0.  0.
          6    2    1    2  501    0  0.17389778521E+03  0.10662706867E+03 -0.32600168595E+03  0.42243332917E+03  0.17482290145E+03 0.  0.
         24    2    5    5    0    0  0.15409817636E+03  0.14108963934E+03 -0.30166361372E+03  0.37559184064E+03  0.80098443309E+02 0.  0.
          5    1    5    5  501    0  0.19799608847E+02 -0.34462570672E+02 -0.24338072230E+02  0.46841488530E+02  0.47000000000E+01 0. -1.
        -11    1    6    6    0    0  0.11196948287E+03  0.13701497540E+03 -0.20986788493E+03  0.27450828349E+03  0.00000000000E+00 0.  1.
         12    1    6    6    0    0  0.42128693497E+02  0.40746639439E+01 -0.91795728787E+02  0.10108355715E+03  0.00000000000E+00 0. -1.
         -5    1    3    3    0  503 -0.88107952971E+02 -0.11292973879E+03 -0.31734704090E+03  0.34820593282E+03  0.47000000000E+01 0.  1.
         13    1    4    4    0    0 -0.57182653170E+02 -0.52658440580E+01 -0.18834063579E+03  0.19690043176E+03  0.00000000000E+00 0. -1.
        -14    1    4    4    0    0 -0.28607179070E+02  0.11568514176E+02 -0.75926477306E+01  0.31778129494E+02  0.00000000000E+00 0.  1.
</event>
<event>
12    1  0.8356052E-002  0.1940459E+03  0.7818608E-02  0.1158144E+00
         21   -1    0    0  503  502  0.00000000000E+00  0.00000000000E+00  0.25965162030E+03  0.25965162030E+03  0.00000000000E+00 0.  1.
         21   -1    0    0  501  503 -0.00000000000E+00 -0.00000000000E+00 -0.18847990813E+03  0.18847990813E+03  0.00000000000E+00 0.  1.
          6    2    1    2  501    0 -0.50357791414E+02  0.49792753855E+02 -0.83303776451E+02  0.21117128485E+03  0.18066147038E+03 0.  0.
         24    2    3    3    0    0 -0.25485065990E+02  0.91608639187E+02 -0.99598462228E+02  0.15964626645E+03  0.80780228720E+02 0.  0.
         -6    2    1    2    0  502  0.50357791414E+02 -0.49792753855E+02  0.15447548862E+03  0.23696024359E+03  0.16514313477E+03 0.  0.
        -24    2    5    5    0    0  0.65293898235E+02  0.13859920060E+02  0.55009879269E+02  0.11783741778E+03  0.80026118746E+02 0.  0.
          5    1    3    3  501    0 -0.24872725423E+02 -0.41815885332E+02  0.16294685777E+02  0.51525018395E+02  0.47000000000E+01 0. -1.
        -13    1    4    4    0    0  0.20977211867E+02  0.15044165759E+02 -0.52394586522E+02  0.58408587022E+02  0.00000000000E+00 0.  1.
         14    1    4    4    0    0 -0.46462277857E+02  0.76564473428E+02 -0.47203875706E+02  0.10123767943E+03  0.00000000000E+00 0. -1.
         -5    1    5    5    0  502 -0.14936106822E+02 -0.63652673915E+02  0.99465609353E+02  0.11912282580E+03  0.47000000000E+01 0.  1.
         13    1    6    6    0    0 -0.39459419259E-01  0.32273394896E+02  0.33773746611E+02  0.46714446751E+02  0.00000000000E+00 0. -1.
        -14    1    6    6    0    0  0.65333357654E+02 -0.18413474835E+02  0.21236132658E+02  0.71122971030E+02  0.00000000000E+00 0.  1.
</event>
<event>
12    1  0.8356052E-002  0.1783973E+03  0.7818608E-02  0.1169580E+00
         21   -1    0    0  503  502  0.00000000000E+00  0.00000000000E+00  0.76437556956E+02  0.76437556956E+02  0.00000000000E+00 0. -1.
         21   -1    0    0  501  503 -0.00000000000E+00 -0.00000000000E+00 -0.41437934593E+03  0.41437934593E+03  0.00000000000E+00 0. -1.
          6    2    1    2  501    0 -0.40069697612E+02  0.27566833342E+02 -0.17188451244E+03  0.24709447971E+03  0.17072166037E+03 0.  0.
         24    2    3    3    0    0 -0.19429483330E+02 -0.23932228801E+02 -0.16775805316E+03  0.19126178755E+03  0.86533522861E+02 0.  0.
         -6    2    1    2    0  502  0.40069697612E+02 -0.27566833342E+02 -0.16605727653E+03  0.24372242318E+03  0.17163941710E+03 0.  0.
        -24    2    5    5    0    0  0.19488528188E+02 -0.73823679400E+02 -0.16719418027E+03  0.19286317729E+03  0.58417230891E+02 0.  0.
          5    1    3    3  501    0 -0.20640214282E+02  0.51499062144E+02 -0.41264592769E+01  0.55832692156E+02  0.47000000000E+01 0. -1.
        -13    1    4    4    0    0 -0.45421618327E+02 -0.13370415927E+02 -0.15173869730E+03  0.15895447050E+03  0.00000000000E+00 0.  1.
         14    1    4    4    0    0  0.25992134997E+02 -0.10561812874E+02 -0.16019355863E+02  0.32307317053E+02  0.00000000000E+00 0. -1.
         -5    1    5    5    0  502  0.20581169424E+02  0.46256846058E+02  0.11369037418E+01  0.50859245887E+02  0.47000000000E+01 0.  1.
         11    1    6    6    0    0  0.11458364247E+02 -0.53141565143E+02 -0.50902549802E+02  0.74474086993E+02  0.00000000000E+00 0. -1.
        -12    1    6    6    0    0  0.80301639408E+01 -0.20682114257E+02 -0.11629163047E+03  0.11838909030E+03  0.00000000000E+00 0.  1.
</event>
<event>
12    1  0.8356052E-002  0.1807668E+03  0.7818608E-02  0.1167072E+00
         21   -1    0    0  501  502  0.00000000000E+00  0.00000000000E+00  0.28697328481E+03  0.28697328481E+03  0.00000000000E+00 0. -1.
         21   -1    0    0  502  503 -0.00000000000E+00 -0.00000000000E+00 -0.11865192883E+03  0.11865192883E+03  0.00000000000E+00 0. -1.
         -6    2    1    2    0  503 -0.25874653609E+02  0.50117795865E+02  0.43338304774E+02  0.18588932548E+03  0.17174207843E+03 0.  0.
        -24    2    3    3    0    0 -0.74636157453E+02 -0.64615473214E+00  0.14320470700E+02  0.10960834730E+03  0.78980633076E+02 0.  0.
          6    2    1    2  501    0  0.25874653609E+02 -0.50117795865E+02  0.12498305120E+03  0.21973588817E+03  0.17170266829E+03 0.  0.
         24    2    5    5    0    0  0.77439093939E+02 -0.56258886055E+02  0.63861688486E+02  0.13939588894E+03  0.78683054516E+02 0.  0.
          5    1    5    5  501    0 -0.51564440330E+02  0.61410901897E+01  0.61121362714E+02  0.80339999223E+02  0.47000000000E+01 0. -1.
        -11    1    6    6    0    0  0.80380571281E+01 -0.99100404735E+01 -0.18283118360E+02  0.22295552954E+02  0.00000000000E+00 0.  1.
         12    1    6    6    0    0  0.69401036811E+02 -0.46348845581E+02  0.82144806845E+02  0.11710033599E+03  0.00000000000E+00 0. -1.
         -5    1    3    3    0  503  0.48761503844E+02  0.50763950597E+02  0.29017834073E+02  0.76280978177E+02  0.47000000000E+01 0.  1.
         11    1    4    4    0    0 -0.29133469484E+02  0.38058342950E+02  0.13772599713E+02  0.49868637591E+02  0.00000000000E+00 0. -1.
        -12    1    4    4    0    0 -0.45502687969E+02 -0.38704497683E+02  0.54787098700E+00  0.59739709707E+02  0.00000000000E+00 0.  1.
</event>
<event>
12    1  0.8356052E-002  0.2889304E+03  0.7818608E-02  0.1092998E+00
         21   -1    0    0  503  502  0.00000000000E+00  0.00000000000E+00  0.11102409677E+04  0.11102409677E+04  0.00000000000E+00 0. -1.
         21   -1    0    0  501  503 -0.00000000000E+00 -0.00000000000E+00 -0.35463280247E+03  0.35463280247E+03  0.00000000000E+00 0.  1.
          6    2    1    2  501    0  0.14878467920E+03  0.15398978279E+03 -0.27900533976E+03  0.39067365862E+03  0.17009466175E+03 0.  0.
         24    2    3    3    0    0  0.64951701529E+02  0.15847585550E+03 -0.18692522805E+03  0.26597831000E+03  0.80436933077E+02 0.  0.
         -6    2    1    2    0  502 -0.14878467920E+03 -0.15398978279E+03  0.10346135050E+04  0.10742001116E+04  0.19398721859E+03 0.  0.
        -24    2    5    5    0    0 -0.32461322434E+02 -0.73402677042E+02  0.22193275484E+03  0.24927738995E+03  0.80270661012E+02 0.  0.
          5    1    3    3  501    0  0.83832977672E+02 -0.44860727092E+01 -0.92080111713E+02  0.12469534862E+03  0.47000000000E+01 0. -1.
        -13    1    4    4    0    0  0.18815560911E+02  0.11061151023E+03 -0.72323296631E+02  0.13349003994E+03  0.00000000000E+00 0.  1.
         14    1    4    4    0    0  0.46136140619E+02  0.47864345269E+02 -0.11460193142E+03  0.13248827006E+03  0.00000000000E+00 0. -1.
         -5    1    5    5    0  502 -0.11632335677E+03 -0.80587105750E+02  0.81268075018E+03  0.82492272162E+03  0.47000000000E+01 0.  1.
         11    1    6    6    0    0 -0.25069089288E+02 -0.89603007179E+02  0.20288204176E+03  0.22320009185E+03  0.00000000000E+00 0. -1.
        -12    1    6    6    0    0 -0.73922331462E+01  0.16200330136E+02  0.19050713078E+02  0.26077298100E+02  0.00000000000E+00 0.  1.
</event>
<event>
12    1  0.8356052E-002  0.2152125E+03  0.7818608E-02  0.1137704E+00
         21   -1    0    0  503  502  0.00000000000E+00  0.00000000000E+00  0.49736351946E+03  0.49736351946E+03  0.00000000000E+00 0. -1.
         21   -1    0    0  501  503 -0.00000000000E+00 -0.00000000000E+00 -0.27677426180E+03  0.27677426180E+03  0.00000000000E+00 0. -1.
          6    2    1    2  501    0 -0.93279640577E+02 -0.89297539266E+02 -0.20530047825E+03  0.29743014978E+03  0.17216638977E+03 0.  0.
         24    2    3    3    0    0  0.11419262207E+02 -0.31640806249E-01 -0.62435015796E+02  0.99029315024E+02  0.76014955675E+02 0.  0.
         -6    2    1    2    0  502  0.93279640577E+02  0.89297539266E+02  0.42588973591E+03  0.47670763147E+03  0.17085946532E+03 0.  0.
        -24    2    5    5    0    0  0.30779364128E+02 -0.10148221286E+02  0.25412622092E+03  0.26857176496E+03  0.80624444951E+02 0.  0.
          5    1    3    3  501    0 -0.10469890278E+03 -0.89265898460E+02 -0.14286546245E+03  0.19840083476E+03  0.47000000000E+01 0. -1.
        -11    1    4    4    0    0  0.15482748740E+02 -0.21369654672E+02 -0.70949899603E+02  0.75698519821E+02  0.00000000000E+00 0.  1.
         12    1    4    4    0    0 -0.40634865330E+01  0.21338013866E+02  0.85148838073E+01  0.23330795203E+02  0.00000000000E+00 0. -1.
         -5    1    5    5    0  502  0.62500276450E+02  0.99445760552E+02  0.17176351498E+03  0.20813586651E+03  0.47000000000E+01 0.  1.
         13    1    6    6    0    0 -0.12130141743E+02 -0.14850084009E+02  0.19180486047E+03  0.19276091366E+03  0.00000000000E+00 0. -1.
        -14    1    6    6    0    0  0.42909505870E+02  0.47018627240E+01  0.62321360451E+02  0.75810851305E+02  0.00000000000E+00 0.  1.
</event>
<event>
12    1  0.8356052E-002  0.1933140E+03  0.7818608E-02  0.1155862E+00
         21   -1    0    0  501  502  0.00000000000E+00  0.00000000000E+00  0.11241689814E+04  0.11241689814E+04  0.00000000000E+00 0.  1.
         21   -1    0    0  502  503 -0.00000000000E+00 -0.00000000000E+00 -0.47136189177E+02  0.47136189177E+02  0.00000000000E+00 0.  1.
         -6    2    1    2    0  503 -0.54475693486E+02  0.70422965756E+02  0.21899251125E+03  0.29210959860E+03  0.17159050767E+03 0.  0.
        -24    2    3    3    0    0 -0.96323479703E+02  0.12505909231E+02  0.13657655174E+03  0.18293037425E+03  0.73319552847E+02 0.  0.
          6    2    1    2  501    0  0.54475693486E+02 -0.70422965756E+02  0.85804028094E+03  0.87919557195E+03  0.16977848723E+03 0.  0.
         24    2    5    5    0    0  0.54192734201E+02 -0.49816330899E+00  0.27335950186E+03  0.29032949083E+03  0.81416800359E+02 0.  0.
          5    1    5    5  501    0  0.28295928472E+00 -0.69924802447E+02  0.58468077909E+03  0.58886608112E+03  0.47000000000E+01 0. -1.
        -13    1    6    6    0    0 -0.20757477255E+02 -0.34735904927E+01  0.85413733018E+02  0.87968428888E+02  0.00000000000E+00 0.  1.
         14    1    6    6    0    0  0.74950211456E+02  0.29754271837E+01  0.18794576884E+03  0.20236106194E+03  0.00000000000E+00 0. -1.
         -5    1    3    3    0  503  0.41847786217E+02  0.57917056525E+02  0.82415959504E+02  0.10917922435E+03  0.47000000000E+01 0.  1.
         13    1    4    4    0    0 -0.22216164992E+02  0.26774339184E+02  0.84094874954E+02  0.91007533860E+02  0.00000000000E+00 0. -1.
        -14    1    4    4    0    0 -0.74107314710E+02 -0.14268429954E+02  0.52481676790E+02  0.91922840391E+02  0.00000000000E+00 0.  1.
</event>
<event>
12    1  0.8356052E-002  0.2084608E+03  0.7818608E-02  0.1144325E+00
         21   -1    0    0  503  502  0.00000000000E+00  0.00000000000E+00  0.28709748754E+03  0.28709748754E+03  0.00000000000E+00 0. -1.
         21   -1    0    0  501  503 -0.00000000000E+00 -0.00000000000E+00 -0.18253716397E+03  0.18253716397E+03  0.00000000000E+00 0.  1.
          6    2    1    2  501    0  0.43275049256E+02 -0.95849474354E+02 -0.52071218786E+02  0.21486578092E+03  0.17998900067E+03 0.  0.
         24    2    3    3    0    0  0.75900017150E+02 -0.35396554695E+02  0.17928762207E+02  0.11667702716E+03  0.79236099507E+02 0.  0.
         -6    2    1    2    0  502 -0.43275049256E+02  0.95849474354E+02  0.15663154236E+03  0.25476887060E+03  0.17121298357E+03 0.  0.
        -24    2    5    5    0    0 -0.68285235102E+02  0.11336624259E+03  0.83555441824E+02  0.17543065135E+03  0.79244074115E+02 0.  0.
          5    1    3    3  501    0 -0.32624967894E+02 -0.60452919658E+02 -0.69999980993E+02  0.98188753757E+02  0.47000000000E+01 0. -1.
        -13    1    4    4    0    0  0.30307204137E+02  0.13903755332E+02 -0.20662196238E+02  0.39227125670E+02  0.00000000000E+00 0.  1.
         14    1    4    4    0    0  0.45592813013E+02 -0.49300310028E+02  0.38590958445E+02  0.77449901491E+02  0.00000000000E+00 0. -1.
         -5    1    5    5    0  502  0.25010185847E+02 -0.17516768233E+02  0.73076100532E+02  0.79338219254E+02  0.47000000000E+01 0.  1.
         13    1    6    6    0    0 -0.36842330133E+02  0.84563964849E+02  0.93822228217E+02  0.13157139487E+03  0.00000000000E+00 0. -1.
        -14    1    6    6    0    0 -0.31442904970E+02  0.28802277738E+02 -0.10266786393E+02  0.43859256476E+02  0.00000000000E+00 0.  1.
</event>
<event>
12    1  0.8356052E-002  0.1894158E+03  0.7818608E-02  0.1159307E+00
         21   -1    0    0  503  502  0.00000000000E+00  0.00000000000E+00  0.54400963788E+02  0.54400963788E+02  0.00000000000E+00 0.  1.
         21   -1    0    0  501  503 -0.00000000000E+00 -0.00000000000E+00 -0.91568988851E+03  0.91568988851E+03  0.00000000000E+00 0.  1.
          6    2    1    2  501    0  0.71016224739E+02 -0.29583083803E+02 -0.68847614842E+03  0.71368762864E+03  0.17155804062E+03 0.  0.
         24    2    3    3    0    0  0.26096864850E+02 -0.67324956616E+02 -0.58437708326E+03  0.59410124470E+03  0.79031749147E+02 0.  0.
         -6    2    1    2    0  502 -0.71016224739E+02  0.29583083803E+02 -0.17281277630E+03  0.25640322366E+03  0.17308926722E+03 0.  0.
        -24    2    5    5    0    0 -0.98087258854E+02  0.66643776950E+01 -0.68146500123E+02  0.14579026173E+03  0.83338650440E+02 0.  0.
          5    1    3    3  501    0  0.44919359889E+02  0.37741872814E+02 -0.10409906516E+03  0.11958638394E+03  0.47000000000E+01 0. -1.
        -11    1    4    4    0    0  0.34078696906E+02 -0.25167249394E+02 -0.47059458451E+03  0.47249763067E+03  0.00000000000E+00 0.  1.
         12    1    4    4    0    0 -0.79818320562E+01 -0.42157707222E+02 -0.11378249876E+03  0.12160361403E+03  0.00000000000E+00 0. -1.
         -5    1    5    5    0  502  0.27071034115E+02  0.22918706108E+02 -0.10466627618E+03  0.11061296193E+03  0.47000000000E+01 0.  1.
         13    1    6    6    0    0 -0.79776493585E+02 -0.24135063144E+02 -0.71484688146E+02  0.10980369229E+03  0.00000000000E+00 0. -1.
        -14    1    6    6    0    0 -0.18310765269E+02  0.30799440839E+02  0.33381880226E+01  0.35986569439E+02  0.00000000000E+00 0.  1.
</event>
<event>
12    1  0.8356052E-002  0.2308840E+03  0.7818608E-02  0.1126182E+00
         21   -1    0    0  503  502  0.00000000000E+00  0.00000000000E+00  0.14379936854E+04  0.14379936854E+04  0.00000000000E+00 0.  1.
         21   -1    0    0  501  503 -0.00000000000E+00 -0.00000000000E+00 -0.37073592273E+02  0.37073592273E+02  0.00000000000E+00 0.  1.
          6    2    1    2  501    0  0.11070356166E+03  0.10642828620E+03  0.74913360269E+03  0.78390597475E+03  0.17240987183E+03 0.  0.
         24    2    3    3    0    0  0.35155404826E+02  0.18025592462E+02  0.17637104063E+03  0.19943903577E+03  0.84311093842E+02 0.  0.
         -6    2    1    2    0  502 -0.11070356166E+03 -0.10642828620E+03  0.65178649040E+03  0.69116130288E+03  0.17116091514E+03 0.  0.
        -24    2    5    5    0    0  0.11631968382E+01 -0.81944264994E+02  0.34356224588E+03  0.36231800607E+03  0.80765742344E+02 0.  0.
          5    1    3    3  501    0  0.75548156832E+02  0.88402693737E+02  0.57276256206E+03  0.58446693898E+03  0.47000000000E+01 0. -1.
        -13    1    4    4    0    0  0.12974422728E+02  0.12930472096E+02 -0.30591693521E+01  0.18571248501E+02  0.00000000000E+00 0.  1.
         14    1    4    4    0    0  0.22180982097E+02  0.50951203662E+01  0.17943020998E+03  0.18086778727E+03  0.00000000000E+00 0. -1.
         -5    1    5    5    0  502 -0.11186675850E+03 -0.24484021205E+02  0.30822424451E+03  0.32884329681E+03  0.47000000000E+01 0.  1.
         13    1    6    6    0    0  0.35271196151E+02 -0.25070395772E+02  0.19309525512E+03  0.19788471283E+03  0.00000000000E+00 0. -1.
        -14    1    6    6    0    0 -0.34107999313E+02 -0.56873869222E+02  0.15046699077E+03  0.16443329325E+03  0.00000000000E+00 0.  1.
</event>
<event>
12    1  0.8356052E-002  0.2692662E+03  0.7818608E-02  0.1101838E+00
         21   -1    0    0  503  502  0.00000000000E+00  0.00000000000E+00  0.16194079882E+03  0.16194079882E+03  0.00000000000E+00 0.  1.
         21   -1    0    0  501  503 -0.00000000000E+00 -0.00000000000E+00 -0.45091557215E+03  0.45091557215E+03  0.00000000000E+00 0.  1.
          6    2    1    2  501    0  0.15743218192E+03  0.13302756587E+03 -0.17628760340E+03  0.32184093107E+03  0.17327158052E+03 0.  0.
         24    2    3    3    0    0  0.17688356832E+03  0.78199045642E+02 -0.11894289206E+03  0.24001777431E+03  0.77834651214E+02 0.  0.
         -6    2    1    2    0  502 -0.15743218192E+03 -0.13302756587E+03 -0.11268716993E+03  0.29101543989E+03  0.17178580502E+03 0.  0.
        -24    2    5    5    0    0 -0.16063007360E+03 -0.84816985961E+02 -0.13274270268E+03  0.23849115104E+03  0.79129402617E+02 0.  0.
          5    1    3    3  501    0 -0.19451386410E+02  0.54828520227E+02 -0.57344711339E+02  0.81823156760E+02  0.47000000000E+01 0. -1.
        -13    1    4    4    0    0  0.11426834427E+03  0.67288656538E+02 -0.39677788755E+02  0.13841728476E+03  0.00000000000E+00 0.  1.
         14    1    4    4    0    0  0.62615224055E+02  0.10910389104E+02 -0.79265103303E+02  0.10160048954E+03  0.00000000000E+00 0. -1.
         -5    1    5    5    0  502  0.31978916802E+01 -0.48210579908E+02  0.20055532743E+02  0.52524288856E+02  0.47000000000E+01 0.  1.
         13    1    6    6    0    0 -0.59314260159E+02 -0.74324855502E+02 -0.77137467129E+02  0.12244408699E+03  0.00000000000E+00 0. -1.
        -14    1    6    6    0    0 -0.10131581344E+03 -0.10492130459E+02 -0.55605235548E+02  0.11604706405E+03  0.00000000000E+00 0.  1.
</event>
<event>
12    1  0.8356052E-002  0.1969920E+03  0.7818608E-02  0.1152796E+00
         21   -1    0    0  503  502  0.00000000000E+00  0.00000000000E+00  0.53818932266E+03  0.53818932266E+03  0.00000000000E+00 0. -1.
         21   -1    0    0  501  503 -0.00000000000E+00 -0.00000000000E+00 -0.16420958957E+03  0.16420958957E+03  0.00000000000E+00 0. -1.
          6    2    1    2  501    0  0.79488181508E+02  0.44752792821E+02 -0.77691912906E+02  0.20963820732E+03  0.17202023477E+03 0.  0.
         24    2    3    3    0    0  0.52392954908E+02  0.62903908690E+02 -0.11344159526E+03  0.16101985584E+03  0.79727504592E+02 0.  0.
         -6    2    1    2    0  502 -0.79488181508E+02 -0.44752792821E+02  0.45167164600E+03  0.49276070492E+03  0.17459854824E+03 0.  0.
        -24    2    5    5    0    0 -0.12107517401E+03 -0.33230801554E+02  0.37559716532E+03  0.40517274434E+03  0.85605129655E+02 0.  0.
          5    1    3    3  501    0  0.27095226600E+02 -0.18151115869E+02  0.35749682351E+02  0.48618351474E+02  0.47000000000E+01 0. -1.
        -11    1    4    4    0    0 -0.16634225197E+02  0.31420243604E+01 -0.21439248934E+01  0.17063592205E+02  0.00000000000E+00 0.  1.
         12    1    4    4    0    0  0.69027180105E+02  0.59761884330E+02 -0.11129767036E+03  0.14395626364E+03  0.00000000000E+00 0. -1.
         -5    1    5    5    0  502  0.41586992501E+02 -0.11521991267E+02  0.76074480673E+02  0.87587960575E+02  0.47000000000E+01 0.  1.
         11    1    6    6    0    0 -0.31485620501E+02 -0.30189813928E+02  0.23070760764E+03  0.23479516475E+03  0.00000000000E+00 0. -1.
        -12    1    6    6    0    0 -0.89589553509E+02 -0.30409876256E+01  0.14488955768E+03  0.17037757959E+03  0.00000000000E+00 0.  1.
</event>
<event>
12    1  0.8356052E-002  0.2375085E+03  0.7818608E-02  0.1121628E+00
         21   -1    0    0  503  502  0.00000000000E+00  0.00000000000E+00  0.72797855212E+03  0.72797855212E+03  0.00000000000E+00 0. -1.
         21   -1    0    0  501  503 -0.00000000000E+00 -0.00000000000E+00 -0.99818651479E+02  0.99818651479E+02  0.00000000000E+00 0.  1.
          6    2    1    2  501    0  0.13390277191E+02 -0.16280219426E+03  0.11743254436E+03  0.26495410519E+03  0.17241351863E+03 0.  0.
         24    2    3    3    0    0  0.38040531301E+02 -0.56995456267E+02 -0.18822027164E+01  0.10352052845E+03  0.77571857434E+02 0.  0.
         -6    2    1    2    0  502 -0.13390277191E+02  0.16280219426E+03  0.51072735629E+03  0.56284309841E+03  0.17107327959E+03 0.  0.
        -24    2    5    5    0    0  0.44093308203E+02  0.10667573258E+03  0.41519231630E+03  0.43792882318E+03  0.77929858913E+02 0.  0.
          5    1    3    3  501    0 -0.24650254110E+02 -0.10580673799E+03  0.11931474707E+03  0.16143357675E+03  0.47000000000E+01 0. -1.
        -13    1    4    4    0    0  0.59940569955E+02 -0.28685444065E+02 -0.89083477697E+01  0.67045397216E+02  0.00000000000E+00 0.  1.
         14    1    4    4    0    0 -0.21900038654E+02 -0.28310012202E+02  0.70261450533E+01  0.36475131230E+02  0.00000000000E+00 0. -1.
         -5    1    5    5    0  502 -0.57483585394E+02  0.56126461678E+02  0.95535039988E+02  0.12491427523E+03  0.47000000000E+01 0.  1.
         11    1    6    6    0    0 -0.21511822434E+02  0.41518596034E+02  0.14498764014E+03  0.15234161649E+03  0.00000000000E+00 0. -1.
        -12    1    6    6    0    0  0.65605130636E+02  0.65157136546E+02  0.27020467616E+03  0.28558720669E+03  0.00000000000E+00 0.  1.
</event>
<event>
12    1  0.8356052E-002  0.1933755E+03  0.7818608E-02  0.1155647E+00
         21   -1    0    0  503  502  0.00000000000E+00  0.00000000000E+00  0.18014866368E+03  0.18014866368E+03  0.00000000000E+00 0.  1.
         21   -1    0    0  501  503 -0.00000000000E+00 -0.00000000000E+00 -0.23131502421E+03  0.23131502421E+03  0.00000000000E+00 0.  1.
          6    2    1    2  501    0  0.43630621111E+02 -0.77144273507E+02  0.41684440254E+02  0.19695178855E+03  0.17087288966E+03 0.  0.
         24    2    3    3    0    0  0.67105378927E+02 -0.10652008209E+03  0.53180035281E+02  0.15735076471E+03  0.77983890859E+02 0.  0.
         -6    2    1    2    0  502 -0.43630621111E+02  0.77144273507E+02 -0.92850800784E+02  0.21451189933E+03  0.17186975800E+03 0.  0.
        -24    2    5    5    0    0 -0.27600232074E+02  0.28781420716E+02 -0.12344848613E+03  0.15489439141E+03  0.84632149764E+02 0.  0.
          5    1    3    3  501    0 -0.23474757816E+02  0.29375808579E+02 -0.11495595027E+02  0.39601023840E+02  0.47000000000E+01 0. -1.
        -13    1    4    4    0    0  0.58115151803E+02 -0.29677360740E+02  0.45610966116E+02  0.79614551683E+02  0.00000000000E+00 0.  1.
         14    1    4    4    0    0  0.89902271231E+01 -0.76842721346E+02  0.75690691642E+01  0.77736213026E+02  0.00000000000E+00 0. -1.
         -5    1    5    5    0  502 -0.16030389037E+02  0.48362852792E+02  0.30597685342E+02  0.59617507924E+02  0.47000000000E+01 0.  1.
         11    1    6    6    0    0  0.11036038218E+02  0.19158557863E+02  0.30117669630E+01  0.22314013964E+02  0.00000000000E+00 0. -1.
        -12    1    6    6    0    0 -0.38636270292E+02  0.96228628524E+01 -0.12646025309E+03  0.13258037744E+03  0.00000000000E+00 0.  1.
</event>
<event>
12    1  0.8356052E-002  0.1748773E+03  0.7818608E-02  0.1173611E+00
         21   -1    0    0  501  502  0.00000000000E+00  0.00000000000E+00  0.52878106531E+02  0.52878106531E+02  0.00000000000E+00 0.  1.
         21   -1    0    0  502  503 -0.00000000000E+00 -0.00000000000E+00 -0.58082720671E+03  0.58082720671E+03  0.00000000000E+00 0.  1.
         -6    2    1    2    0  503 -0.28900277907E+02 -0.19808155226E+01 -0.31228140536E+03  0.35791302218E+03  0.17246131629E+03 0.  0.
        -24    2    3    3    0    0 -0.22910079744E+02  0.10313912038E+02 -0.50082440206E+02  0.95315554314E+02  0.77107428577E+02 0.  0.
          6    2    1    2  501    0  0.28900277907E+02  0.19808155226E+01 -0.21566769482E+03  0.27579229106E+03  0.16943932108E+03 0.  0.
         24    2    5    5    0    0  0.10544620381E+02 -0.61492156874E+02 -0.16276954680E+03  0.19102170388E+03  0.78121006210E+02 0.  0.
          5    1    5    5  501    0  0.18355657526E+02  0.63472972396E+02 -0.52898148018E+02  0.84770587185E+02  0.47000000000E+01 0. -1.
        -13    1    6    6    0    0  0.19377232938E+02 -0.52945390540E+02 -0.16833789667E+03  0.17752841741E+03  0.00000000000E+00 0.  1.
         14    1    6    6    0    0 -0.88326125566E+01 -0.85467663335E+01  0.55683498672E+01  0.13493286463E+02  0.00000000000E+00 0. -1.
         -5    1    3    3    0  503 -0.59901981636E+01 -0.12294727561E+02 -0.26219896515E+03  0.26259746786E+03  0.47000000000E+01 0.  1.
         13    1    4    4    0    0  0.73339544241E+01 -0.28732396479E+02 -0.29440321953E+02  0.41786003059E+02  0.00000000000E+00 0. -1.
        -14    1    4    4    0    0 -0.30244034168E+02  0.39046308518E+02 -0.20642118253E+02  0.53529551255E+02  0.00000000000E+00 0.  1.
</event>
<event>
12    1  0.8356052E-002  0.1780663E+03  0.7818608E-02  0.1170363E+00
         21   -1    0    0  501  502  0.00000000000E+00  0.00000000000E+00  0.10897409150E+03  0.10897409150E+03  0.00000000000E+00 0. -1.
         21   -1    0    0  502  503 -0.00000000000E+00 -0.00000000000E+00 -0.32803401316E+03  0.32803401316E+03  0.00000000000E+00 0.  1.
         -6    2    1    2    0  503 -0.43457730818E+02  0.91939418038E-01 -0.32541541531E+02  0.18101531095E+03  0.17268181159E+03 0.  0.
        -24    2    3    3    0    0 -0.81137573618E+02  0.91070043206E+01  0.19819564945E+02  0.11570974136E+03  0.79559321956E+02 0.  0.
          6    2    1    2  501    0  0.43457730818E+02 -0.91939418038E-01 -0.18651838013E+03  0.25599279370E+03  0.16986648133E+03 0.  0.
         24    2    5    5    0    0  0.77110596888E+02 -0.44309613653E+02 -0.11790044310E+03  0.16757204166E+03  0.79186417065E+02 0.  0.
          5    1    5    5  501    0 -0.33652866070E+02  0.44217674235E+02 -0.68617937023E+02  0.88420752037E+02  0.47000000000E+01 0. -1.
        -11    1    6    6    0    0  0.21795233436E+02 -0.15370226301E+01 -0.89454017459E+02  0.92083743835E+02  0.00000000000E+00 0.  1.
         12    1    6    6    0    0  0.55315363452E+02 -0.42772591023E+02 -0.28446425646E+02  0.75488297826E+02  0.00000000000E+00 0. -1.
         -5    1    3    3    0  503  0.37679842801E+02 -0.90150649026E+01 -0.52361106477E+02  0.65305569595E+02  0.47000000000E+01 0.  1.
         11    1    4    4    0    0 -0.83196265445E+02 -0.11104913563E+01 -0.10299034402E+02  0.83838665810E+02  0.00000000000E+00 0. -1.
        -12    1    4    4    0    0  0.20586918268E+01  0.10217495677E+02  0.30118599348E+02  0.31871075548E+02  0.00000000000E+00 0.  1.
</event>
<event>
12    1  0.8356052E-002  0.3408497E+03  0.7818608E-02  0.1066440E+00
         21   -1    0    0  501  502  0.00000000000E+00  0.00000000000E+00  0.90511390719E+02  0.90511390719E+02  0.00000000000E+00 0.  1.
         21   -1    0    0  502  503 -0.00000000000E+00 -0.00000000000E+00 -0.14961237969E+04  0.14961237969E+04  0.00000000000E+00 0. -1.
         -6    2    1    2    0  503  0.28464933211E+03  0.75431718112E+02 -0.10019948539E+04  0.10583818854E+04  0.17164889089E+03 0.  0.
        -24    2    3    3    0    0  0.23455308456E+03  0.11813183647E+03 -0.78343553303E+03  0.83007682443E+03  0.79284423331E+02 0.  0.
          6    2    1    2  501    0 -0.28464933211E+03 -0.75431718112E+02 -0.40361755230E+03  0.52825330223E+03  0.17154951596E+03 0.  0.
         24    2    5    5    0    0 -0.49950058925E+02 -0.41756451148E+02 -0.13588149195E+03  0.17059080706E+03  0.79992712173E+02 0.  0.
          5    1    5    5  501    0 -0.23469927318E+03 -0.33675266964E+02 -0.26773606035E+03  0.35766249517E+03  0.47000000000E+01 0. -1.
        -13    1    6    6    0    0 -0.17489952321E+02  0.18857244553E+02 -0.10878850140E+02  0.27925677874E+02  0.00000000000E+00 0.  1.
         14    1    6    6    0    0 -0.32460106604E+02 -0.60613695701E+02 -0.12500264181E+03  0.14266512919E+03  0.00000000000E+00 0. -1.
         -5    1    3    3    0  503  0.50096247553E+02 -0.42700118357E+02 -0.21855932082E+03  0.22830506093E+03  0.47000000000E+01 0.  1.
         13    1    4    4    0    0  0.73366114866E+02  0.26260561983E+02 -0.13773312026E+03  0.15824859033E+03  0.00000000000E+00 0. -1.
        -14    1    4    4    0    0  0.16118696969E+03  0.91871274485E+02 -0.64570241277E+03  0.67182823410E+03  0.00000000000E+00 0.  1.
</event>
<event>
12    1  0.8356052E-002  0.3463167E+03  0.7818608E-02  0.1064167E+00
         21   -1    0    0  501  502  0.00000000000E+00  0.00000000000E+00  0.59166165927E+03  0.59166165927E+03  0.00000000000E+00 0. -1.
         21   -1    0    0  502  503 -0.00000000000E+00 -0.00000000000E+00 -0.28817934614E+03  0.28817934614E+03  0.00000000000E+00 0. -1.
         -6    2    1    2    0  503 -0.19610814932E+03  0.22801420554E+03 -0.88116084466E+02  0.35707475741E+03  0.17114045074E+03 0.  0.
        -24    2    3    3    0    0 -0.13176040007E+03  0.20215549436E+03 -0.11878673947E+03  0.28110051931E+03  0.81728609146E+02 0.  0.
          6    2    1    2  501    0  0.19610814932E+03 -0.22801420554E+03  0.39159839759E+03  0.52276624800E+03  0.17171593082E+03 0.  0.
         24    2    5    5    0    0  0.29141197366E+02 -0.88815497658E+02  0.18547513344E+03  0.22316128585E+03  0.81624336880E+02 0.  0.
          5    1    5    5  501    0  0.16696695195E+03 -0.13919870788E+03  0.20612326415E+03  0.29960496215E+03  0.47000000000E+01 0. -1.
        -13    1    6    6    0    0  0.34259381150E+02 -0.40211506813E+01  0.28792965653E+02  0.44932279273E+02  0.00000000000E+00 0.  1.
         14    1    6    6    0    0 -0.51181837833E+01 -0.84794346976E+02  0.15668216778E+03  0.17822900658E+03  0.00000000000E+00 0. -1.
         -5    1    3    3    0  503 -0.64347749247E+02  0.25858711174E+02  0.30670655002E+02  0.75974238100E+02  0.47000000000E+01 0.  1.
         11    1    4    4    0    0 -0.10658677512E+03  0.98101664161E+02 -0.47367312979E+02  0.15240846262E+03  0.00000000000E+00 0. -1.
        -12    1    4    4    0    0 -0.25173624958E+02  0.10405383020E+03 -0.71419426490E+02  0.12869205668E+03  0.00000000000E+00 0.  1.
</event>
<event>
12    1  0.8356052E-002  0.1999318E+03  0.7818608E-02  0.1150157E+00
         21   -1    0    0  503  502  0.00000000000E+00  0.00000000000E+00  0.64275119709E+03  0.64275119709E+03  0.00000000000E+00 0. -1.
         21   -1    0    0  501  503 -0.00000000000E+00 -0.00000000000E+00 -0.62975856019E+02  0.62975856019E+02  0.00000000000E+00 0.  1.
          6    2    1    2  501    0  0.86511021859E+02  0.56709704671E+02  0.34205267359E+03  0.39619788012E+03  0.17109231774E+03 0.  0.
         24    2    3    3    0    0  0.58478546302E+02 -0.32831471014E+02  0.18857966001E+03  0.21625483989E+03  0.81891524217E+02 0.  0.
         -6    2    1    2    0  502 -0.86511021859E+02 -0.56709704671E+02  0.23772266748E+03  0.30952917299E+03  0.16910379887E+03 0.  0.
        -24    2    5    5    0    0  0.11383540662E+02  0.70241445485E+01  0.11989722333E+03  0.14354642029E+03  0.77790147253E+02 0.  0.
          5    1    3    3  501    0  0.28032475557E+02  0.89541175685E+02  0.15347301358E+03  0.17994304023E+03  0.47000000000E+01 0. -1.
        -11    1    4    4    0    0  0.11259157764E+01  0.23349554985E+02  0.26206446299E+02  0.35117619965E+02  0.00000000000E+00 0.  1.
         12    1    4    4    0    0  0.57352630526E+02 -0.56181025999E+02  0.16237321371E+03  0.18113721993E+03  0.00000000000E+00 0. -1.
         -5    1    5    5    0  502 -0.97894562521E+02 -0.63733849219E+02  0.11782544415E+03  0.16598275271E+03  0.47000000000E+01 0.  1.
         13    1    6    6    0    0 -0.12408197452E+01  0.25343873118E+02  0.11857423557E+03  0.12125881774E+03  0.00000000000E+00 0. -1.
        -14    1    6    6    0    0  0.12624360407E+02 -0.18319728569E+02  0.13229877576E+01  0.22287602544E+02  0.00000000000E+00 0.  1.
</event>
<event>
12    1  0.8356052E-002  0.1724883E+03  0.7818608E-02  0.1175674E+00
         21   -1    0    0  501  502  0.00000000000E+00  0.00000000000E+00  0.19178872969E+03  0.19178872969E+03  0.00000000000E+00 0. -1.
         21   -1    0    0  502  503 -0.00000000000E+00 -0.00000000000E+00 -0.41535384881E+03  0.41535384881E+03  0.00000000000E+00 0. -1.
         -6    2    1    2    0  503  0.19210212603E+01  0.12547313882E+02 -0.35251834657E+03  0.39177976574E+03  0.17047309104E+03 0.  0.
        -24    2    3    3    0    0 -0.58070956992E+02 -0.18133935417E+02 -0.24417831409E+03  0.26410819823E+03  0.80181142677E+02 0.  0.
          6    2    1    2  501    0 -0.19210212603E+01 -0.12547313882E+02  0.12895322745E+03  0.21536281276E+03  0.17202058261E+03 0.  0.
         24    2    5    5    0    0 -0.23195546888E+02  0.47435790123E+02  0.13272039719E+03  0.15143426065E+03  0.50293577022E+02 0.  0.
          5    1    5    5  501    0  0.21274525627E+02 -0.59983104006E+02 -0.37671697373E+01  0.63928552108E+02  0.47000000000E+01 0. -1.
        -13    1    6    6    0    0 -0.25224750973E+01  0.33315862183E+01 -0.43106337858E+01  0.60036581333E+01  0.00000000000E+00 0.  1.
         14    1    6    6    0    0 -0.20673071790E+02  0.44104203905E+02  0.13703103098E+03  0.14543060252E+03  0.00000000000E+00 0. -1.
         -5    1    3    3    0  503  0.59991978252E+02  0.30681249299E+02 -0.10834003248E+03  0.12767156751E+03  0.47000000000E+01 0.  1.
         13    1    4    4    0    0  0.12464454975E+02 -0.10101088661E+02 -0.12001567025E+03  0.12108325952E+03  0.00000000000E+00 0. -1.
        -14    1    4    4    0    0 -0.70535411967E+02 -0.80328467563E+01 -0.12416264384E+03  0.14302493871E+03  0.00000000000E+00 0.  1.
</event>
<event>
12    1  0.8356052E-002  0.2312224E+03  0.7818608E-02  0.1126874E+00
         21   -1    0    0  503  502  0.00000000000E+00  0.00000000000E+00  0.14254932622E+03  0.14254932622E+03  0.00000000000E+00 0.  1.
         21   -1    0    0  501  503 -0.00000000000E+00 -0.00000000000E+00 -0.39643073103E+03  0.39643073103E+03  0.00000000000E+00 0. -1.
          6    2    1    2  501    0 -0.30692303074E+02 -0.15084864634E+03 -0.20107537002E+03  0.30180441955E+03  0.16418669758E+03 0.  0.
         24    2    3    3    0    0 -0.10520909417E+01 -0.17013339205E+03 -0.17429058646E+03  0.25719547177E+03  0.82618546246E+02 0.  0.
         -6    2    1    2    0  502  0.30692303074E+02  0.15084864634E+03 -0.52806034796E+02  0.23717563769E+03  0.17252963291E+03 0.  0.
        -24    2    5    5    0    0 -0.22314328494E+02  0.13471171271E+03 -0.77530625248E+02  0.17631925766E+03  0.80201670646E+02 0.  0.
          5    1    3    3  501    0 -0.29640212132E+02  0.19284745707E+02 -0.26784783557E+02  0.44608947784E+02  0.47000000000E+01 0. -1.
        -13    1    4    4    0    0 -0.37065863927E+02 -0.12896419525E+03 -0.11769455002E+03  0.17848711167E+03  0.00000000000E+00 0.  1.
         14    1    4    4    0    0  0.36013772985E+02 -0.41169196796E+02 -0.56596036440E+02  0.78708360103E+02  0.00000000000E+00 0. -1.
         -5    1    5    5    0  502  0.53006631567E+02  0.16136933631E+02  0.24724590452E+02  0.60856380029E+02  0.47000000000E+01 0.  1.
         13    1    6    6    0    0  0.21690925495E+02  0.84825335006E+02 -0.23591754627E+02  0.90677475671E+02  0.00000000000E+00 0. -1.
        -14    1    6    6    0    0 -0.44005253988E+02  0.49886377704E+02 -0.53938870621E+02  0.85641781993E+02  0.00000000000E+00 0.  1.
</event>
<event>
12    1  0.8356052E-002  0.1921124E+03  0.7818608E-02  0.1156615E+00
         21   -1    0    0  503  502  0.00000000000E+00  0.00000000000E+00  0.29416280837E+02  0.29416280837E+02  0.00000000000E+00 0. -1.
         21   -1    0    0  501  503 -0.00000000000E+00 -0.00000000000E+00 -0.13418480736E+04  0.13418480736E+04  0.00000000000E+00 0. -1.
          6    2    1    2  501    0 -0.11982892377E+02  0.87016978254E+02 -0.83200359756E+03  0.85384920694E+03  0.17062513773E+03 0.  0.
         24    2    3    3    0    0 -0.47199440932E+02  0.28334249461E+02 -0.70263406463E+03  0.70741685395E+03  0.60937341294E+02 0.  0.
         -6    2    1    2    0  502  0.11982892377E+02 -0.87016978254E+02 -0.48042819522E+03  0.51741514752E+03  0.17085561126E+03 0.  0.
        -24    2    5    5    0    0 -0.48357455400E+02 -0.91849310671E+02 -0.34709509892E+03  0.37090878733E+03  0.79520949806E+02 0.  0.
          5    1    3    3  501    0  0.35216548554E+02  0.58682728793E+02 -0.12936953294E+03  0.14643235299E+03  0.47000000000E+01 0. -1.
        -13    1    4    4    0    0 -0.36702654377E+02 -0.62688815918E+00 -0.57293643850E+03  0.57411117424E+03  0.00000000000E+00 0.  1.
         14    1    4    4    0    0 -0.10496786555E+02  0.28961137620E+02 -0.12969762612E+03  0.13330567971E+03  0.00000000000E+00 0. -1.
         -5    1    5    5    0  502  0.60340347778E+02  0.48323324171E+01 -0.13333309630E+03  0.14650636019E+03  0.47000000000E+01 0.  1.
         13    1    6    6    0    0  0.10953590274E+02 -0.37866221569E+02 -0.19520931963E+03  0.19914946735E+03  0.00000000000E+00 0. -1.
        -14    1    6    6    0    0 -0.59311045674E+02 -0.53983089102E+02 -0.15188577929E+03  0.17175931998E+03  0.00000000000E+00 0.  1.
</event>
<event>
12    1  0.8356052E-002  0.2472074E+03  0.7818608E-02  0.1115128E+00
         21   -1    0    0  501  502  0.00000000000E+00  0.00000000000E+00  0.37058650763E+03  0.37058650763E+03  0.00000000000E+00 0. -1.
         21   -1    0    0  502  503 -0.00000000000E+00 -0.00000000000E+00 -0.16606114262E+03  0.16606114262E+03  0.00000000000E+00 0.  1.
         -6    2    1    2    0  503 -0.13470971540E+03  0.11565268874E+03  0.12636593012E+03  0.27737868315E+03  0.17160516814E+03 0.  0.
        -24    2    3    3    0    0 -0.10181988998E+03  0.13468118644E+03  0.14377592992E+03  0.23531893477E+03  0.78722112899E+02 0.  0.
          6    2    1    2  501    0  0.13470971540E+03 -0.11565268874E+03  0.78159434890E+02  0.25926896709E+03  0.17201525571E+03 0.  0.
         24    2    5    5    0    0  0.11184547753E+03 -0.17007597164E+02  0.85989494316E+01  0.13632841803E+03  0.75583241702E+02 0.  0.
          5    1    5    5  501    0  0.22864237868E+02 -0.98645091579E+02  0.69560485459E+02  0.12294054906E+03  0.47000000000E+01 0. -1.
        -13    1    6    6    0    0  0.72822717226E+02  0.19316694867E+02  0.26843650266E+02  0.79980400126E+02  0.00000000000E+00 0.  1.
         14    1    6    6    0    0  0.39022760308E+02 -0.36324292031E+02 -0.18244700834E+02  0.56348017908E+02  0.00000000000E+00 0. -1.
         -5    1    3    3    0  503 -0.32889825426E+02 -0.19028497698E+02 -0.17409999798E+02  0.42059748384E+02  0.47000000000E+01 0.  1.
         13    1    4    4    0    0  0.13328660626E+02  0.12279587804E+02  0.16511000241E+02  0.24516414903E+02  0.00000000000E+00 0. -1.
        -14    1    4    4    0    0 -0.11514855060E+03  0.12240159864E+03  0.12726492968E+03  0.21080251986E+03  0.00000000000E+00 0.  1.
</event>
<event>
12    1  0.8356052E-002  0.2410315E+03  0.7818608E-02  0.1121696E+00
         21   -1    0    0  503  502  0.00000000000E+00  0.00000000000E+00  0.16735883817E+03  0.16735883817E+03  0.00000000000E+00 0. -1.
         21   -1    0    0  501  503 -0.00000000000E+00 -0.00000000000E+00 -0.45945696418E+03  0.45945696418E+03  0.00000000000E+00 0.  1.
          6    2    1    2  501    0 -0.14869027704E+03 -0.20067420671E+02 -0.31841786956E+03  0.39935711281E+03  0.18863897804E+03 0.  0.
         24    2    3    3    0    0 -0.17371553358E+03 -0.31091178835E+02 -0.31618907726E+03  0.37152108895E+03  0.83118222749E+02 0.  0.
         -6    2    1    2    0  502  0.14869027704E+03  0.20067420671E+02  0.26319743546E+02  0.22745868954E+03  0.16891781046E+03 0.  0.
        -24    2    5    5    0    0  0.58339531738E+02 -0.53370113363E+02  0.25905570909E+02  0.11093148190E+03  0.73367738887E+02 0.  0.
          5    1    3    3  501    0  0.25025256541E+02  0.11023758163E+02 -0.22287923068E+01  0.27836023856E+02  0.47000000000E+01 0. -1.
        -13    1    4    4    0    0 -0.16821003230E+02  0.16048029610E+02 -0.85339421471E+02  0.88449433356E+02  0.00000000000E+00 0.  1.
         14    1    4    4    0    0 -0.15689453035E+03 -0.47139208445E+02 -0.23084965578E+03  0.28307165560E+03  0.00000000000E+00 0. -1.
         -5    1    5    5    0  502  0.90350745301E+02  0.73437534034E+02  0.41417263715E+00  0.11652720764E+03  0.47000000000E+01 0.  1.
         11    1    6    6    0    0  0.68233447032E+02 -0.23870963226E+02  0.32284527391E+02  0.79170176759E+02  0.00000000000E+00 0. -1.
        -12    1    6    6    0    0 -0.98939152943E+01 -0.29499150137E+02 -0.63789564817E+01  0.31761305144E+02  0.00000000000E+00 0.  1.
</event>
<event>
12    1  0.8356052E-002  0.2693758E+03  0.7818608E-02  0.1101696E+00
         21   -1    0    0  501  502  0.00000000000E+00  0.00000000000E+00  0.37310676500E+02  0.37310676500E+02  0.00000000000E+00 0. -1.
         21   -1    0    0  502  503 -0.00000000000E+00 -0.00000000000E+00 -0.19419155678E+04  0.19419155678E+04  0.00000000000E+00 0.  1.
         -6    2    1    2    0  503  0.20015685791E+03 -0.68195183989E+02 -0.94842349961E+03  0.98582493973E+03  0.16622372361E+03 0.  0.
        -24    2    3    3    0    0  0.16092337404E+03  0.70266261799E+01 -0.55275149991E+03  0.58113245360E+03  0.78962030033E+02 0.  0.
          6    2    1    2  501    0 -0.20015685791E+03  0.68195183989E+02 -0.95618139171E+03  0.99340130459E+03  0.16688303455E+03 0.  0.
         24    2    5    5    0    0 -0.14681974871E+03  0.61092456993E+02 -0.43873040004E+03  0.47313895277E+03  0.78024212848E+02 0.  0.
          5    1    5    5  501    0 -0.53337109203E+02  0.71027269961E+01 -0.51745099167E+03  0.52026235183E+03  0.47000000000E+01 0. -1.
        -13    1    6    6    0    0 -0.14020627303E+03  0.67248583720E+02 -0.43712845797E+03  0.46396277844E+03  0.00000000000E+00 0.  1.
         14    1    6    6    0    0 -0.66134756816E+01 -0.61561267273E+01 -0.16019420711E+01  0.91761743266E+01  0.00000000000E+00 0. -1.
         -5    1    3    3    0  503  0.39233483866E+02 -0.75221810169E+02 -0.39567199970E+03  0.40469248613E+03  0.47000000000E+01 0.  1.
         13    1    4    4    0    0  0.56297897127E+02 -0.16184419239E+02 -0.10021710868E+03  0.11608125396E+03  0.00000000000E+00 0. -1.
        -14    1    4    4    0    0  0.10462547692E+03  0.23211045418E+02 -0.45253439122E+03  0.46505119964E+03  0.00000000000E+00 0.  1.
</event>
<event>
12    1  0.8356052E-002  0.2238263E+03  0.7818608E-02  0.1131840E+00
         21   -1    0    0  501  502  0.00000000000E+00  0.00000000000E+00  0.10348878925E+03  0.10348878925E+03  0.00000000000E+00 0.  1.
         21   -1    0    0  502  503 -0.00000000000E+00 -0.00000000000E+00 -0.51942996253E+03  0.51942996253E+03  0.00000000000E+00 0.  1.
         -6    2    1    2    0  503  0.75804676191E+02  0.12183107288E+03 -0.29724967776E+03  0.36956942316E+03  0.16623786679E+03 0.  0.
        -24    2    3    3    0    0  0.75421368318E+02  0.24120579306E+02 -0.10523926241E+03  0.15407562491E+03  0.79961307487E+02 0.  0.
          6    2    1    2  501    0 -0.75804676191E+02 -0.12183107288E+03 -0.11869149552E+03  0.25334932862E+03  0.17178198960E+03 0.  0.
         24    2    5    5    0    0 -0.88973780602E+02 -0.13728770099E+03 -0.58832886692E+02  0.18996576834E+03  0.76560029417E+02 0.  0.
          5    1    5    5  501    0  0.13169104411E+02  0.15456628110E+02 -0.59858608825E+02  0.63383560282E+02  0.47000000000E+01 0. -1.
        -11    1    6    6    0    0 -0.36451767380E+02 -0.33269008569E+01 -0.14894206878E+02  0.39517553226E+02  0.00000000000E+00 0.  1.
         12    1    6    6    0    0 -0.52522013223E+02 -0.13396080014E+03 -0.43938679814E+02  0.15044821511E+03  0.00000000000E+00 0. -1.
         -5    1    3    3    0  503  0.38330787316E+00  0.97710493578E+02 -0.19201041535E+03  0.21549379825E+03  0.47000000000E+01 0.  1.
         11    1    4    4    0    0 -0.16436289833E+02 -0.73469412770E+00 -0.23146638475E+02  0.28398208951E+02  0.00000000000E+00 0. -1.
        -12    1    4    4    0    0  0.91857658151E+02  0.24855273434E+02 -0.82092623931E+02  0.12567741596E+03  0.00000000000E+00 0.  1.
</event>
<event>
12    1  0.8356052E-002  0.1807902E+03  0.7818608E-02  0.1167299E+00
         21   -1    0    0  501  502  0.00000000000E+00  0.00000000000E+00  0.32227210838E+03  0.32227210838E+03  0.00000000000E+00 0. -1.
         21   -1    0    0  502  503 -0.00000000000E+00 -0.00000000000E+00 -0.10454586425E+03  0.10454586425E+03  0.00000000000E+00 0. -1.
         -6    2    1    2    0  503  0.49223597508E+02  0.26907677760E+02  0.68263987681E+02  0.19224586483E+03  0.17073814704E+03 0.  0.
        -24    2    3    3    0    0  0.47458009315E+02 -0.91769747411E+01 -0.20668604231E+02  0.96140113948E+02  0.80493793521E+02 0.  0.
          6    2    1    2  501    0 -0.49223597508E+02 -0.26907677760E+02  0.14946225645E+03  0.23457210781E+03  0.17186658193E+03 0.  0.
         24    2    5    5    0    0 -0.53758584872E+02 -0.32787430112E+02  0.17929399486E+03  0.20347290822E+03  0.72731607753E+02 0.  0.
          5    1    5    5  501    0  0.45349873634E+01  0.58797523514E+01 -0.29831738413E+02  0.31099199585E+02  0.47000000000E+01 0. -1.
        -13    1    6    6    0    0 -0.17870328910E+02 -0.44361224286E+02  0.51721745045E+02  0.70444345308E+02  0.00000000000E+00 0.  1.
         14    1    6    6    0    0 -0.35888255962E+02  0.11573794174E+02  0.12757224982E+03  0.13302856292E+03  0.00000000000E+00 0. -1.
         -5    1    3    3    0  503  0.17655881930E+01  0.36084652501E+02  0.88932591911E+02  0.96105750878E+02  0.47000000000E+01 0.  1.
         13    1    4    4    0    0 -0.12025646429E+02 -0.22250395314E+02  0.10900366787E+02  0.27541137590E+02  0.00000000000E+00 0. -1.
        -14    1    4    4    0    0  0.59483655744E+02  0.13073420573E+02 -0.31568971018E+02  0.68598976358E+02  0.00000000000E+00 0.  1.
</event>
<event>
12    1  0.8356052E-002  0.2151566E+03  0.7818608E-02  0.1137716E+00
         21   -1    0    0  503  502  0.00000000000E+00  0.00000000000E+00  0.13818197483E+03  0.13818197483E+03  0.00000000000E+00 0. -1.
         21   -1    0    0  501  503 -0.00000000000E+00 -0.00000000000E+00 -0.41588669573E+03  0.41588669573E+03  0.00000000000E+00 0. -1.
          6    2    1    2  501    0  0.12802994645E+03 -0.21064025389E+01 -0.26227753824E+03  0.33923717523E+03  0.17290532054E+03 0.  0.
         24    2    3    3    0    0  0.10467076150E+03 -0.58442314964E+02 -0.13297557117E+03  0.19619705764E+03  0.80245313934E+02 0.  0.
         -6    2    1    2    0  502 -0.12802994645E+03  0.21064025389E+01 -0.15427182661E+02  0.21483149533E+03  0.17180939817E+03 0.  0.
        -24    2    5    5    0    0 -0.16009456513E+03  0.15498321102E+02 -0.98954447554E+01  0.17933257453E+03  0.78687894352E+02 0.  0.
          5    1    3    3  501    0  0.23359184956E+02  0.56335912425E+02 -0.12930196707E+03  0.14304011759E+03  0.47000000000E+01 0. -1.
        -11    1    4    4    0    0 -0.23201603738E+01 -0.23685270077E+02 -0.25129105943E+01  0.23930939857E+02  0.00000000000E+00 0.  1.
         12    1    4    4    0    0  0.10699092187E+03 -0.34757044888E+02 -0.13046266058E+03  0.17226611779E+03  0.00000000000E+00 0. -1.
         -5    1    5    5    0  502  0.32064618681E+02 -0.13391918563E+02 -0.55317379057E+01  0.35498920803E+02  0.47000000000E+01 0.  1.
         13    1    6    6    0    0 -0.41294701206E+02 -0.29542255678E+02  0.66529011798E+01  0.51207990708E+02  0.00000000000E+00 0. -1.
        -14    1    6    6    0    0 -0.11879986393E+03  0.45040576780E+02 -0.16548345935E+02  0.12812458382E+03  0.00000000000E+00 0.  1.
</event>
<event>
12    1  0.8356052E-002  0.1959587E+03  0.7818608E-02  0.1153974E+00
         21   -1    0    0  503  502  0.00000000000E+00  0.00000000000E+00  0.17250525318E+04  0.17250525318E+04  0.00000000000E+00 0.  1.
         21   -1    0    0  501  503 -0.00000000000E+00 -0.00000000000E+00 -0.27000742317E+02  0.27000742317E+02  0.00000000000E+00 0. -1.
          6    2    1    2  501    0  0.51659328250E+02 -0.67751673031E+02  0.46037192091E+03  0.49895659755E+03  0.17250045007E+03 0.  0.
         24    2    3    3    0    0  0.43178948552E+02  0.17010060816E+02  0.14630517345E+03  0.17350847537E+03  0.80908735498E+02 0.  0.
         -6    2    1    2    0  502 -0.51659328250E+02  0.67751673031E+02  0.12376798686E+04  0.12530966766E+04  0.17646769784E+03 0.  0.
        -24    2    5    5    0    0 -0.69346717989E+02 -0.17875544217E+02  0.62147420349E+03  0.63070100197E+03  0.80156508806E+02 0.  0.
          5    1    3    3  501    0  0.84803796974E+01 -0.84761733847E+02  0.31406674746E+03  0.32544812217E+03  0.47000000000E+01 0. -1.
        -13    1    4    4    0    0  0.39468421896E+02 -0.10880350249E+02  0.22845740927E+02  0.46883538977E+02  0.00000000000E+00 0.  1.
         14    1    4    4    0    0  0.37105266562E+01  0.27890411065E+02  0.12345943253E+03  0.12662493640E+03  0.00000000000E+00 0. -1.
         -5    1    5    5    0  502  0.17687389739E+02  0.85627217248E+02  0.61620566508E+03  0.62239567461E+03  0.47000000000E+01 0.  1.
         13    1    6    6    0    0 -0.32657558661E+02 -0.43229964168E+02  0.21232486994E+03  0.21912826457E+03  0.00000000000E+00 0. -1.
        -14    1    6    6    0    0 -0.36689159328E+02  0.25354419950E+02  0.40914933355E+03  0.41157273740E+03  0.00000000000E+00 0.  1.
</event>
<event>
12    1  0.8356052E-002  0.2478560E+03  0.7818608E-02  0.1114960E+00
         21   -1    0    0  501  502  0.00000000000E+00  0.00000000000E+00  0.14622764316E+03  0.14622764316E+03  0.00000000000E+00 0. -1.
         21   -1    0    0  502  503 -0.00000000000E+00 -0.00000000000E+00 -0.42591188804E+03  0.42591188804E+03  0.00000000000E+00 0.  1.
         -6    2    1    2    0  503 -0.56261120914E+02 -0.16856046202E+03 -0.99027968455E+02  0.26690660561E+03  0.17278499500E+03 0.  0.
        -24    2    3    3    0    0 -0.68669058233E+02 -0.75340231430E+02 -0.58613632814E+00  0.13068306648E+03  0.81768761017E+02 0.  0.
          6    2    1    2  501    0  0.56261120914E+02  0.16856046202E+03 -0.18065627642E+03  0.30523292560E+03  0.17015435809E+03 0.  0.
         24    2    5    5    0    0 -0.14085037630E+02  0.49549655953E+02 -0.12973552966E+03  0.15783154693E+03  0.73660931712E+02 0.  0.
          5    1    5    5  501    0  0.70346158543E+02  0.11901080607E+03 -0.50920746764E+02  0.14740137867E+03  0.47000000000E+01 0. -1.
        -11    1    6    6    0    0  0.14502387689E+02  0.48322282152E+02 -0.42316250477E+02  0.65848517489E+02  0.00000000000E+00 0.  1.
         12    1    6    6    0    0 -0.28587425318E+02  0.12273738007E+01 -0.87419279178E+02  0.91983029439E+02  0.00000000000E+00 0. -1.
         -5    1    3    3    0  503  0.12407937319E+02 -0.93220230589E+02 -0.98441832126E+02  0.13622353913E+03  0.47000000000E+01 0.  1.
         11    1    4    4    0    0  0.92239120058E+01 -0.94159252712E+01  0.22483277936E+02  0.26062194615E+02  0.00000000000E+00 0. -1.
        -12    1    4    4    0    0 -0.77892970239E+02 -0.65924306159E+02 -0.23069414265E+02  0.10462087186E+03  0.00000000000E+00 0.  1.
</event>
<event>
12    1  0.8356052E-002  0.2393633E+03  0.7818608E-02  0.1120459E+00
         21   -1    0    0  501  502  0.00000000000E+00  0.00000000000E+00  0.11945916249E+03  0.11945916249E+03  0.00000000000E+00 0. -1.
         21   -1    0    0  502  503 -0.00000000000E+00 -0.00000000000E+00 -0.54489170684E+03  0.54489170684E+03  0.00000000000E+00 0.  1.
         -6    2    1    2    0  503 -0.16501798356E+03 -0.12008410799E+02 -0.33075138316E+03  0.40827840564E+03  0.17297295229E+03 0.  0.
        -24    2    3    3    0    0 -0.13875786701E+03  0.11216558659E+02 -0.12796739731E+03  0.20243276482E+03  0.72275947962E+02 0.  0.
          6    2    1    2  501    0  0.16501798356E+03  0.12008410799E+02 -0.94681161195E+02  0.25607246369E+03  0.17097791538E+03 0.  0.
         24    2    5    5    0    0  0.75677200545E+02  0.55619625637E+02 -0.95667429289E+02  0.15653967365E+03  0.80819743629E+02 0.  0.
          5    1    5    5  501    0  0.89340783012E+02 -0.43611214839E+02  0.98626809423E+00  0.99532790043E+02  0.47000000000E+01 0. -1.
        -13    1    6    6    0    0  0.29013714004E+02  0.52354033822E+01 -0.81162075613E+02  0.86350955795E+02  0.00000000000E+00 0.  1.
         14    1    6    6    0    0  0.46663486541E+02  0.50384222255E+02 -0.14505353676E+02  0.70188717852E+02  0.00000000000E+00 0. -1.
         -5    1    3    3    0  503 -0.26260116549E+02 -0.23224969458E+02 -0.20278398585E+03  0.20584564082E+03  0.47000000000E+01 0.  1.
         11    1    4    4    0    0 -0.35763516244E+02  0.33830720031E+02 -0.25680191852E+02  0.55524940032E+02  0.00000000000E+00 0. -1.
        -12    1    4    4    0    0 -0.10299435076E+03 -0.22614161372E+02 -0.10228720546E+03  0.14690782479E+03  0.00000000000E+00 0.  1.
</event>
<event>
12    1  0.8356052E-002  0.1904585E+03  0.7818608E-02  0.1158541E+00
         21   -1    0    0  501  502  0.00000000000E+00  0.00000000000E+00  0.61831134000E+03  0.61831134000E+03  0.00000000000E+00 0.  1.
         21   -1    0    0  502  503 -0.00000000000E+00 -0.00000000000E+00 -0.84132049426E+02  0.84132049426E+02  0.00000000000E+00 0. -1.
         -6    2    1    2    0  503 -0.48695944249E+02  0.64454189682E+02  0.46389852196E+03  0.50147412315E+03  0.17247846229E+03 0.  0.
        -24    2    3    3    0    0 -0.22733578648E+01 -0.11369197039E+02  0.33080199567E+03  0.34134599379E+03  0.83382853997E+02 0.  0.
          6    2    1    2  501    0  0.48695944249E+02 -0.64454189682E+02  0.70280768611E+02  0.20096926628E+03  0.17006946227E+03 0.  0.
         24    2    5    5    0    0 -0.33935823605E+02 -0.57587413014E+02  0.34376105522E+02  0.11049055877E+03  0.80984545964E+02 0.  0.
          5    1    5    5  501    0  0.82631767854E+02 -0.68667766684E+01  0.35904663088E+02  0.90478707506E+02  0.47000000000E+01 0. -1.
        -13    1    6    6    0    0  0.15468290937E+02 -0.48065861231E+02  0.32684697860E+02  0.60148852978E+02  0.00000000000E+00 0.  1.
         14    1    6    6    0    0 -0.49404114543E+02 -0.95215517828E+01  0.16914076620E+01  0.50341705791E+02  0.00000000000E+00 0. -1.
         -5    1    3    3    0  503 -0.46422586384E+02  0.75823386721E+02  0.13309652629E+03  0.16012812936E+03  0.47000000000E+01 0.  1.
         11    1    4    4    0    0 -0.18380813703E+02 -0.33969773207E+02  0.78142332902E+02  0.87166644971E+02  0.00000000000E+00 0. -1.
        -12    1    4    4    0    0  0.16107455838E+02  0.22600576168E+02  0.25265966277E+03  0.25417934882E+03  0.00000000000E+00 0.  1.
</event>
<event>
12    1  0.8356052E-002  0.2604678E+03  0.7818608E-02  0.1107252E+00
         21   -1    0    0  503  502  0.00000000000E+00  0.00000000000E+00  0.44238485449E+03  0.44238485449E+03  0.00000000000E+00 0.  1.
         21   -1    0    0  501  503 -0.00000000000E+00 -0.00000000000E+00 -0.16502932519E+03  0.16502932519E+03  0.00000000000E+00 0. -1.
          6    2    1    2  501    0 -0.82195806266E+02  0.17398710919E+03  0.53455163958E+02  0.26589646337E+03  0.17554432473E+03 0.  0.
         24    2    3    3    0    0 -0.17708969038E+02  0.10550651819E+03  0.94769268462E+02  0.16305148901E+03  0.78481468252E+02 0.  0.
         -6    2    1    2    0  502  0.82195806266E+02 -0.17398710919E+03  0.22390036534E+03  0.34151771631E+03  0.17168375643E+03 0.  0.
        -24    2    5    5    0    0  0.69692470867E+02 -0.14716653248E+03  0.86632503090E+02  0.20101777774E+03  0.79924511861E+02 0.  0.
          5    1    3    3  501    0 -0.64486837228E+02  0.68480591001E+02 -0.41314104503E+02  0.10284497436E+03  0.47000000000E+01 0. -1.
        -11    1    4    4    0    0  0.11142042752E+02  0.21989355152E+02  0.65475345289E+02  0.69962116158E+02  0.00000000000E+00 0.  1.
         12    1    4    4    0    0 -0.28851011790E+02  0.83517163037E+02  0.29293923173E+02  0.93089372852E+02  0.00000000000E+00 0. -1.
         -5    1    5    5    0  502  0.12503335399E+02 -0.26820576705E+02  0.13726786225E+03  0.14049993857E+03  0.47000000000E+01 0.  1.
         13    1    6    6    0    0 -0.10499629993E+02 -0.53687488237E+02  0.45544223172E+02  0.71181914048E+02  0.00000000000E+00 0. -1.
        -14    1    6    6    0    0  0.80192100860E+02 -0.93479044247E+02  0.41088279918E+02  0.12983586369E+03  0.00000000000E+00 0.  1.
</event>
<event>
12    1  0.8356052E-002  0.2374435E+03  0.7818608E-02  0.1121581E+00
         21   -1    0    0  501  502  0.00000000000E+00  0.00000000000E+00  0.26005944755E+02  0.26005944755E+02  0.00000000000E+00 0.  1.
         21   -1    0    0  502  503 -0.00000000000E+00 -0.00000000000E+00 -0.28963355731E+04  0.28963355731E+04  0.00000000000E+00 0.  1.
         -6    2    1    2    0  503 -0.68317005442E+02  0.14780385353E+03 -0.21708743681E+04  0.21838211821E+04  0.17281852030E+03 0.  0.
        -24    2    3    3    0    0 -0.94087446372E+02  0.13551429714E+03 -0.13412909994E+04  0.13537333527E+04  0.79472466675E+02 0.  0.
          6    2    1    2  501    0  0.68317005442E+02 -0.14780385353E+03 -0.69945526026E+03  0.73852033578E+03  0.17222494852E+03 0.  0.
         24    2    5    5    0    0  0.26166936444E+02 -0.13520276718E+03 -0.66256352509E+03  0.68091386203E+03  0.75423908036E+02 0.  0.
          5    1    5    5  501    0  0.42150068999E+02 -0.12601086350E+02 -0.36891735173E+02  0.57606473750E+02  0.47000000000E+01 0. -1.
        -13    1    6    6    0    0 -0.13065570947E+02 -0.40552944655E+02 -0.94172769205E+02  0.10336227999E+03  0.00000000000E+00 0.  1.
         14    1    6    6    0    0  0.39232507390E+02 -0.94649822522E+02 -0.56839075589E+03  0.57755158204E+03  0.00000000000E+00 0. -1.
         -5    1    3    3    0  503  0.25770440930E+02  0.12289556387E+02 -0.82958336874E+03  0.83008782939E+03  0.47000000000E+01 0.  1.
         13    1    4    4    0    0 -0.15041580555E+02  0.40731609473E+01 -0.33136436201E+02  0.36617798811E+02  0.00000000000E+00 0. -1.
        -14    1    4    4    0    0 -0.79045865817E+02  0.13144113619E+03 -0.13081545632E+04  0.13171155539E+04  0.00000000000E+00 0.  1.
</event>
<event>
12    1  0.8356052E-002  0.1814739E+03  0.7818608E-02  0.1166584E+00
         21   -1    0    0  501  502  0.00000000000E+00  0.00000000000E+00  0.37379890496E+02  0.37379890496E+02  0.00000000000E+00 0.  1.
         21   -1    0    0  502  503 -0.00000000000E+00 -0.00000000000E+00 -0.14604241937E+04  0.14604241937E+04  0.00000000000E+00 0.  1.
         -6    2    1    2    0  503 -0.26352866563E+02 -0.48613790876E+02 -0.11838883176E+04  0.11975902282E+04  0.17196811304E+03 0.  0.
        -24    2    3    3    0    0  0.10711136089E+02  0.17580810752E+02 -0.31400589783E+03  0.32439324023E+03  0.78787417107E+02 0.  0.
          6    2    1    2  501    0  0.26352866563E+02  0.48613790876E+02 -0.23915598559E+03  0.30021385598E+03  0.17284385913E+03 0.  0.
         24    2    5    5    0    0 -0.50881269764E+02  0.48099150161E+02 -0.13590308312E+03  0.17118429139E+03  0.77019359633E+02 0.  0.
          5    1    5    5  501    0  0.77234136327E+02  0.51464071492E+00 -0.10325290247E+03  0.12902956459E+03  0.47000000000E+01 0. -1.
        -11    1    6    6    0    0 -0.55228753260E+02 -0.56373169055E+00 -0.71961718178E+02  0.90713956276E+02  0.00000000000E+00 0.  1.
         12    1    6    6    0    0  0.43474834954E+01  0.48662881851E+02 -0.63941364945E+02  0.80470335117E+02  0.00000000000E+00 0. -1.
         -5    1    3    3    0  503 -0.37064002652E+02 -0.66194601627E+02 -0.86988241981E+03  0.87319698802E+03  0.47000000000E+01 0.  1.
         13    1    4    4    0    0 -0.34176591138E+02  0.11864320563E+02 -0.13772730171E+03  0.14239947724E+03  0.00000000000E+00 0. -1.
        -14    1    4    4    0    0  0.44887727227E+02  0.57164901888E+01 -0.17627859613E+03  0.18199376299E+03  0.00000000000E+00 0.  1.
</event>
<event>
12    1  0.8356052E-002  0.2309788E+03  0.7818608E-02  0.1126026E+00
         21   -1    0    0  501  502  0.00000000000E+00  0.00000000000E+00  0.64915996126E+03  0.64915996126E+03  0.00000000000E+00 0. -1.
         21   -1    0    0  502  503 -0.00000000000E+00 -0.00000000000E+00 -0.11210350937E+03  0.11210350937E+03  0.00000000000E+00 0. -1.
         -6    2    1    2    0  503 -0.25458279281E+01 -0.15299902501E+03  0.71580661298E+02  0.24181600512E+03  0.17302024844E+03 0.  0.
        -24    2    3    3    0    0 -0.46326523212E+02 -0.10083222171E+03  0.68725170939E+01  0.14775560659E+03  0.97320111491E+02 0.  0.
          6    2    1    2  501    0  0.25458279281E+01  0.15299902501E+03  0.46547579059E+03  0.51944746550E+03  0.17246093730E+03 0.  0.
         24    2    5    5    0    0 -0.11501354371E+02  0.34726256553E+02  0.90987245256E+02  0.12644678907E+03  0.79824292168E+02 0.  0.
          5    1    5    5  501    0  0.14047182299E+02  0.11827276845E+03  0.37448854534E+03  0.39300067643E+03  0.47000000000E+01 0. -1.
        -13    1    6    6    0    0 -0.32434872120E+02  0.10969866159E+02  0.88256707361E+02  0.94665755620E+02  0.00000000000E+00 0.  1.
         14    1    6    6    0    0  0.20933517749E+02  0.23756390394E+02  0.27305378958E+01  0.31781033449E+02  0.00000000000E+00 0. -1.
         -5    1    3    3    0  503  0.43780695284E+02 -0.52166803301E+02  0.64708144204E+02  0.94060398535E+02  0.47000000000E+01 0.  1.
         13    1    4    4    0    0 -0.31139024769E+02 -0.10617155444E+03  0.34398477328E+02  0.11586756698E+03  0.00000000000E+00 0. -1.
        -14    1    4    4    0    0 -0.15187498443E+02  0.53393327377E+01 -0.27525960234E+02  0.31888039605E+02  0.00000000000E+00 0.  1.
</event>
<event>
12    1  0.8356052E-002  0.1763100E+03  0.7818608E-02  0.1171794E+00
         21   -1    0    0  501  502  0.00000000000E+00  0.00000000000E+00  0.36263677298E+02  0.36263677298E+02  0.00000000000E+00 0.  1.
         21   -1    0    0  502  503 -0.00000000000E+00 -0.00000000000E+00 -0.88184389401E+03  0.88184389401E+03  0.00000000000E+00 0.  1.
         -6    2    1    2    0  503 -0.23320387570E+02 -0.21477189987E+02 -0.51176629481E+03  0.54128546255E+03  0.17343615915E+03 0.  0.
        -24    2    3    3    0    0 -0.66987526340E+01 -0.81447408381E+02 -0.35139826599E+03  0.36920205106E+03  0.78427415796E+02 0.  0.
          6    2    1    2  501    0  0.23320387570E+02  0.21477189987E+02 -0.33381392190E+03  0.37682210876E+03  0.17192456784E+03 0.  0.
         24    2    5    5    0    0 -0.47976284445E+02 -0.65775129750E+00 -0.23271836646E+03  0.25106212945E+03  0.81069095521E+02 0.  0.
          5    1    5    5  501    0  0.71296672015E+02  0.22134941284E+02 -0.10109555544E+03  0.12575997931E+03  0.47000000000E+01 0. -1.
        -13    1    6    6    0    0 -0.43954476368E+02 -0.36852496817E+02 -0.15374728390E+03  0.16409853693E+03  0.00000000000E+00 0.  1.
         14    1    6    6    0    0 -0.40218080765E+01  0.36194745520E+02 -0.78971082563E+02  0.86963592524E+02  0.00000000000E+00 0. -1.
         -5    1    3    3    0  503 -0.16621634936E+02  0.59970218394E+02 -0.16036802882E+03  0.17208341149E+03  0.47000000000E+01 0.  1.
         13    1    4    4    0    0 -0.25761569154E+01  0.67681132632E+00 -0.17018105601E+03  0.17020189917E+03  0.00000000000E+00 0. -1.
        -14    1    4    4    0    0 -0.41225957186E+01 -0.82124219707E+02 -0.18121720998E+03  0.19900015189E+03  0.00000000000E+00 0.  1.
</event>
<event>
12    1  0.8356052E-002  0.2129142E+03  0.7818608E-02  0.1139564E+00
         21   -1    0    0  503  502  0.00000000000E+00  0.00000000000E+00  0.59856574239E+03  0.59856574239E+03  0.00000000000E+00 0.  1.
         21   -1    0    0  501  503 -0.00000000000E+00 -0.00000000000E+00 -0.81185191175E+02  0.81185191175E+02  0.00000000000E+00 0. -1.
          6    2    1    2  501    0  0.83311197670E+02 -0.91127398009E+02  0.16736452223E+03  0.27081972282E+03  0.17345743179E+03 0.  0.
         24    2    3    3    0    0  0.67633570945E+02 -0.40925214294E+02  0.18500065225E+03  0.21514953052E+03  0.76255531383E+02 0.  0.
         -6    2    1    2    0  502 -0.83311197670E+02  0.91127398009E+02  0.35001602899E+03  0.40893121074E+03  0.17166407967E+03 0.  0.
        -24    2    5    5    0    0  0.90178058457E+01  0.53021162440E+02  0.24784463067E+03  0.26597032549E+03  0.80129199416E+02 0.  0.
          5    1    3    3  501    0  0.15677626725E+02 -0.50202183715E+02 -0.17636130016E+02  0.55670192306E+02  0.47000000000E+01 0. -1.
        -13    1    4    4    0    0  0.41342036698E+02 -0.55758003499E+02  0.16481494445E+03  0.17883535687E+03  0.00000000000E+00 0.  1.
         14    1    4    4    0    0  0.26291534247E+02  0.14832789205E+02  0.20185707802E+02  0.36314173653E+02  0.00000000000E+00 0. -1.
         -5    1    5    5    0  502 -0.92329003516E+02  0.38106235569E+02  0.10217139832E+03  0.14296088526E+03  0.47000000000E+01 0.  1.
         13    1    6    6    0    0  0.23306794315E+02  0.35802739738E+02  0.45575378381E+02  0.62467255010E+02  0.00000000000E+00 0. -1.
        -14    1    6    6    0    0 -0.14288988469E+02  0.17218422702E+02  0.20226925229E+03  0.20350307048E+03  0.00000000000E+00 0.  1.
</event>
<event>
12    1  0.8356052E-002  0.2204757E+03  0.7818608E-02  0.1133690E+00
         21   -1    0    0  503  502  0.00000000000E+00  0.00000000000E+00  0.69344098156E+02  0.69344098156E+02  0.00000000000E+00 0. -1.
         21   -1    0    0  501  503 -0.00000000000E+00 -0.00000000000E+00 -0.84791187447E+03  0.84791187447E+03  0.00000000000E+00 0. -1.
          6    2    1    2  501    0  0.62364277179E+02  0.12392286709E+03 -0.58133688817E+03  0.62143586535E+03  0.17024622502E+03 0.  0.
         24    2    3    3    0    0  0.95541843184E+02  0.57606067735E+02 -0.29691614360E+03  0.32747001919E+03  0.81429198082E+02 0.  0.
         -6    2    1    2    0  502 -0.62364277179E+02 -0.12392286709E+03 -0.19723088815E+03  0.29582010728E+03  0.17135732426E+03 0.  0.
        -24    2    5    5    0    0 -0.67949381978E+02 -0.17358432801E+02 -0.58462637499E+02  0.12070331929E+03  0.78949209006E+02 0.  0.
          5    1    3    3  501    0 -0.33177566004E+02  0.66316799357E+02 -0.28442074457E+03  0.29396584615E+03  0.47000000000E+01 0. -1.
        -11    1    4    4    0    0  0.99228018630E+01 -0.97465786109E+01 -0.11193463599E+03  0.11279548096E+03  0.00000000000E+00 0.  1.
         12    1    4    4    0    0  0.85619041321E+02  0.67352646345E+02 -0.18498150762E+03  0.21467453824E+03  0.00000000000E+00 0. -1.
         -5    1    5    5    0  502  0.55851047987E+01 -0.10656443429E+03 -0.13876825065E+03  0.17511678800E+03  0.47000000000E+01 0.  1.
         11    1    6    6    0    0  0.10892564207E+02 -0.24040370602E+02 -0.16715170111E+02  0.31240747199E+02  0.00000000000E+00 0. -1.
        -12    1    6    6    0    0 -0.78841946185E+02  0.66819378012E+01 -0.41747467388E+02  0.89462572087E+02  0.00000000000E+00 0.  1.
</event>
<event>
12    1  0.8356052E-002  0.1843536E+03  0.7818608E-02  0.1164437E+00
         21   -1    0    0  501  502  0.00000000000E+00  0.00000000000E+00  0.88441903380E+02  0.88441903380E+02  0.00000000000E+00 0.  1.
         21   -1    0    0  502  503 -0.00000000000E+00 -0.00000000000E+00 -0.47400839529E+03  0.47400839529E+03  0.00000000000E+00 0.  1.
         -6    2    1    2    0  503  0.43251279257E+02 -0.43093735370E+02 -0.32111039008E+03  0.37026765142E+03  0.17394972805E+03 0.  0.
        -24    2    3    3    0    0  0.43804723260E+02 -0.44865554261E+02 -0.33808658493E+03  0.35255531577E+03  0.77852039379E+02 0.  0.
          6    2    1    2  501    0 -0.43251279257E+02  0.43093735370E+02 -0.64456101838E+02  0.19218264725E+03  0.17044599630E+03 0.  0.
         24    2    5    5    0    0 -0.15772163559E+02  0.91356391663E+02 -0.60652937849E+02  0.13631727472E+03  0.79428389612E+02 0.  0.
          5    1    5    5  501    0 -0.27479115699E+02 -0.48262656293E+02 -0.38031639887E+01  0.55865372534E+02  0.47000000000E+01 0. -1.
        -13    1    6    6    0    0  0.31871635564E+02  0.47285038198E+02 -0.31801955944E+02  0.65291962697E+02  0.00000000000E+00 0.  1.
         14    1    6    6    0    0 -0.47643799123E+02  0.44071353465E+02 -0.28850981905E+02  0.71025312023E+02  0.00000000000E+00 0. -1.
         -5    1    3    3    0  503 -0.55344400269E+00  0.17718188909E+01  0.16976194849E+02  0.17712335645E+02  0.47000000000E+01 0.  1.
         11    1    4    4    0    0  0.12946908333E+01  0.13355595320E+02 -0.10246850162E+02  0.16883307998E+02  0.00000000000E+00 0. -1.
        -12    1    4    4    0    0  0.42510032427E+02 -0.58221149581E+02 -0.32783973476E+03  0.33567200778E+03  0.00000000000E+00 0.  1.
</event>
<event>
12    1  0.8356052E-002  0.1904394E+03  0.7818608E-02  0.1160817E+00
         21   -1    0    0  503  502  0.00000000000E+00  0.00000000000E+00  0.91298542460E+03  0.91298542460E+03  0.00000000000E+00 0. -1.
         21   -1    0    0  501  503 -0.00000000000E+00 -0.00000000000E+00 -0.71048632972E+02  0.71048632972E+02  0.00000000000E+00 0. -1.
          6    2    1    2  501    0 -0.65578587674E+02 -0.41361730080E+02  0.74850289198E+02  0.19366143929E+03  0.16090631871E+03 0.  0.
         24    2    3    3    0    0 -0.36124749098E+02 -0.64592708594E+02  0.10104496353E+03  0.14766733171E+03  0.78219822928E+02 0.  0.
         -6    2    1    2    0  502  0.65578587674E+02  0.41361730080E+02  0.76708650243E+03  0.79037261828E+03  0.17394202953E+03 0.  0.
        -24    2    5    5    0    0  0.10021021272E+03  0.20800000334E+02  0.40873213028E+03  0.42973141123E+03  0.84453565495E+02 0.  0.
          5    1    3    3  501    0 -0.29453838576E+02  0.23230978514E+02 -0.26194674327E+02  0.45994107586E+02  0.47000000000E+01 0. -1.
        -11    1    4    4    0    0  0.61068044560E+01  0.70839700528E+01 -0.67271036481E+01  0.11520833992E+02  0.00000000000E+00 0.  1.
         12    1    4    4    0    0 -0.42231553554E+02 -0.71676678647E+02  0.10777206717E+03  0.13614649772E+03  0.00000000000E+00 0. -1.
         -5    1    5    5    0  502 -0.34631625047E+02  0.20561729747E+02  0.35835437215E+03  0.36064120705E+03  0.47000000000E+01 0.  1.
         11    1    6    6    0    0  0.27448879240E+02 -0.10487151357E+02  0.27119045514E+02  0.39985796787E+02  0.00000000000E+00 0. -1.
        -12    1    6    6    0    0  0.72761333481E+02  0.31287151691E+02  0.38161308477E+03  0.38974561444E+03  0.00000000000E+00 0.  1.
</event>
<event>
12    1  0.8356052E-002  0.1962913E+03  0.7818608E-02  0.1152943E+00
         21   -1    0    0  501  502  0.00000000000E+00  0.00000000000E+00  0.14270599504E+04  0.14270599504E+04  0.00000000000E+00 0. -1.
         21   -1    0    0  502  503 -0.00000000000E+00 -0.00000000000E+00 -0.27436982237E+02  0.27436982237E+02  0.00000000000E+00 0. -1.
         -6    2    1    2    0  503 -0.48101821436E+02  0.80264925229E+02  0.79375674713E+03  0.81762634368E+03  0.17235666744E+03 0.  0.
        -24    2    3    3    0    0 -0.98595861869E+02  0.45234261556E+02  0.52949725161E+03  0.54627423573E+03  0.79252247663E+02 0.  0.
          6    2    1    2  501    0  0.48101821436E+02 -0.80264925229E+02  0.60586622100E+03  0.63687058893E+03  0.17255151650E+03 0.  0.
         24    2    5    5    0    0  0.33414724781E+02  0.23616119118E+02  0.32693476471E+03  0.33882389881E+03  0.79000184263E+02 0.  0.
          5    1    5    5  501    0  0.14687096655E+02 -0.10388104435E+03  0.27893145629E+03  0.29804669012E+03  0.47000000000E+01 0. -1.
        -13    1    6    6    0    0  0.28459831061E+02  0.17575018340E+01  0.31300121012E+02  0.42340859369E+02  0.00000000000E+00 0.  1.
         14    1    6    6    0    0  0.49548937204E+01  0.21858617284E+02  0.29563464370E+03  0.29648303944E+03  0.00000000000E+00 0. -1.
         -5    1    3    3    0  503  0.50494040433E+02  0.35030663673E+02  0.26425949552E+03  0.27135210795E+03  0.47000000000E+01 0.  1.
         11    1    4    4    0    0  0.50883717619E+01 -0.13932052699E+02  0.66573887490E+02  0.68206129601E+02  0.00000000000E+00 0. -1.
        -12    1    4    4    0    0 -0.10368423363E+03  0.59166314255E+02  0.46292336412E+03  0.47806810613E+03  0.00000000000E+00 0.  1.
</event>
<event>
12    1  0.8356052E-002  0.3047657E+03  0.7818608E-02  0.1082982E+00
         21   -1    0    0  501  502  0.00000000000E+00  0.00000000000E+00  0.39573997037E+03  0.39573997037E+03  0.00000000000E+00 0.  1.
         21   -1    0    0  502  503 -0.00000000000E+00 -0.00000000000E+00 -0.27500626476E+03  0.27500626476E+03  0.00000000000E+00 0.  1.
         -6    2    1    2    0  503 -0.19986082764E+03 -0.15185352000E+03  0.18967497202E+03  0.35828015521E+03  0.17141829729E+03 0.  0.
        -24    2    3    3    0    0 -0.16292899327E+03 -0.18050508439E+03  0.14694202439E+03  0.29477371975E+03  0.78559817862E+02 0.  0.
          6    2    1    2  501    0  0.19986082764E+03  0.15185352000E+03 -0.68941266410E+02  0.31246607992E+03  0.17285343771E+03 0.  0.
         24    2    5    5    0    0  0.16840619355E+03  0.16699332570E+03 -0.96502852704E+02  0.26774093307E+03  0.78262314085E+02 0.  0.
          5    1    5    5  501    0  0.31454634083E+02 -0.15139805701E+02  0.27561586293E+02  0.44725146852E+02  0.47000000000E+01 0. -1.
        -13    1    6    6    0    0  0.75587252523E+02  0.12364559705E+03 -0.38199297006E+02  0.14986945221E+03  0.00000000000E+00 0.  1.
         14    1    6    6    0    0  0.92818941031E+02  0.43347728647E+02 -0.58303555698E+02  0.11787148086E+03  0.00000000000E+00 0. -1.
         -5    1    3    3    0  503 -0.36931834368E+02  0.28651564392E+02  0.42732947633E+02  0.63506435464E+02  0.47000000000E+01 0.  1.
         11    1    4    4    0    0 -0.70095467285E+01 -0.39741733720E+02  0.47609661393E+02  0.62411689629E+02  0.00000000000E+00 0. -1.
        -12    1    4    4    0    0 -0.15591944654E+03 -0.14076335067E+03  0.99332362999E+02  0.23236203012E+03  0.00000000000E+00 0.  1.
</event>
<event>
12    1  0.8356052E-002  0.2169050E+03  0.7818608E-02  0.1137038E+00
         21   -1    0    0  503  502  0.00000000000E+00  0.00000000000E+00  0.12503944388E+03  0.12503944388E+03  0.00000000000E+00 0.  1.
         21   -1    0    0  501  503 -0.00000000000E+00 -0.00000000000E+00 -0.60488287085E+03  0.60488287085E+03  0.00000000000E+00 0.  1.
          6    2    1    2  501    0 -0.11751602571E+03 -0.41045813423E+02 -0.46643832013E+03  0.51260350910E+03  0.17234522319E+03 0.  0.
         24    2    3    3    0    0 -0.89585286609E+02 -0.23813898263E+02 -0.46336137520E+03  0.47930752320E+03  0.80245326583E+02 0.  0.
         -6    2    1    2    0  502  0.11751602571E+03  0.41045813423E+02 -0.13405106837E+02  0.21731880563E+03  0.17763161681E+03 0.  0.
        -24    2    5    5    0    0  0.92550405893E+01 -0.14140241912E+02  0.26087100196E+02  0.89460814013E+02  0.83887414012E+02 0.  0.
          5    1    3    3  501    0 -0.27930739102E+02 -0.17231915161E+02 -0.30769449251E+01  0.33295985899E+02  0.47000000000E+01 0. -1.
        -13    1    4    4    0    0 -0.52773318314E+02 -0.55032909415E+01 -0.96293824238E+02  0.10994457660E+03  0.00000000000E+00 0.  1.
         14    1    4    4    0    0 -0.36811968295E+02 -0.18310607321E+02 -0.36706755097E+03  0.36936294660E+03  0.00000000000E+00 0. -1.
         -5    1    5    5    0  502  0.10826098512E+03  0.55186055336E+02 -0.39492207033E+02  0.12785799161E+03  0.47000000000E+01 0.  1.
         11    1    6    6    0    0  0.11834299486E+02  0.10640385420E+00 -0.29623271600E+02  0.31899846181E+02  0.00000000000E+00 0. -1.
        -12    1    6    6    0    0 -0.25792588965E+01 -0.14246645767E+02  0.55710371796E+02  0.57560967832E+02  0.00000000000E+00 0.  1.
</event>
<event>
12    1  0.8356052E-002  0.2917588E+03  0.7818608E-02  0.1089443E+00
         21   -1    0    0  503  502  0.00000000000E+00  0.00000000000E+00  0.17143081750E+03  0.17143081750E+03  0.00000000000E+00 0. -1.
         21   -1    0    0  501  503 -0.00000000000E+00 -0.00000000000E+00 -0.49904289008E+03  0.49904289008E+03  0.00000000000E+00 0.  1.
          6    2    1    2  501    0  0.83624833752E+02  0.21974621025E+03 -0.18805082345E+03  0.34705360165E+03  0.17263134269E+03 0.  0.
         24    2    3    3    0    0  0.24322415809E+02  0.10829526609E+03 -0.26453613935E+02  0.14193451953E+03  0.84416642762E+02 0.  0.
         -6    2    1    2    0  502 -0.83624833752E+02 -0.21974621025E+03 -0.13956124913E+03  0.32342010592E+03  0.17274754099E+03 0.  0.
        -24    2    5    5    0    0 -0.37562883915E+02 -0.18133131291E+03 -0.37767473237E+02  0.20517683816E+03  0.79869503527E+02 0.  0.
          5    1    3    3  501    0  0.59302417943E+02  0.11145094416E+03 -0.16159720951E+03  0.20511908212E+03  0.47000000000E+01 0. -1.
        -13    1    4    4    0    0  0.26389259541E+02  0.18123303281E+01  0.11537851352E+02  0.28858266999E+02  0.00000000000E+00 0.  1.
         14    1    4    4    0    0 -0.20668437319E+01  0.10648293576E+03 -0.37991465287E+02  0.11307625253E+03  0.00000000000E+00 0. -1.
         -5    1    5    5    0  502 -0.46061949837E+02 -0.38414897341E+02 -0.10179377589E+03  0.11824326776E+03  0.47000000000E+01 0.  1.
         13    1    6    6    0    0 -0.56712085706E+02 -0.11713450156E+03 -0.41123251792E+01  0.13020623387E+03  0.00000000000E+00 0. -1.
        -14    1    6    6    0    0  0.19149201791E+02 -0.64196811351E+02 -0.33655148057E+02  0.74970604291E+02  0.00000000000E+00 0.  1.
</event>
<event>
12    1  0.8356052E-002  0.2391405E+03  0.7818608E-02  0.1120456E+00
         21   -1    0    0  503  502  0.00000000000E+00  0.00000000000E+00  0.82627145714E+02  0.82627145714E+02  0.00000000000E+00 0. -1.
         21   -1    0    0  501  503 -0.00000000000E+00 -0.00000000000E+00 -0.11622435400E+04  0.11622435400E+04  0.00000000000E+00 0.  1.
          6    2    1    2  501    0  0.29980179945E+02  0.16214288662E+03 -0.93668420623E+03  0.96672928201E+03  0.17320241228E+03 0.  0.
         24    2    3    3    0    0 -0.18893309846E+02  0.15213252039E+03 -0.84078008328E+03  0.85852338459E+03  0.81547486402E+02 0.  0.
         -6    2    1    2    0  502 -0.29980179945E+02 -0.16214288662E+03 -0.14293218801E+03  0.27814140366E+03  0.17246420843E+03 0.  0.
        -24    2    5    5    0    0 -0.58789289347E+02 -0.43755993163E+02 -0.33258139784E+02  0.11414168359E+03  0.80941043925E+02 0.  0.
          5    1    3    3  501    0  0.48873489791E+02  0.10010366232E+02 -0.95904122954E+02  0.10820589742E+03  0.47000000000E+01 0. -1.
        -13    1    4    4    0    0 -0.22398789440E+02  0.41550142687E+02 -0.44732971982E+03  0.44981329278E+03  0.00000000000E+00 0.  1.
         14    1    4    4    0    0  0.35054795942E+01  0.11058237771E+03 -0.39345036346E+03  0.40871009181E+03  0.00000000000E+00 0. -1.
         -5    1    5    5    0  502  0.28809109403E+02 -0.11838689346E+03 -0.10967404822E+03  0.16399972007E+03  0.47000000000E+01 0.  1.
         13    1    6    6    0    0  0.80597581633E+01  0.74483337531E+01 -0.27650809389E+02  0.29749027500E+02  0.00000000000E+00 0. -1.
        -14    1    6    6    0    0 -0.66849047511E+02 -0.51204326916E+02 -0.56073303954E+01  0.84392656091E+02  0.00000000000E+00 0.  1.
</event>
<event>
12    1  0.8356052E-002  0.2040782E+03  0.7818608E-02  0.1146368E+00
         21   -1    0    0  503  502  0.00000000000E+00  0.00000000000E+00  0.28010275916E+03  0.28010275916E+03  0.00000000000E+00 0. -1.
         21   -1    0    0  501  503 -0.00000000000E+00 -0.00000000000E+00 -0.15534251420E+03  0.15534251420E+03  0.00000000000E+00 0. -1.
          6    2    1    2  501    0  0.79809098980E+02 -0.75023138443E+02  0.17006355037E+02  0.20466657058E+03  0.17205006660E+03 0.  0.
         24    2    3    3    0    0 -0.15898181896E+01  0.17348107379E+01  0.41561058236E+02  0.90025435165E+02  0.79823056349E+02 0.  0.
         -6    2    1    2    0  502 -0.79809098980E+02  0.75023138443E+02  0.10775388993E+03  0.23077870278E+03  0.17219159469E+03 0.  0.
        -24    2    5    5    0    0 -0.11672723145E+03  0.37310878330E+02  0.55189237827E+02  0.15614428902E+03  0.79484833882E+02 0.  0.
          5    1    3    3  501    0  0.81398917170E+02 -0.76757949181E+02 -0.24554703200E+02  0.11464113541E+03  0.47000000000E+01 0. -1.
        -11    1    4    4    0    0  0.36692611723E+02 -0.69019990841E+01  0.33062946141E+02  0.49871271831E+02  0.00000000000E+00 0.  1.
         12    1    4    4    0    0 -0.38282429913E+02  0.86368098220E+01  0.84981120949E+01  0.40154163335E+02  0.00000000000E+00 0. -1.
         -5    1    5    5    0  502  0.36918132468E+02  0.37712260113E+02  0.52564652100E+02  0.74634413766E+02  0.47000000000E+01 0.  1.
         11    1    6    6    0    0 -0.26502937868E+02  0.27430944766E+02  0.53071060443E+02  0.65355947724E+02  0.00000000000E+00 0. -1.
        -12    1    6    6    0    0 -0.90224293580E+02  0.98799335633E+01  0.21181773845E+01  0.90788341292E+02  0.00000000000E+00 0.  1.
</event>
<event>
12    1  0.8356052E-002  0.2526491E+03  0.7818608E-02  0.1111706E+00
         21   -1    0    0  501  502  0.00000000000E+00  0.00000000000E+00  0.14570629715E+03  0.14570629715E+03  0.00000000000E+00 0. -1.
         21   -1    0    0  502  503 -0.00000000000E+00 -0.00000000000E+00 -0.62043398244E+03  0.62043398244E+03  0.00000000000E+00 0.  1.
         -6    2    1    2    0  503  0.17282086264E+03  0.66977884539E+02 -0.44530544943E+03  0.51178379586E+03  0.17109243942E+03 0.  0.
        -24    2    3    3    0    0  0.93215176838E+02  0.90684510950E+01 -0.12046490671E+03  0.17232240499E+03  0.80074412357E+02 0.  0.
          6    2    1    2  501    0 -0.17282086264E+03 -0.66977884539E+02 -0.29422235853E+02  0.25435648373E+03  0.17169293891E+03 0.  0.
         24    2    5    5    0    0 -0.12666970982E+03  0.19427983244E+02 -0.34477412980E+02  0.15615491699E+03  0.82298263499E+02 0.  0.
          5    1    5    5  501    0 -0.46151152820E+02 -0.86405867784E+02  0.50551771267E+01  0.98201566738E+02  0.47000000000E+01 0. -1.
        -13    1    6    6    0    0 -0.44423958334E+02  0.33717352820E+02 -0.45468703131E+02  0.71956590523E+02  0.00000000000E+00 0.  1.
         14    1    6    6    0    0 -0.82245751488E+02 -0.14289369576E+02  0.10991290151E+02  0.84198326467E+02  0.00000000000E+00 0. -1.
         -5    1    3    3    0  503  0.79605685804E+02  0.57909433444E+02 -0.32484054272E+03  0.33946139087E+03  0.47000000000E+01 0.  1.
         11    1    4    4    0    0  0.74916428530E+02  0.12967444469E+02 -0.33007579610E+02  0.82886224377E+02  0.00000000000E+00 0. -1.
        -12    1    4    4    0    0  0.18298748308E+02 -0.38989933741E+01 -0.87457327100E+02  0.89436180612E+02  0.00000000000E+00 0.  1.
</event>
<event>
12    1  0.8356052E-002  0.1844972E+03  0.7818608E-02  0.1163665E+00
         21   -1    0    0  501  502  0.00000000000E+00  0.00000000000E+00  0.22212829010E+03  0.22212829010E+03  0.00000000000E+00 0. -1.
         21   -1    0    0  502  503 -0.00000000000E+00 -0.00000000000E+00 -0.19654809229E+03  0.19654809229E+03  0.00000000000E+00 0. -1.
         -6    2    1    2    0  503 -0.63300677366E+02 -0.23165256801E+01 -0.86037072127E+02  0.20357206833E+03  0.17328262226E+03 0.  0.
        -24    2    3    3    0    0 -0.30894157664E+02 -0.42753647007E+02  0.85909797736E+01  0.95581784010E+02  0.79244868547E+02 0.  0.
          6    2    1    2  501    0  0.63300677366E+02  0.23165256801E+01  0.11161726994E+03  0.21510431406E+03  0.17262418409E+03 0.  0.
         24    2    5    5    0    0 -0.17119283323E+02 -0.76008798101E+01  0.11228023306E+03  0.13393625058E+03  0.70577795713E+02 0.  0.
          5    1    5    5  501    0  0.80419960689E+02  0.99174054901E+01 -0.66296312288E+00  0.81168063480E+02  0.47000000000E+01 0. -1.
        -13    1    6    6    0    0  0.34043168386E+01 -0.13609386424E+02 -0.48701417876E+01  0.14850018619E+02  0.00000000000E+00 0.  1.
         14    1    6    6    0    0 -0.20523600162E+02  0.60085066136E+01  0.11715037485E+03  0.11908623196E+03  0.00000000000E+00 0. -1.
         -5    1    3    3    0  503 -0.32406519702E+02  0.40437121327E+02 -0.94628051900E+02  0.10799028432E+03  0.47000000000E+01 0.  1.
         13    1    4    4    0    0 -0.57841975945E+02 -0.25934840317E+02  0.44298074180E+01  0.63544734772E+02  0.00000000000E+00 0. -1.
        -14    1    4    4    0    0  0.26947818280E+02 -0.16818806689E+02  0.41611723556E+01  0.32037049238E+02  0.00000000000E+00 0.  1.
</event>
<event>
12    1  0.8356052E-002  0.2277530E+03  0.7818608E-02  0.1128598E+00
         21   -1    0    0  501  502  0.00000000000E+00  0.00000000000E+00  0.89091102709E+03  0.89091102709E+03  0.00000000000E+00 0. -1.
         21   -1    0    0  502  503 -0.00000000000E+00 -0.00000000000E+00 -0.16587208228E+03  0.16587208228E+03  0.00000000000E+00 0. -1.
         -6    2    1    2    0  503  0.78035198088E+02 -0.12335670771E+03 -0.64750424838E+02  0.23481069134E+03  0.17215421509E+03 0.  0.
        -24    2    3    3    0    0  0.49802769243E+02 -0.67003348990E+02 -0.10750055190E+03  0.15850581311E+03  0.81227824858E+02 0.  0.
          6    2    1    2  501    0 -0.78035198088E+02  0.12335670771E+03  0.78978936965E+03  0.82197241803E+03  0.17482859637E+03 0.  0.
         24    2    5    5    0    0  0.25944671016E+02  0.33234849221E+02  0.33869665939E+03  0.35033645056E+03  0.79009621915E+02 0.  0.
          5    1    5    5  501    0 -0.10397986910E+03  0.90121858488E+02  0.45109271026E+03  0.47163596746E+03  0.47000000000E+01 0. -1.
        -13    1    6    6    0    0  0.31378693098E+02  0.55514959567E+02  0.20507235622E+03  0.21475847923E+03  0.00000000000E+00 0.  1.
         14    1    6    6    0    0 -0.54340220810E+01 -0.22280110346E+02  0.13362430317E+03  0.13557797134E+03  0.00000000000E+00 0. -1.
         -5    1    3    3    0  503  0.28232428846E+02 -0.56353358719E+02  0.42750127063E+02  0.76304878228E+02  0.47000000000E+01 0.  1.
         11    1    4    4    0    0  0.65309092628E+02 -0.22446899728E+02 -0.58790169410E+02  0.90694128292E+02  0.00000000000E+00 0. -1.
        -12    1    4    4    0    0 -0.15506323385E+02 -0.44556449262E+02 -0.48710382491E+02  0.67811684821E+02  0.00000000000E+00 0.  1.
</event>
<event>
12    1  0.8356052E-002  0.1968368E+03  0.7818608E-02  0.1152639E+00
         21   -1    0    0  501  502  0.00000000000E+00  0.00000000000E+00  0.10673639979E+03  0.10673639979E+03  0.00000000000E+00 0.  1.
         21   -1    0    0  502  503 -0.00000000000E+00 -0.00000000000E+00 -0.38503238062E+03  0.38503238062E+03  0.00000000000E+00 0.  1.
         -6    2    1    2    0  503 -0.93898085587E+02  0.89243984582E+01 -0.77730801347E+02  0.21075075650E+03  0.17168957022E+03 0.  0.
        -24    2    3    3    0    0 -0.20264329454E+02 -0.45437804284E+02 -0.29646242046E+01  0.92474595019E+02  0.77894317000E+02 0.  0.
          6    2    1    2  501    0  0.93898085587E+02 -0.89243984582E+01 -0.20056517949E+03  0.28101802391E+03  0.17276644111E+03 0.  0.
         24    2    5    5    0    0  0.67582005085E+02 -0.65827781224E+02 -0.94120794112E+02  0.15739347845E+03  0.83745799781E+02 0.  0.
          5    1    5    5  501    0  0.26316080502E+02  0.56903382766E+02 -0.10644438538E+03  0.12362454546E+03  0.47000000000E+01 0. -1.
        -11    1    6    6    0    0  0.39532510987E+02  0.43370385291E+01 -0.65425808770E+02  0.76564781599E+02  0.00000000000E+00 0.  1.
         12    1    6    6    0    0  0.28049494098E+02 -0.70164819753E+02 -0.28694985342E+02  0.80828696847E+02  0.00000000000E+00 0. -1.
         -5    1    3    3    0  503 -0.73633756133E+02  0.54362202742E+02 -0.74766177143E+02  0.11827616148E+03  0.47000000000E+01 0.  1.
         11    1    4    4    0    0  0.39524504334E+00 -0.55766088479E+02 -0.24484484995E+02  0.60905688144E+02  0.00000000000E+00 0. -1.
        -12    1    4    4    0    0 -0.20659574498E+02  0.10328284194E+02  0.21519860791E+02  0.31568906875E+02  0.00000000000E+00 0.  1.
</event>
<event>
12    1  0.8356052E-002  0.1936690E+03  0.7818608E-02  0.1155279E+00
         21   -1    0    0  503  502  0.00000000000E+00  0.00000000000E+00  0.32144454417E+03  0.32144454417E+03  0.00000000000E+00 0.  1.
         21   -1    0    0  501  503 -0.00000000000E+00 -0.00000000000E+00 -0.13638272812E+03  0.13638272812E+03  0.00000000000E+00 0.  1.
          6    2    1    2  501    0  0.13360232544E+02  0.88882521441E+02  0.49377011953E+01  0.19334218137E+03  0.17110879514E+03 0.  0.
         24    2    3    3    0    0 -0.35871198295E+02 -0.11998513830E+01  0.24044350076E+02  0.88816004232E+02  0.77601348743E+02 0.  0.
         -6    2    1    2    0  502 -0.13360232544E+02 -0.88882521441E+02  0.18012411485E+03  0.26448509091E+03  0.17154902545E+03 0.  0.
        -24    2    5    5    0    0 -0.59157662328E+02 -0.20491932082E+01  0.88701324892E+02  0.13025525820E+03  0.74797587165E+02 0.  0.
          5    1    3    3  501    0  0.49231430839E+02  0.90082372824E+02 -0.19106648881E+02  0.10452617714E+03  0.47000000000E+01 0. -1.
        -11    1    4    4    0    0 -0.20055311770E+02 -0.41212927436E+01  0.52377034339E+02  0.56236592271E+02  0.00000000000E+00 0.  1.
         12    1    4    4    0    0 -0.15815886525E+02  0.29214413607E+01 -0.28332684263E+02  0.32579411961E+02  0.00000000000E+00 0. -1.
         -5    1    5    5    0  502  0.45797429783E+02 -0.86833328233E+02  0.91422789960E+02  0.13422983272E+03  0.47000000000E+01 0.  1.
         11    1    6    6    0    0  0.12393033758E+02  0.77113944670E+01 -0.15399308874E+01  0.14677338911E+02  0.00000000000E+00 0. -1.
        -12    1    6    6    0    0 -0.71550696086E+02 -0.97605876752E+01  0.90241255779E+02  0.11557791929E+03  0.00000000000E+00 0.  1.
</event>
<event>
12    1  0.8356052E-002  0.1975390E+03  0.7818608E-02  0.1152965E+00
         21   -1    0    0  503  502  0.00000000000E+00  0.00000000000E+00  0.29811105973E+03  0.29811105973E+03  0.00000000000E+00 0. -1.
         21   -1    0    0  501  503 -0.00000000000E+00 -0.00000000000E+00 -0.22176479281E+03  0.22176479281E+03  0.00000000000E+00 0.  1.
          6    2    1    2  501    0  0.85274336631E+02  0.77887577822E+01 -0.13161376350E+03  0.23305007966E+03  0.17221434217E+03 0.  0.
         24    2    3    3    0    0  0.11670044985E+03  0.38651096514E+02 -0.90617557764E+02  0.17269394137E+03  0.80614845745E+02 0.  0.
         -6    2    1    2    0  502 -0.85274336631E+02 -0.77887577822E+01  0.20796003042E+03  0.28682577289E+03  0.17801480979E+03 0.  0.
        -24    2    5    5    0    0 -0.51146644482E+02 -0.44599241209E+02  0.41379562357E+02  0.11278309593E+03  0.80016791923E+02 0.  0.
          5    1    3    3  501    0 -0.31426113219E+02 -0.30862338732E+02 -0.40996205733E+02  0.60356138284E+02  0.47000000000E+01 0. -1.
        -13    1    4    4    0    0  0.36159860781E+02  0.33400038515E+02 -0.76181862864E+02  0.90701567428E+02  0.00000000000E+00 0.  1.
         14    1    4    4    0    0  0.80540589069E+02  0.52510579987E+01 -0.14435694901E+02  0.81992373944E+02  0.00000000000E+00 0. -1.
         -5    1    5    5    0  502 -0.34127692149E+02  0.36810483426E+02  0.16658046806E+03  0.17404267695E+03  0.47000000000E+01 0.  1.
         13    1    6    6    0    0  0.50518334407E+01  0.14547128754E+02  0.25311893337E+02  0.29628228438E+02  0.00000000000E+00 0. -1.
        -14    1    6    6    0    0 -0.56198477922E+02 -0.59146369963E+02  0.16067669020E+02  0.83154867496E+02  0.00000000000E+00 0.  1.
</event>
<event>
12    1  0.8356052E-002  0.5753268E+03  0.7818608E-02  0.9958072E-01
         21   -1    0    0  501  502  0.00000000000E+00  0.00000000000E+00  0.32247547048E+03  0.32247547048E+03  0.00000000000E+00 0. -1.
         21   -1    0    0  502  503 -0.00000000000E+00 -0.00000000000E+00 -0.31145380523E+04  0.31145380523E+04  0.00000000000E+00 0. -1.
         -6    2    1    2    0  503 -0.34949920555E+03 -0.42349156099E+03 -0.28033535664E+04  0.28617812972E+04  0.17177362432E+03 0.  0.
        -24    2    3    3    0    0 -0.34052344770E+03 -0.38306958917E+03 -0.27151428590E+04  0.27642224999E+04  0.78909794247E+02 0.  0.
          6    2    1    2  501    0  0.34949920555E+03  0.42349156099E+03  0.11290984551E+02  0.57523222559E+03  0.17108427780E+03 0.  0.
         24    2    5    5    0    0  0.12682322863E+03  0.13046324899E+03 -0.40057922899E+02  0.20360205643E+03  0.82124110575E+02 0.  0.
          5    1    5    5  501    0  0.22267597692E+03  0.29302831200E+03  0.51348907450E+02  0.37163016916E+03  0.47000000000E+01 0. -1.
        -13    1    6    6    0    0  0.10538154789E+03  0.13293921295E+03 -0.53855606238E+02  0.17798463782E+03  0.00000000000E+00 0.  1.
         14    1    6    6    0    0  0.21441680743E+02 -0.24759639671E+01  0.13797683339E+02  0.25617418608E+02  0.00000000000E+00 0. -1.
         -5    1    3    3    0  503 -0.89757578498E+01 -0.40421971820E+02 -0.88210707378E+02  0.97558797301E+02  0.47000000000E+01 0.  1.
         11    1    4    4    0    0 -0.16744740698E+03 -0.24626531178E+03 -0.15250993259E+04  0.15539025683E+04  0.00000000000E+00 0. -1.
        -12    1    4    4    0    0 -0.17307604073E+03 -0.13680427739E+03 -0.11900435331E+04  0.12103199316E+04  0.00000000000E+00 0.  1.
</event>
<event>
12    1  0.8356052E-002  0.2469779E+03  0.7818608E-02  0.1115453E+00
         21   -1    0    0  503  502  0.00000000000E+00  0.00000000000E+00  0.14304728067E+03  0.14304728067E+03  0.00000000000E+00 0. -1.
         21   -1    0    0  501  503 -0.00000000000E+00 -0.00000000000E+00 -0.42446657467E+03  0.42446657467E+03  0.00000000000E+00 0.  1.
          6    2    1    2  501    0  0.11597104437E+03 -0.13422588369E+03 -0.14945834473E+03  0.28749278735E+03  0.16984827048E+03 0.  0.
         24    2    3    3    0    0  0.92684346643E+02 -0.17965964188E+02 -0.96949353545E+02  0.15773176343E+03  0.81036831497E+02 0.  0.
         -6    2    1    2    0  502 -0.11597104437E+03  0.13422588369E+03 -0.13196094927E+03  0.28002106800E+03  0.17184945565E+03 0.  0.
        -24    2    5    5    0    0 -0.94277175381E+02  0.15975464084E+03 -0.13922943895E+03  0.24541958919E+03  0.80225974716E+02 0.  0.
          5    1    3    3  501    0  0.23286697725E+02 -0.11625991950E+03 -0.52508991187E+02  0.12976102392E+03  0.47000000000E+01 0. -1.
        -11    1    4    4    0    0  0.86303311998E+02 -0.41019246555E+02 -0.93271490739E+02  0.13353056292E+03  0.00000000000E+00 0.  1.
         12    1    4    4    0    0  0.63810346458E+01  0.23053282367E+02 -0.36778628062E+01  0.24201200505E+02  0.00000000000E+00 0. -1.
         -5    1    5    5    0  502 -0.21693868988E+02 -0.25528757151E+02  0.72684896840E+01  0.34601478807E+02  0.47000000000E+01 0.  1.
         13    1    6    6    0    0 -0.10082789105E+03  0.11475918988E+03 -0.85602435723E+02  0.17511057158E+03  0.00000000000E+00 0. -1.
        -14    1    6    6    0    0  0.65507156659E+01  0.44995450958E+02 -0.53627003230E+02  0.70309017615E+02  0.00000000000E+00 0.  1.
</event>
<event>
12    1  0.8356052E-002  0.1840149E+03  0.7818608E-02  0.1164812E+00
         21   -1    0    0  501  502  0.00000000000E+00  0.00000000000E+00  0.71630121549E+02  0.71630121549E+02  0.00000000000E+00 0.  1.
         21   -1    0    0  502  503 -0.00000000000E+00 -0.00000000000E+00 -0.57655539203E+03  0.57655539203E+03  0.00000000000E+00 0.  1.
         -6    2    1    2    0  503 -0.32205977162E+02  0.45289701819E+02 -0.39781057067E+03  0.43830895107E+03  0.17542264504E+03 0.  0.
        -24    2    3    3    0    0 -0.28751098624E+02  0.39997470618E+02 -0.41195793077E+03  0.42211692542E+03  0.77762064476E+02 0.  0.
          6    2    1    2  501    0  0.32205977162E+02 -0.45289701819E+02 -0.10711469981E+03  0.20987656251E+03  0.17171555118E+03 0.  0.
         24    2    5    5    0    0 -0.48661768445E+02 -0.40570591168E+02 -0.61968362754E+02  0.11702106168E+03  0.76419305922E+02 0.  0.
          5    1    5    5  501    0  0.80867745607E+02 -0.47191106506E+01 -0.45146337053E+02  0.92855500829E+02  0.47000000000E+01 0. -1.
        -11    1    6    6    0    0  0.17280922425E+02 -0.26391641501E+02 -0.23834120051E+02  0.39537504974E+02  0.00000000000E+00 0.  1.
         12    1    6    6    0    0 -0.65942690870E+02 -0.14178949667E+02 -0.38134242702E+02  0.77483556703E+02  0.00000000000E+00 0. -1.
         -5    1    3    3    0  503 -0.34548785377E+01  0.52922312009E+01  0.14147360102E+02  0.16192025650E+02  0.47000000000E+01 0.  1.
         13    1    4    4    0    0 -0.11119626848E+02 -0.71977186509E+01 -0.28810071202E+03  0.28840505114E+03  0.00000000000E+00 0. -1.
        -14    1    4    4    0    0 -0.17631471776E+02  0.47195189269E+02 -0.12385721875E+03  0.13371187428E+03  0.00000000000E+00 0.  1.
</event>
<event>
12    1  0.8356052E-002  0.1777460E+03  0.7818608E-02  0.1170113E+00
         21   -1    0    0  503  502  0.00000000000E+00  0.00000000000E+00  0.31027491352E+03  0.31027491352E+03  0.00000000000E+00 0. -1.
         21   -1    0    0  501  503 -0.00000000000E+00 -0.00000000000E+00 -0.14360822011E+03  0.14360822011E+03  0.00000000000E+00 0. -1.
          6    2    1    2  501    0  0.45091314682E+02  0.62954004552E+01 -0.39380053229E+02  0.18205616145E+03  0.17181617678E+03 0.  0.
         24    2    3    3    0    0  0.83546655463E+02  0.23481609487E+02 -0.61727886306E+02  0.13414275353E+03  0.81562961893E+02 0.  0.
         -6    2    1    2    0  502 -0.45091314682E+02 -0.62954004552E+01  0.20604674664E+03  0.27182697218E+03  0.17135280061E+03 0.  0.
        -24    2    5    5    0    0 -0.15206853058E+01 -0.68014677175E+02  0.12843862792E+03  0.16341673763E+03  0.74701005359E+02 0.  0.
          5    1    3    3  501    0 -0.38455340781E+02 -0.17186209032E+02  0.22347833076E+02  0.47913407922E+02  0.47000000000E+01 0. -1.
        -13    1    4    4    0    0 -0.40147701665E+01  0.19980218431E+02  0.82631142229E+01  0.21991056471E+02  0.00000000000E+00 0.  1.
         14    1    4    4    0    0  0.87561425629E+02  0.35013910563E+01 -0.69991000528E+02  0.11215169706E+03  0.00000000000E+00 0. -1.
         -5    1    5    5    0  502 -0.43570629376E+02  0.61719276720E+02  0.77608118717E+02  0.10841023454E+03  0.47000000000E+01 0.  1.
         11    1    6    6    0    0 -0.15955644939E+02  0.11840762730E+02  0.24032724719E+02  0.31182657437E+02  0.00000000000E+00 0. -1.
        -12    1    6    6    0    0  0.14434959633E+02 -0.79855439905E+02  0.10440590320E+03  0.13223408020E+03  0.00000000000E+00 0.  1.
</event>
<event>
12    1  0.8356052E-002  0.2069605E+03  0.7818608E-02  0.1144054E+00
         21   -1    0    0  503  502  0.00000000000E+00  0.00000000000E+00  0.41988909450E+02  0.41988909450E+02  0.00000000000E+00 0.  1.
         21   -1    0    0  501  503 -0.00000000000E+00 -0.00000000000E+00 -0.10697099250E+04  0.10697099250E+04  0.00000000000E+00 0.  1.
          6    2    1    2  501    0  0.85967898089E+02  0.76039008361E+02 -0.63560205665E+03  0.66844790988E+03  0.17222143743E+03 0.  0.
         24    2    3    3    0    0  0.89564655660E+02 -0.73903436381E+01 -0.32307248051E+03  0.34492013765E+03  0.80731833700E+02 0.  0.
         -6    2    1    2    0  502 -0.85967898089E+02 -0.76039008361E+02 -0.39211895885E+03  0.44325092452E+03  0.17187697317E+03 0.  0.
        -24    2    5    5    0    0 -0.11601491762E+03 -0.54290330775E+02 -0.36323235939E+03  0.39600313105E+03  0.92053418004E+02 0.  0.
          5    1    3    3  501    0 -0.35967575709E+01  0.83429351999E+02 -0.31252957614E+03  0.32352777223E+03  0.47000000000E+01 0. -1.
        -11    1    4    4    0    0  0.56167932342E+02  0.83501231828E+01 -0.28950471942E+03  0.29502125982E+03  0.00000000000E+00 0.  1.
         12    1    4    4    0    0  0.33396723318E+02 -0.15740466821E+02 -0.33567761092E+02  0.49898877832E+02  0.00000000000E+00 0. -1.
         -5    1    5    5    0  502  0.30047019535E+02 -0.21748677586E+02 -0.28886599463E+02  0.47247793474E+02  0.47000000000E+01 0.  1.
         11    1    6    6    0    0 -0.98258320625E+02 -0.51092388698E+02 -0.36125883347E+03  0.37785324468E+03  0.00000000000E+00 0. -1.
        -12    1    6    6    0    0 -0.17756596999E+02 -0.31979420778E+01 -0.19735259143E+01  0.18149886365E+02  0.00000000000E+00 0.  1.
</event>
<event>
12    1  0.8356052E-002  0.2789146E+03  0.7818608E-02  0.1096360E+00
         21   -1    0    0  503  502  0.00000000000E+00  0.00000000000E+00  0.24409381180E+03  0.24409381180E+03  0.00000000000E+00 0.  1.
         21   -1    0    0  501  503 -0.00000000000E+00 -0.00000000000E+00 -0.35482101221E+03  0.35482101221E+03  0.00000000000E+00 0. -1.
          6    2    1    2  501    0 -0.19520140354E+03  0.10111512387E+03 -0.15179534590E+03  0.31754557418E+03  0.17165520216E+03 0.  0.
         24    2    3    3    0    0 -0.11580195775E+03  0.11577862823E+03 -0.52431714247E+02  0.18942644350E+03  0.79489047458E+02 0.  0.
         -6    2    1    2    0  502  0.19520140354E+03 -0.10111512387E+03  0.41068145497E+02  0.28136924982E+03  0.17074602764E+03 0.  0.
        -24    2    5    5    0    0  0.11596745812E+03  0.10895775172E+02  0.28473880939E+02  0.14351002775E+03  0.78849203606E+02 0.  0.
          5    1    3    3  501    0 -0.79399445787E+02 -0.14663504353E+02 -0.99363631654E+02  0.12811913068E+03  0.47000000000E+01 0. -1.
        -11    1    4    4    0    0 -0.10254366589E+03  0.10924628272E+03 -0.70908987756E+02  0.16576500912E+03  0.00000000000E+00 0.  1.
         12    1    4    4    0    0 -0.13258291860E+02  0.65323455065E+01  0.18477273509E+02  0.23661434386E+02  0.00000000000E+00 0. -1.
         -5    1    5    5    0  502  0.79233945414E+02 -0.11201089905E+03  0.12594264557E+02  0.13785922207E+03  0.47000000000E+01 0.  1.
         11    1    6    6    0    0  0.88425671017E+02 -0.21732498254E+02 -0.19555474482E+01  0.91078125481E+02  0.00000000000E+00 0. -1.
        -12    1    6    6    0    0  0.27541787106E+02  0.32628273426E+02  0.30429428388E+02  0.52431902271E+02  0.00000000000E+00 0.  1.
</event>
<event>
12    1  0.8356052E-002  0.2755589E+03  0.7818608E-02  0.1098383E+00
         21   -1    0    0  503  502  0.00000000000E+00  0.00000000000E+00  0.25707741898E+03  0.25707741898E+03  0.00000000000E+00 0. -1.
         21   -1    0    0  501  503 -0.00000000000E+00 -0.00000000000E+00 -0.70909815377E+03  0.70909815377E+03  0.00000000000E+00 0.  1.
          6    2    1    2  501    0  0.20725331760E+03  0.52256962928E+02 -0.59614084858E+03  0.65674699160E+03  0.17391944055E+03 0.  0.
         24    2    3    3    0    0  0.19029979635E+03  0.18566585172E+02 -0.34727588680E+03  0.40499647495E+03  0.82842456442E+02 0.  0.
         -6    2    1    2    0  502 -0.20725331760E+03 -0.52256962928E+02  0.14412011379E+03  0.30942858115E+03  0.17114529441E+03 0.  0.
        -24    2    5    5    0    0 -0.13576059201E+03 -0.11864333101E+02  0.18249542122E+02  0.15906813033E+03  0.79987021185E+02 0.  0.
          5    1    3    3  501    0  0.16953521254E+02  0.33690377756E+02 -0.24886496177E+03  0.25175051665E+03  0.47000000000E+01 0. -1.
        -11    1    4    4    0    0  0.54387181303E+02 -0.24858890649E+02 -0.62638129154E+02  0.86599452413E+02  0.00000000000E+00 0.  1.
         12    1    4    4    0    0  0.13591261505E+03  0.43425475820E+02 -0.28463775765E+03  0.31839702253E+03  0.00000000000E+00 0. -1.
         -5    1    5    5    0  502 -0.71492725597E+02 -0.40392629827E+02  0.12587057166E+03  0.15036045081E+03  0.47000000000E+01 0.  1.
         13    1    6    6    0    0 -0.86263181245E+01 -0.23738376839E+02  0.18622065473E+02  0.31380013095E+02  0.00000000000E+00 0. -1.
        -14    1    6    6    0    0 -0.12713427388E+03  0.11874043738E+02 -0.37252335100E+00  0.12768811724E+03  0.00000000000E+00 0.  1.
</event>
<event>
12    1  0.8356052E-002  0.2571166E+03  0.7818608E-02  0.1108946E+00
         21   -1    0    0  501  502  0.00000000000E+00  0.00000000000E+00  0.17932732493E+04  0.17932732493E+04  0.00000000000E+00 0.  1.
         21   -1    0    0  502  503 -0.00000000000E+00 -0.00000000000E+00 -0.17790950484E+03  0.17790950484E+03  0.00000000000E+00 0.  1.
         -6    2    1    2    0  503 -0.19024998903E+03  0.85860067825E+01 -0.70166291422E+02  0.26615476725E+03  0.17218093343E+03 0.  0.
        -24    2    3    3    0    0 -0.15727102974E+03 -0.11295736250E+02  0.99547200452E+01  0.17713588194E+03  0.80101521626E+02 0.  0.
          6    2    1    2  501    0  0.19024998903E+03 -0.85860067825E+01  0.16855300358E+04  0.17050279869E+04  0.17274303566E+03 0.  0.
         24    2    5    5    0    0  0.17697275515E+03  0.33494801028E+02  0.15485323105E+04  0.15610226186E+04  0.79987758190E+02 0.  0.
          5    1    5    5  501    0  0.13277233881E+02 -0.42080807811E+02  0.13699772533E+03  0.14400536821E+03  0.47000000000E+01 0. -1.
        -13    1    6    6    0    0  0.13164172868E+03  0.59295539455E+02  0.11865214132E+04  0.11952734288E+04  0.00000000000E+00 0.  1.
         14    1    6    6    0    0  0.45331026474E+02 -0.25800738427E+02  0.36201089736E+03  0.36574918985E+03  0.00000000000E+00 0. -1.
         -5    1    3    3    0  503 -0.32978959289E+02  0.19881743033E+02 -0.80121011467E+02  0.89018885301E+02  0.47000000000E+01 0.  1.
         13    1    4    4    0    0 -0.28798225766E+02 -0.33342161033E+02 -0.10236144261E+02  0.45230699298E+02  0.00000000000E+00 0. -1.
        -14    1    4    4    0    0 -0.12847280398E+03  0.22046424782E+02  0.20190864307E+02  0.13190518265E+03  0.00000000000E+00 0.  1.
</event>
<event>
12    1  0.8356052E-002  0.2126764E+03  0.7818608E-02  0.1139855E+00
         21   -1    0    0  503  502  0.00000000000E+00  0.00000000000E+00  0.21983857808E+03  0.21983857808E+03  0.00000000000E+00 0. -1.
         21   -1    0    0  501  503 -0.00000000000E+00 -0.00000000000E+00 -0.20431955945E+03  0.20431955945E+03  0.00000000000E+00 0.  1.
          6    2    1    2  501    0  0.73972675551E+02 -0.10077765574E+03  0.18227671777E+02  0.21146451179E+03  0.16957859271E+03 0.  0.
         24    2    3    3    0    0 -0.45532521236E+01 -0.11975291763E+02  0.43957917619E+02  0.90071280034E+02  0.77565438489E+02 0.  0.
         -6    2    1    2    0  502 -0.73972675551E+02  0.10077765574E+03 -0.27086531437E+01  0.21269362574E+03  0.17205565671E+03 0.  0.
        -24    2    5    5    0    0 -0.53153136208E+02 -0.90975475434E+01  0.20850845252E+02  0.98312012362E+02  0.79513978438E+02 0.  0.
          5    1    3    3  501    0  0.78525927675E+02 -0.88802363978E+02 -0.25730245841E+02  0.12139323176E+03  0.47000000000E+01 0. -1.
        -13    1    4    4    0    0 -0.15490013028E+02 -0.10321786276E+02 -0.18735136112E+02  0.26409943216E+02  0.00000000000E+00 0.  1.
         14    1    4    4    0    0  0.10936760904E+02 -0.16535054870E+01  0.62693053730E+02  0.63661336819E+02  0.00000000000E+00 0. -1.
         -5    1    5    5    0  502 -0.20819539343E+02  0.10987520328E+03 -0.23559498395E+02  0.11438161338E+03  0.47000000000E+01 0.  1.
         13    1    6    6    0    0  0.10256796060E+02  0.43159612804E+01  0.30791875889E+02  0.32740937799E+02  0.00000000000E+00 0. -1.
        -14    1    6    6    0    0 -0.63409932268E+02 -0.13413508824E+02 -0.99410306376E+01  0.65571074563E+02  0.00000000000E+00 0.  1.
</event>
<event>
12    1  0.8356052E-002  0.1960553E+03  0.7818608E-02  0.1153300E+00
         21   -1    0    0  503  502  0.00000000000E+00  0.00000000000E+00  0.10328949778E+04  0.10328949778E+04  0.00000000000E+00 0.  1.
         21   -1    0    0  501  503 -0.00000000000E+00 -0.00000000000E+00 -0.27102341776E+03  0.27102341776E+03  0.00000000000E+00 0. -1.
          6    2    1    2  501    0  0.63282243641E+02  0.69054048498E+02 -0.22494184386E+03  0.29781782357E+03  0.17124111346E+03 0.  0.
         24    2    3    3    0    0  0.63047001514E+02  0.68896670250E+02 -0.24666919073E+03  0.27558614102E+03  0.79877130001E+02 0.  0.
         -6    2    1    2    0  502 -0.63282243641E+02 -0.69054048498E+02  0.98681340391E+03  0.10061005720E+04  0.17223403520E+03 0.  0.
        -24    2    5    5    0    0  0.20049486186E+02 -0.73157376164E+02  0.47548484686E+03  0.48798861716E+03  0.79328855442E+02 0.  0.
          5    1    3    3  501    0  0.23524212707E+00  0.15737824727E+00  0.21727346867E+02  0.22231682542E+02  0.47000000000E+01 0. -1.
        -13    1    4    4    0    0  0.34566570879E+02  0.83440479262E+02 -0.19351313663E+03  0.21355209072E+03  0.00000000000E+00 0.  1.
         14    1    4    4    0    0  0.28480430635E+02 -0.14543809012E+02 -0.53156054099E+02  0.62034050304E+02  0.00000000000E+00 0. -1.
         -5    1    5    5    0  502 -0.83331729827E+02  0.41033276661E+01  0.51132855705E+03  0.51811195484E+03  0.47000000000E+01 0.  1.
         11    1    6    6    0    0 -0.23615744586E+02 -0.47512149484E+02  0.32263891925E+03  0.32697244525E+03  0.00000000000E+00 0. -1.
        -12    1    6    6    0    0  0.43665230772E+02 -0.25645226680E+02  0.15284592761E+03  0.16101617191E+03  0.00000000000E+00 0.  1.
</event>
<event>
12    1  0.8356052E-002  0.4480658E+03  0.7818608E-02  0.1028301E+00
         21   -1    0    0  503  502  0.00000000000E+00  0.00000000000E+00  0.12901540554E+03  0.12901540554E+03  0.00000000000E+00 0. -1.
         21   -1    0    0  501  503 -0.00000000000E+00 -0.00000000000E+00 -0.16850362843E+04  0.16850362843E+04  0.00000000000E+00 0. -1.
          6    2    1    2  501    0 -0.26605444767E+03  0.31705916806E+03 -0.10289503080E+04  0.11222752369E+04  0.17161435206E+03 0.  0.
         24    2    3    3    0    0 -0.21601986788E+03  0.15227423739E+03 -0.65602218363E+03  0.71147722266E+03  0.77347955745E+02 0.  0.
         -6    2    1    2    0  502  0.26605444767E+03 -0.31705916806E+03 -0.52707057067E+03  0.69177645285E+03  0.17158027008E+03 0.  0.
        -24    2    5    5    0    0  0.26758924968E+03 -0.25043778822E+03 -0.40036617147E+03  0.54853938137E+03  0.79241967069E+02 0.  0.
          5    1    3    3  501    0 -0.50034579785E+02  0.16478493067E+03 -0.37292812442E+03  0.41079801428E+03  0.47000000000E+01 0. -1.
        -13    1    4    4    0    0 -0.49268200024E+02  0.47223020852E+02 -0.95977582438E+02  0.11776699692E+03  0.00000000000E+00 0.  1.
         14    1    4    4    0    0 -0.16675166786E+03  0.10505121653E+03 -0.56004460119E+03  0.59371022574E+03  0.00000000000E+00 0. -1.
         -5    1    5    5    0  502 -0.15348020174E+01 -0.66621379844E+02 -0.12670439920E+03  0.14323707148E+03  0.47000000000E+01 0.  1.
         13    1    6    6    0    0  0.91828743243E+02 -0.38651961673E+02 -0.10034382123E+03  0.14140500234E+03  0.00000000000E+00 0. -1.
        -14    1    6    6    0    0  0.17576050644E+03 -0.21178582654E+03 -0.30002235023E+03  0.40713437903E+03  0.00000000000E+00 0.  1.
</event>
<event>
12    1  0.8356052E-002  0.1742419E+03  0.7818608E-02  0.1173847E+00
         21   -1    0    0  503  502  0.00000000000E+00  0.00000000000E+00  0.62585714036E+03  0.62585714036E+03  0.00000000000E+00 0.  1.
         21   -1    0    0  501  503 -0.00000000000E+00 -0.00000000000E+00 -0.70337649240E+02  0.70337649240E+02  0.00000000000E+00 0.  1.
          6    2    1    2  501    0  0.19332471691E+02 -0.53079445479E+01  0.47414273434E+03  0.50514510870E+03  0.17308474681E+03 0.  0.
         24    2    3    3    0    0  0.63368760665E+02 -0.97990583371E+01  0.19104235275E+03  0.21856653151E+03  0.84631712598E+02 0.  0.
         -6    2    1    2    0  502 -0.19332471691E+02  0.53079445479E+01  0.81376756779E+02  0.19104968090E+03  0.17168542539E+03 0.  0.
        -24    2    5    5    0    0 -0.35750698883E+02 -0.37976023713E+01  0.11873481596E+03  0.14897612918E+03  0.82482702969E+02 0.  0.
          5    1    3    3  501    0 -0.44036288974E+02  0.44911137892E+01  0.28310038159E+03  0.28657857720E+03  0.47000000000E+01 0. -1.
        -13    1    4    4    0    0  0.38799987649E+02 -0.33596203368E+02  0.17183992971E+03  0.17934075210E+03  0.00000000000E+00 0.  1.
         14    1    4    4    0    0  0.24568773016E+02  0.23797145031E+02  0.19202423043E+02  0.39225779404E+02  0.00000000000E+00 0. -1.
         -5    1    5    5    0  502  0.16418227192E+02  0.91055469193E+01 -0.37358059182E+02  0.42073551724E+02  0.47000000000E+01 0.  1.
         11    1    6    6    0    0 -0.47637824627E+02 -0.29978601044E+02  0.53365574331E+02  0.77562641647E+02  0.00000000000E+00 0. -1.
        -12    1    6    6    0    0  0.11887125743E+02  0.26180998673E+02  0.65369241630E+02  0.71413487530E+02  0.00000000000E+00 0.  1.
</event>
<event>
12    1  0.8356052E-002  0.1770125E+03  0.7818608E-02  0.1170967E+00
         21   -1    0    0  503  502  0.00000000000E+00  0.00000000000E+00  0.60330635257E+02  0.60330635257E+02  0.00000000000E+00 0.  1.
         21   -1    0    0  501  503 -0.00000000000E+00 -0.00000000000E+00 -0.79442461223E+03  0.79442461223E+03  0.00000000000E+00 0.  1.
          6    2    1    2  501    0  0.86313333806E+00  0.38605635892E+02 -0.11492722284E+03  0.21104905709E+03  0.17274923394E+03 0.  0.
         24    2    3    3    0    0  0.49547133198E+02 -0.87583671242E+01 -0.10862153575E+03  0.14267265536E+03  0.77622298062E+02 0.  0.
         -6    2    1    2    0  502 -0.86313333806E+00 -0.38605635892E+02 -0.61916675412E+03  0.64370619039E+03  0.17175287482E+03 0.  0.
        -24    2    5    5    0    0  0.25527152716E+02  0.24960980927E+02 -0.19780493875E+03  0.21673425756E+03  0.81069467184E+02 0.  0.
          5    1    3    3  501    0 -0.48683999860E+02  0.47364003016E+02 -0.63056870950E+01  0.68376401732E+02  0.47000000000E+01 0. -1.
        -13    1    4    4    0    0  0.20559116336E+02 -0.42974992797E+02 -0.54521912505E+02  0.72402805288E+02  0.00000000000E+00 0.  1.
         14    1    4    4    0    0  0.28988016862E+02  0.34216625673E+02 -0.54099623244E+02  0.70269850072E+02  0.00000000000E+00 0. -1.
         -5    1    5    5    0  502 -0.26390286055E+02 -0.63566616819E+02 -0.42136181537E+03  0.42697193283E+03  0.47000000000E+01 0.  1.
         11    1    6    6    0    0  0.44281102428E+02 -0.12207050336E+02 -0.87281645787E+02  0.98630187070E+02  0.00000000000E+00 0. -1.
        -12    1    6    6    0    0 -0.18753949712E+02  0.37168031264E+02 -0.11052329297E+03  0.11810407049E+03  0.00000000000E+00 0.  1.
</event>
<event>
12    1  0.8356052E-002  0.2053498E+03  0.7818608E-02  0.1145541E+00
         21   -1    0    0  501  502  0.00000000000E+00  0.00000000000E+00  0.52919270163E+03  0.52919270163E+03  0.00000000000E+00 0.  1.
         21   -1    0    0  502  503 -0.00000000000E+00 -0.00000000000E+00 -0.13455234725E+03  0.13455234725E+03  0.00000000000E+00 0.  1.
         -6    2    1    2    0  503  0.10750691204E+03 -0.16005266298E+02 -0.15808356513E+02  0.20479331153E+03  0.17284817507E+03 0.  0.
        -24    2    3    3    0    0  0.69507552862E+01  0.27912035055E+02 -0.36503535222E+02  0.93031732974E+02  0.80591566286E+02 0.  0.
          6    2    1    2  501    0 -0.10750691204E+03  0.16005266298E+02  0.41044871090E+03  0.45895173735E+03  0.17422585414E+03 0.  0.
         24    2    5    5    0    0 -0.91405574024E+02 -0.45032622035E+02  0.32746311532E+03  0.35457944231E+03  0.90064271510E+02 0.  0.
          5    1    5    5  501    0 -0.16101338019E+02  0.61037888333E+02  0.82985595577E+02  0.10437229504E+03  0.47000000000E+01 0. -1.
        -13    1    6    6    0    0  0.67587646290E+01  0.92799068730E+01  0.10303849786E+03  0.10367608023E+03  0.00000000000E+00 0.  1.
         14    1    6    6    0    0 -0.98164338653E+02 -0.54312528908E+02  0.22442461746E+03  0.25090336208E+03  0.00000000000E+00 0. -1.
         -5    1    3    3    0  503  0.10055615676E+03 -0.43917301353E+02  0.20695178708E+02  0.11176157856E+03  0.47000000000E+01 0.  1.
         11    1    4    4    0    0 -0.86474624789E+01  0.28631682849E+02  0.18959820382E+02  0.35412238831E+02  0.00000000000E+00 0. -1.
        -12    1    4    4    0    0  0.15598217765E+02 -0.71964779402E+00 -0.55463355604E+02  0.57619494143E+02  0.00000000000E+00 0.  1.
</event>
<event>
12    1  0.8356052E-002  0.2136698E+03  0.7818608E-02  0.1139682E+00
         21   -1    0    0  503  502  0.00000000000E+00  0.00000000000E+00  0.56514523397E+02  0.56514523397E+02  0.00000000000E+00 0. -1.
         21   -1    0    0  501  503 -0.00000000000E+00 -0.00000000000E+00 -0.16981919400E+04  0.16981919400E+04  0.00000000000E+00 0. -1.
          6    2    1    2  501    0 -0.11503545289E+03  0.11378753796E+02 -0.14673860519E+04  0.14828609509E+04  0.17970014739E+03 0.  0.
         24    2    3    3    0    0  0.14051423821E+02  0.13871125751E+02 -0.69176955965E+03  0.69655778628E+03  0.79106101735E+02 0.  0.
         -6    2    1    2    0  502  0.11503545289E+03 -0.11378753796E+02 -0.17429136467E+03  0.27184551245E+03  0.17366597647E+03 0.  0.
        -24    2    5    5    0    0 -0.11295192880E+02 -0.16854627271E+02 -0.53360064698E+02  0.96814410746E+02  0.78192543000E+02 0.  0.
          5    1    3    3  501    0 -0.12908687671E+03 -0.24923719555E+01 -0.77561649228E+03  0.78630316466E+03  0.47000000000E+01 0. -1.
        -11    1    4    4    0    0  0.29556151382E+02 -0.18516288728E+02 -0.16926590161E+03  0.17282177086E+03  0.00000000000E+00 0.  1.
         12    1    4    4    0    0 -0.15504727561E+02  0.32387414480E+02 -0.52250365804E+03  0.52373601543E+03  0.00000000000E+00 0. -1.
         -5    1    5    5    0  502  0.12633064577E+03  0.54758734751E+01 -0.12093129997E+03  0.17503110171E+03  0.47000000000E+01 0.  1.
         11    1    6    6    0    0 -0.23626750779E+01  0.19256714791E+02  0.11128216899E+02  0.22366057083E+02  0.00000000000E+00 0. -1.
        -12    1    6    6    0    0 -0.89325178022E+01 -0.36111342062E+02 -0.64488281597E+02  0.74448353663E+02  0.00000000000E+00 0.  1.
</event>
<event>
12    1  0.8356052E-002  0.2407627E+03  0.7818608E-02  0.1119382E+00
         21   -1    0    0  503  502  0.00000000000E+00  0.00000000000E+00  0.23330157001E+03  0.23330157001E+03  0.00000000000E+00 0.  1.
         21   -1    0    0  501  503 -0.00000000000E+00 -0.00000000000E+00 -0.35145895638E+03  0.35145895638E+03  0.00000000000E+00 0. -1.
          6    2    1    2  501    0 -0.16546779991E+03 -0.17296557021E+02 -0.21786727248E+03  0.32470417642E+03  0.17403416352E+03 0.  0.
         24    2    3    3    0    0 -0.17616324957E+03 -0.55567272405E+02 -0.18924586230E+03  0.27550747510E+03  0.77260340263E+02 0.  0.
         -6    2    1    2    0  502  0.16546779991E+03  0.17296557021E+02  0.99709886108E+02  0.26005634997E+03  0.17322955891E+03 0.  0.
        -24    2    5    5    0    0  0.66053973711E+02 -0.37010871955E+02  0.10260039387E+03  0.14664184157E+03  0.72415860077E+02 0.  0.
          5    1    3    3  501    0  0.10695449663E+02  0.38270715384E+02 -0.28621410181E+02  0.49196701315E+02  0.47000000000E+01 0. -1.
        -11    1    4    4    0    0 -0.17043262885E+02 -0.30607837515E+02 -0.14668976294E+02  0.37980144716E+02  0.00000000000E+00 0.  1.
         12    1    4    4    0    0 -0.15911998669E+03 -0.24959434890E+02 -0.17457688601E+03  0.23752733039E+03  0.00000000000E+00 0. -1.
         -5    1    5    5    0  502  0.99413826198E+02  0.54307428976E+02 -0.28905077574E+01  0.11341450840E+03  0.47000000000E+01 0.  1.
         13    1    6    6    0    0  0.67044126184E+02 -0.31567856148E+02  0.40798690692E+02  0.84593011294E+02  0.00000000000E+00 0. -1.
        -14    1    6    6    0    0 -0.99015247351E+00 -0.54430158068E+01  0.61801703173E+02  0.62048830272E+02  0.00000000000E+00 0.  1.
</event>
<event>
12    1  0.8356052E-002  0.1950034E+03  0.7818608E-02  0.1154137E+00
         21   -1    0    0  501  502  0.00000000000E+00  0.00000000000E+00  0.88771798662E+02  0.88771798662E+02  0.00000000000E+00 0.  1.
         21   -1    0    0  502  503 -0.00000000000E+00 -0.00000000000E+00 -0.74441459036E+03  0.74441459036E+03  0.00000000000E+00 0. -1.
         -6    2    1    2    0  503  0.21566118718E+02  0.87047302669E+02 -0.60000417341E+03  0.63089724895E+03  0.17315888729E+03 0.  0.
        -24    2    3    3    0    0 -0.41076435202E+02  0.41213355775E+02 -0.19345338975E+03  0.21697639909E+03  0.79175308877E+02 0.  0.
          6    2    1    2  501    0 -0.21566118718E+02 -0.87047302669E+02 -0.55638618288E+02  0.20228914007E+03  0.17257725797E+03 0.  0.
         24    2    5    5    0    0  0.34444190618E+02 -0.82966496115E+02  0.13280573405E+01  0.12215737442E+03  0.82769672249E+02 0.  0.
          5    1    5    5  501    0 -0.56010309336E+02 -0.40808065537E+01 -0.56966675628E+02  0.80131765650E+02  0.47000000000E+01 0. -1.
        -11    1    6    6    0    0  0.26454803533E+01 -0.81576123603E+02  0.21590013415E+02  0.84426247030E+02  0.00000000000E+00 0.  1.
         12    1    6    6    0    0  0.31798710265E+02 -0.13903725125E+01 -0.20261956074E+02  0.37731127391E+02  0.00000000000E+00 0. -1.
         -5    1    3    3    0  503  0.62642553920E+02  0.45833946894E+02 -0.40655078366E+03  0.41392084986E+03  0.47000000000E+01 0.  1.
         13    1    4    4    0    0 -0.25364612307E+02  0.62725275098E+02 -0.16318320309E+03  0.17665384645E+03  0.00000000000E+00 0. -1.
        -14    1    4    4    0    0 -0.15711822895E+02 -0.21511919323E+02 -0.30270186652E+02  0.40322552643E+02  0.00000000000E+00 0.  1.
</event>
<event>
12    1  0.8356052E-002  0.2842675E+03  0.7818608E-02  0.1093586E+00
         21   -1    0    0  501  502  0.00000000000E+00  0.00000000000E+00  0.10533227800E+03  0.10533227800E+03  0.00000000000E+00 0. -1.
         21   -1    0    0  502  503 -0.00000000000E+00 -0.00000000000E+00 -0.13172177676E+04  0.13172177676E+04  0.00000000000E+00 0.  1.
         -6    2    1    2    0  503 -0.16256552886E+03  0.15672459524E+03 -0.10663429176E+04  0.11031903071E+04  0.17015136175E+03 0.  0.
        -24    2    3    3    0    0 -0.12657198396E+03  0.72070476218E+02 -0.87851269372E+03  0.89399150659E+03  0.78877374291E+02 0.  0.
          6    2    1    2  501    0  0.16256552886E+03 -0.15672459524E+03 -0.14554257198E+03  0.31935973845E+03  0.17267846525E+03 0.  0.
         24    2    5    5    0    0  0.12111863796E+03 -0.14396487633E+03 -0.42648925003E+02  0.20760175091E+03  0.76706884296E+02 0.  0.
          5    1    5    5  501    0  0.41446890895E+02 -0.12759718908E+02 -0.10289364698E+03  0.11175798754E+03  0.47000000000E+01 0. -1.
        -13    1    6    6    0    0  0.60231774479E+02 -0.39551670957E+02 -0.48056254289E+02  0.86611805827E+02  0.00000000000E+00 0.  1.
         14    1    6    6    0    0  0.60886863484E+02 -0.10441320537E+03  0.54073292867E+01  0.12098994508E+03  0.00000000000E+00 0. -1.
         -5    1    3    3    0  503 -0.35993544899E+02  0.84654119018E+02 -0.18783022386E+03  0.20919880051E+03  0.47000000000E+01 0.  1.
         13    1    4    4    0    0 -0.31458539438E+02 -0.17019665881E+01 -0.72624381289E+02  0.79163357378E+02  0.00000000000E+00 0. -1.
        -14    1    4    4    0    0 -0.95113444521E+02  0.73772442806E+02 -0.80588831243E+03  0.81482814922E+03  0.00000000000E+00 0.  1.
</event>
<event>
12    1  0.8356052E-002  0.2061392E+03  0.7818608E-02  0.1145323E+00
         21   -1    0    0  501  502  0.00000000000E+00  0.00000000000E+00  0.65107807756E+02  0.65107807756E+02  0.00000000000E+00 0.  1.
         21   -1    0    0  502  503 -0.00000000000E+00 -0.00000000000E+00 -0.77583546588E+03  0.77583546588E+03  0.00000000000E+00 0.  1.
         -6    2    1    2    0  503 -0.92750446320E+02 -0.53160199250E+02 -0.18335087003E+03  0.27588209651E+03  0.17625191505E+03 0.  0.
        -24    2    3    3    0    0  0.17351872548E+02 -0.52275598745E+02 -0.85703299630E+02  0.12863929994E+03  0.78544180022E+02 0.  0.
          6    2    1    2  501    0  0.92750446320E+02  0.53160199250E+02 -0.52737678809E+03  0.56506117712E+03  0.17245058770E+03 0.  0.
         24    2    5    5    0    0  0.12377323779E+03  0.43087443069E+02 -0.32147408629E+03  0.35653806901E+03  0.81224776730E+02 0.  0.
          5    1    5    5  501    0 -0.31022791471E+02  0.10072756181E+02 -0.20590270180E+03  0.20852310811E+03  0.47000000000E+01 0. -1.
        -13    1    6    6    0    0  0.49029364197E+02  0.50737782137E+02 -0.97891668392E+02  0.12066888510E+03  0.00000000000E+00 0.  1.
         14    1    6    6    0    0  0.74743873594E+02 -0.76503390680E+01 -0.22358241790E+03  0.23586918392E+03  0.00000000000E+00 0. -1.
         -5    1    3    3    0  503 -0.11010231887E+03 -0.88460050513E+00 -0.97647570404E+02  0.14724279658E+03  0.47000000000E+01 0.  1.
         11    1    4    4    0    0 -0.21871125176E+02  0.33618226378E+01 -0.42778054610E+02  0.48162328890E+02  0.00000000000E+00 0. -1.
        -12    1    4    4    0    0  0.39222997724E+02 -0.55637421383E+02 -0.42925245020E+02  0.80476971045E+02  0.00000000000E+00 0.  1.
</event>
<event>
12    1  0.8356052E-002  0.1737632E+03  0.7818608E-02  0.1174077E+00
         21   -1    0    0  501  502  0.00000000000E+00  0.00000000000E+00  0.12819404354E+03  0.12819404354E+03  0.00000000000E+00 0.  1.
         21   -1    0    0  502  503 -0.00000000000E+00 -0.00000000000E+00 -0.29077029213E+03  0.29077029213E+03  0.00000000000E+00 0.  1.
         -6    2    1    2    0  503 -0.18983689529E+02  0.11844448513E+02 -0.17309853197E+03  0.24526875913E+03  0.17231654304E+03 0.  0.
        -24    2    3    3    0    0 -0.57691647301E+02  0.23821889781E+02 -0.44518084479E+02  0.11037329378E+03  0.79401483197E+02 0.  0.
          6    2    1    2  501    0  0.18983689529E+02 -0.11844448513E+02  0.10522283383E+02  0.17369557654E+03  0.17192662224E+03 0.  0.
         24    2    5    5    0    0  0.41678014577E+02  0.42073692224E+02 -0.28805065073E+02  0.10304907184E+03  0.79259869777E+02 0.  0.
          5    1    5    5  501    0 -0.22694325048E+02 -0.53918140737E+02  0.39327348456E+02  0.70646504701E+02  0.47000000000E+01 0. -1.
        -13    1    6    6    0    0 -0.22696948441E+01 -0.11037141471E+02  0.16918756463E+02  0.20327673915E+02  0.00000000000E+00 0.  1.
         14    1    6    6    0    0  0.43947709421E+02  0.53110833694E+02 -0.45723821536E+02  0.82721397927E+02  0.00000000000E+00 0. -1.
         -5    1    3    3    0  503  0.38707957771E+02 -0.11977441268E+02 -0.12858044750E+03  0.13489546535E+03  0.47000000000E+01 0.  1.
         13    1    4    4    0    0  0.17169892497E+02  0.19141421418E+02 -0.14980218595E+02  0.29759135932E+02  0.00000000000E+00 0. -1.
        -14    1    4    4    0    0 -0.74861539798E+02  0.46804683627E+01 -0.29537865884E+02  0.80614157851E+02  0.00000000000E+00 0.  1.
</event>
<event>
12    1  0.8356052E-002  0.1852538E+03  0.7818608E-02  0.1162832E+00
         21   -1    0    0  503  502  0.00000000000E+00  0.00000000000E+00  0.11035325982E+04  0.11035325982E+04  0.00000000000E+00 0. -1.
         21   -1    0    0  501  503 -0.00000000000E+00 -0.00000000000E+00 -0.59403836625E+02  0.59403836625E+02  0.00000000000E+00 0.  1.
          6    2    1    2  501    0  0.43983670969E+02 -0.50737342409E+02  0.12053429799E+03  0.22094614598E+03  0.17256836676E+03 0.  0.
         24    2    3    3    0    0  0.89793964090E+02 -0.65326556610E+02  0.98067838611E+02  0.16767082408E+03  0.78521903270E+02 0.  0.
         -6    2    1    2    0  502 -0.43983670969E+02  0.50737342409E+02  0.92359446362E+03  0.94199028887E+03  0.17265610292E+03 0.  0.
        -24    2    5    5    0    0 -0.19268360142E+02 -0.13263059477E+02  0.22047738258E+03  0.23551833778E+03  0.79444526258E+02 0.  0.
          5    1    3    3  501    0 -0.45810293120E+02  0.14589214200E+02  0.22466459375E+02  0.53275321901E+02  0.47000000000E+01 0. -1.
        -13    1    4    4    0    0  0.10035079922E+03 -0.44180263062E+02  0.66501003563E+02  0.12823635219E+03  0.00000000000E+00 0.  1.
         14    1    4    4    0    0 -0.10556835126E+02 -0.21146293547E+02  0.31566835049E+02  0.39434471895E+02  0.00000000000E+00 0. -1.
         -5    1    5    5    0  502 -0.24715310828E+02  0.64000401886E+02  0.70311708104E+03  0.70647195109E+03  0.47000000000E+01 0.  1.
         13    1    6    6    0    0 -0.41087208930E+01  0.10083780496E+02  0.20157827666E+03  0.20187215221E+03  0.00000000000E+00 0. -1.
        -14    1    6    6    0    0 -0.15159639249E+02 -0.23346839972E+02  0.18899105917E+02  0.33646185569E+02  0.00000000000E+00 0.  1.
</event>
<event>
12    1  0.8356052E-002  0.2426933E+03  0.7818608E-02  0.1118035E+00
         21   -1    0    0  503  502  0.00000000000E+00  0.00000000000E+00  0.68572766069E+02  0.68572766069E+02  0.00000000000E+00 0. -1.
         21   -1    0    0  501  503 -0.00000000000E+00 -0.00000000000E+00 -0.92158605229E+03  0.92158605229E+03  0.00000000000E+00 0.  1.
          6    2    1    2  501    0  0.14856471955E+03  0.84167976232E+02 -0.29702331081E+03  0.38356603241E+03  0.17246544563E+03 0.  0.
         24    2    3    3    0    0  0.14852469418E+03  0.11050030936E+03 -0.29438212251E+03  0.35668743041E+03  0.79342206997E+02 0.  0.
         -6    2    1    2    0  502 -0.14856471955E+03 -0.84167976232E+02 -0.55598997542E+03  0.60659278595E+03  0.17226209998E+03 0.  0.
        -24    2    5    5    0    0 -0.13370770702E+03 -0.10026146913E+02 -0.28933319134E+03  0.32938226637E+03  0.82466400715E+02 0.  0.
          5    1    3    3  501    0  0.40025372489E-01 -0.26332333123E+02 -0.26411883003E+01  0.26878601998E+02  0.47000000000E+01 0. -1.
        -13    1    4    4    0    0  0.15874127758E+02  0.34545870869E+02 -0.20895907028E+02  0.43382531700E+02  0.00000000000E+00 0.  1.
         14    1    4    4    0    0  0.13265056642E+03  0.75954438486E+02 -0.27348621548E+03  0.31330489871E+03  0.00000000000E+00 0. -1.
         -5    1    5    5    0  502 -0.14857012533E+02 -0.74141829319E+02 -0.26665678407E+03  0.27721051958E+03  0.47000000000E+01 0.  1.
         13    1    6    6    0    0 -0.87580678725E+02  0.28718877256E+02 -0.21341621951E+03  0.23246856120E+03  0.00000000000E+00 0. -1.
        -14    1    6    6    0    0 -0.46127028297E+02 -0.38745024169E+02 -0.75916971838E+02  0.96913705173E+02  0.00000000000E+00 0.  1.
</event>
<event>
12    1  0.8356052E-002  0.1733810E+03  0.7818608E-02  0.1176162E+00
         21   -1    0    0  503  502  0.00000000000E+00  0.00000000000E+00  0.10177669326E+03  0.10177669326E+03  0.00000000000E+00 0.  1.
         21   -1    0    0  501  503 -0.00000000000E+00 -0.00000000000E+00 -0.33287124479E+03  0.33287124479E+03  0.00000000000E+00 0.  1.
          6    2    1    2  501    0  0.16732878439E+01 -0.22190887312E+02 -0.19705265582E+03  0.25795657995E+03  0.16497458168E+03 0.  0.
         24    2    3    3    0    0 -0.21917084695E+02  0.38925626183E+02 -0.72851392227E+02  0.11745826047E+03  0.80582595062E+02 0.  0.
         -6    2    1    2    0  502 -0.16732878439E+01  0.22190887312E+02 -0.34041895708E+02  0.17669135810E+03  0.17194693947E+03 0.  0.
        -24    2    5    5    0    0 -0.60068236842E+02  0.56306207069E+01 -0.52242347608E+02  0.11314956911E+03  0.80210131156E+02 0.  0.
          5    1    3    3  501    0  0.23590372539E+02 -0.61116513495E+02 -0.12420126360E+03  0.14049831948E+03  0.47000000000E+01 0. -1.
        -11    1    4    4    0    0 -0.25079988010E+02 -0.11892120175E+02  0.97847593448E+00  0.27773831856E+02  0.00000000000E+00 0.  1.
         12    1    4    4    0    0  0.31629033145E+01  0.50817746358E+02 -0.73829868161E+02  0.89684428609E+02  0.00000000000E+00 0. -1.
         -5    1    5    5    0  502  0.58394948998E+02  0.16560266605E+02  0.18200451900E+02  0.63541788989E+02  0.47000000000E+01 0.  1.
         11    1    6    6    0    0 -0.51022456217E+02 -0.31226370954E+02 -0.19186641804E+02  0.62821210630E+02  0.00000000000E+00 0. -1.
        -12    1    6    6    0    0 -0.90457806247E+01  0.36856991660E+02 -0.33055705804E+02  0.50328358483E+02  0.00000000000E+00 0.  1.
</event>
<event>
12    1  0.8356052E-002  0.2760892E+03  0.7818608E-02  0.1097890E+00
         21   -1    0    0  501  502  0.00000000000E+00  0.00000000000E+00  0.52570521485E+03  0.52570521485E+03  0.00000000000E+00 0.  1.
         21   -1    0    0  502  503 -0.00000000000E+00 -0.00000000000E+00 -0.14490394994E+03  0.14490394994E+03  0.00000000000E+00 0. -1.
         -6    2    1    2    0  503 -0.21095814311E+03 -0.47087464644E+02  0.19836544237E+03  0.33996188877E+03  0.17176923363E+03 0.  0.
        -24    2    3    3    0    0 -0.21010861320E+03 -0.69878988548E+02  0.13230770607E+03  0.26991983149E+03  0.79515306501E+02 0.  0.
          6    2    1    2  501    0  0.21095814311E+03  0.47087464644E+02  0.18243582254E+03  0.33064727602E+03  0.17124317307E+03 0.  0.
         24    2    5    5    0    0  0.23645643148E+02  0.39312780420E+01  0.54894280176E+02  0.99915041361E+02  0.79969132214E+02 0.  0.
          5    1    5    5  501    0  0.18731249996E+03  0.43156186602E+02  0.12754154236E+03  0.23073223466E+03  0.47000000000E+01 0. -1.
        -11    1    6    6    0    0  0.15512302570E+02 -0.31479520528E+02  0.52958000078E+02  0.63530634468E+02  0.00000000000E+00 0.  1.
         12    1    6    6    0    0  0.81333405779E+01  0.35410798570E+02  0.19362800988E+01  0.36384406893E+02  0.00000000000E+00 0. -1.
         -5    1    3    3    0  503 -0.84952991373E+00  0.22791523904E+02  0.66057736304E+02  0.70042057284E+02  0.47000000000E+01 0.  1.
         11    1    4    4    0    0 -0.16144312707E+03 -0.71236512659E+02  0.13342024247E+03  0.22122270479E+03  0.00000000000E+00 0. -1.
        -12    1    4    4    0    0 -0.48665486124E+02  0.13575241101E+01 -0.11125364060E+01  0.48697126698E+02  0.00000000000E+00 0.  1.
</event>
<event>
12    1  0.8356052E-002  0.3143615E+03  0.7818608E-02  0.1078337E+00
         21   -1    0    0  503  502  0.00000000000E+00  0.00000000000E+00  0.24758312250E+03  0.24758312250E+03  0.00000000000E+00 0. -1.
         21   -1    0    0  501  503 -0.00000000000E+00 -0.00000000000E+00 -0.42871258493E+03  0.42871258493E+03  0.00000000000E+00 0.  1.
          6    2    1    2  501    0  0.16659871459E+03 -0.20324393920E+03 -0.18030291746E+03  0.36193314838E+03  0.17153201253E+03 0.  0.
         24    2    3    3    0    0  0.77741929040E+02 -0.76027111460E+02 -0.16046785425E+02  0.13592028036E+03  0.79955575681E+02 0.  0.
         -6    2    1    2    0  502 -0.16659871459E+03  0.20324393920E+03 -0.82654497340E+00  0.31436255905E+03  0.17251059339E+03 0.  0.
        -24    2    5    5    0    0 -0.15042428671E+03  0.11590449322E+03  0.49550083924E+02  0.21213885495E+03  0.80537974784E+02 0.  0.
          5    1    3    3  501    0  0.88856785553E+02 -0.12721682774E+03 -0.16425613203E+03  0.22601286802E+03  0.47000000000E+01 0. -1.
        -13    1    4    4    0    0 -0.10301054773E+02  0.28907951392E+01  0.10227201105E+02  0.14800813100E+02  0.00000000000E+00 0.  1.
         14    1    4    4    0    0  0.88042983813E+02 -0.78917906599E+02 -0.26273986530E+02  0.12111946726E+03  0.00000000000E+00 0. -1.
         -5    1    5    5    0  502 -0.16174427885E+02  0.87339445976E+02 -0.50376628898E+02  0.10222370410E+03  0.47000000000E+01 0.  1.
         11    1    6    6    0    0 -0.10270275348E+03  0.10756511966E+03  0.90529108245E+01  0.14899686485E+03  0.00000000000E+00 0. -1.
        -12    1    6    6    0    0 -0.47721533227E+02  0.83393735594E+01  0.40497173100E+02  0.63141990102E+02  0.00000000000E+00 0.  1.
</event>
<event>
12    1  0.8356052E-002  0.2039406E+03  0.7818608E-02  0.1146666E+00
         21   -1    0    0  501  502  0.00000000000E+00  0.00000000000E+00  0.98689116804E+03  0.98689116804E+03  0.00000000000E+00 0. -1.
         21   -1    0    0  502  503 -0.00000000000E+00 -0.00000000000E+00 -0.96149664148E+02  0.96149664148E+02  0.00000000000E+00 0.  1.
         -6    2    1    2    0  503  0.49934479305E+02  0.96611462613E+02  0.38253863270E+02  0.20649823284E+03  0.17132114632E+03 0.  0.
        -24    2    3    3    0    0 -0.38417399888E+02  0.60344428691E+02  0.37837665719E+02  0.11087597849E+03  0.75792130001E+02 0.  0.
          6    2    1    2  501    0 -0.49934479305E+02 -0.96611462613E+02  0.85248764063E+03  0.87654259936E+03  0.17252398133E+03 0.  0.
         24    2    5    5    0    0  0.44334833588E+02 -0.68513095530E+02  0.43349905068E+03  0.44613610534E+03  0.66756091998E+02 0.  0.
          5    1    5    5  501    0 -0.94269312893E+02 -0.28098367083E+02  0.41898858994E+03  0.43040649401E+03  0.47000000000E+01 0. -1.
        -11    1    6    6    0    0  0.87765382589E+01  0.12710290653E+02  0.42784821181E+02  0.45487581116E+02  0.00000000000E+00 0.  1.
         12    1    6    6    0    0  0.35558295329E+02 -0.81223386183E+02  0.39071422950E+03  0.40064852423E+03  0.00000000000E+00 0. -1.
         -5    1    3    3    0  503  0.88351879193E+02  0.36267033922E+02  0.41619755054E+00  0.95622254350E+02  0.47000000000E+01 0.  1.
         11    1    4    4    0    0 -0.12420556731E+02  0.25191122810E+02  0.56687435590E+02  0.63263956972E+02  0.00000000000E+00 0. -1.
        -12    1    4    4    0    0 -0.25996843157E+02  0.35153305882E+02 -0.18849769871E+02  0.47612021515E+02  0.00000000000E+00 0.  1.
</event>
<event>
12    1  0.8356052E-002  0.1771496E+03  0.7818608E-02  0.1171411E+00
         21   -1    0    0  503  502  0.00000000000E+00  0.00000000000E+00  0.19472505497E+02  0.19472505497E+02  0.00000000000E+00 0. -1.
         21   -1    0    0  501  503 -0.00000000000E+00 -0.00000000000E+00 -0.31535158512E+04  0.31535158512E+04  0.00000000000E+00 0. -1.
          6    2    1    2  501    0  0.26968100208E+02 -0.23913390366E+02 -0.26796477149E+04  0.26852821335E+04  0.17008566040E+03 0.  0.
         24    2    3    3    0    0  0.28325508082E+02 -0.65148135982E+02 -0.11162068818E+04  0.11212899739E+04  0.79541111914E+02 0.  0.
         -6    2    1    2    0  502 -0.26968100208E+02  0.23913390366E+02 -0.45439563083E+03  0.48770622322E+03  0.17344406067E+03 0.  0.
        -24    2    5    5    0    0 -0.34356524510E+02  0.41838675801E+02 -0.12136206335E+03  0.15407566147E+03  0.77972517370E+02 0.  0.
          5    1    3    3  501    0 -0.13574078741E+01  0.41234745616E+02 -0.15634408331E+04  0.15639921596E+04  0.47000000000E+01 0. -1.
        -13    1    4    4    0    0 -0.15404385288E+02  0.35221741551E+01 -0.63382497077E+02  0.65322597412E+02  0.00000000000E+00 0.  1.
         14    1    4    4    0    0  0.43729893370E+02 -0.68670310137E+02 -0.10528243848E+04  0.10559673765E+04  0.00000000000E+00 0. -1.
         -5    1    5    5    0  502  0.73884243027E+01 -0.17925285435E+02 -0.33303356748E+03  0.33363056176E+03  0.47000000000E+01 0.  1.
         11    1    6    6    0    0 -0.50403189149E+02  0.44042912455E+02 -0.12051588759E+03  0.13785622502E+03  0.00000000000E+00 0. -1.
        -12    1    6    6    0    0  0.16046664639E+02 -0.22042366544E+01 -0.84617576259E+00  0.16219436448E+02  0.00000000000E+00 0.  1.
</event>
<event>
12    1  0.8356052E-002  0.2215265E+03  0.7818608E-02  0.1133035E+00
         21   -1    0    0  501  502  0.00000000000E+00  0.00000000000E+00  0.96708626877E+02  0.96708626877E+02  0.00000000000E+00 0.  1.
         21   -1    0    0  502  503 -0.00000000000E+00 -0.00000000000E+00 -0.72958234514E+03  0.72958234514E+03  0.00000000000E+00 0.  1.
         -6    2    1    2    0  503 -0.13201784270E+03 -0.37676913108E+02 -0.54696662233E+03  0.59012411724E+03  0.17385547800E+03 0.  0.
        -24    2    3    3    0    0 -0.11840419985E+03  0.33118913117E+02 -0.40829350596E+03  0.43376010768E+03  0.79547640153E+02 0.  0.
          6    2    1    2  501    0  0.13201784270E+03  0.37676913108E+02 -0.85907095937E+02  0.23616685478E+03  0.17189093517E+03 0.  0.
         24    2    5    5    0    0  0.67242560707E+02  0.87791559393E+02 -0.45491536242E+02  0.14471838626E+03  0.81516940454E+02 0.  0.
          5    1    5    5  501    0  0.64775281993E+02 -0.50114646284E+02 -0.40415559695E+02  0.91448468522E+02  0.47000000000E+01 0. -1.
        -13    1    6    6    0    0  0.42146539893E+02  0.85059253225E+02 -0.63057941956E+02  0.11396364081E+03  0.00000000000E+00 0.  1.
         14    1    6    6    0    0  0.25096020814E+02  0.27323061679E+01  0.17566405713E+02  0.30754745445E+02  0.00000000000E+00 0. -1.
         -5    1    3    3    0  503 -0.13613642846E+02 -0.70795826225E+02 -0.13867311636E+03  0.15636400956E+03  0.47000000000E+01 0.  1.
         13    1    4    4    0    0 -0.67010274898E+02  0.19063093982E+02 -0.10625921175E+03  0.12706218389E+03  0.00000000000E+00 0. -1.
        -14    1    4    4    0    0 -0.51393924956E+02  0.14055819135E+02 -0.30203429422E+03  0.30669792379E+03  0.00000000000E+00 0.  1.
</event>
<event>
12    1  0.8356052E-002  0.1792759E+03  0.7818608E-02  0.1174919E+00
         21   -1    0    0  503  502  0.00000000000E+00  0.00000000000E+00  0.27093385917E+02  0.27093385917E+02  0.00000000000E+00 0.  1.
         21   -1    0    0  501  503 -0.00000000000E+00 -0.00000000000E+00 -0.11037142917E+04  0.11037142917E+04  0.00000000000E+00 0.  1.
          6    2    1    2  501    0  0.20261457174E+01  0.35562433663E+02 -0.72041889623E+03  0.74239022308E+03  0.17570163723E+03 0.  0.
         24    2    3    3    0    0  0.24154132161E+02  0.73562627433E+02 -0.65163686974E+03  0.66061785808E+03  0.76095086208E+02 0.  0.
         -6    2    1    2    0  502 -0.20261457174E+01 -0.35562433663E+02 -0.35620200958E+03  0.38841745457E+03  0.15072974301E+03 0.  0.
        -24    2    5    5    0    0  0.52814144531E+01  0.32185932993E+02 -0.20211767736E+03  0.21987276300E+03  0.80178854977E+02 0.  0.
          5    1    3    3  501    0 -0.22127986443E+02 -0.38000193771E+02 -0.68782026488E+02  0.81772365004E+02  0.47000000000E+01 0. -1.
        -11    1    4    4    0    0  0.38829386930E+02  0.55044048967E+02 -0.27093169835E+03  0.27918014576E+03  0.00000000000E+00 0.  1.
         12    1    4    4    0    0 -0.14675254769E+02  0.18518578467E+02 -0.38070517140E+03  0.38143771232E+03  0.00000000000E+00 0. -1.
         -5    1    5    5    0  502 -0.73075601706E+01 -0.67748366656E+02 -0.15408433222E+03  0.16854469157E+03  0.47000000000E+01 0.  1.
         11    1    6    6    0    0  0.18553065014E+02  0.21459395086E+01 -0.17836995076E+03  0.17934508806E+03  0.00000000000E+00 0. -1.
        -12    1    6    6    0    0 -0.13271650561E+02  0.30039993484E+02 -0.23747726605E+02  0.40527674940E+02  0.00000000000E+00 0.  1.
</event>
<event>
12    1  0.8356052E-002  0.1887088E+03  0.7818608E-02  0.1159840E+00
         21   -1    0    0  501  502  0.00000000000E+00  0.00000000000E+00  0.18399612082E+03  0.18399612082E+03  0.00000000000E+00 0.  1.
         21   -1    0    0  502  503 -0.00000000000E+00 -0.00000000000E+00 -0.26104593032E+03  0.26104593032E+03  0.00000000000E+00 0.  1.
         -6    2    1    2    0  503  0.67292502086E+02 -0.34347945514E+02 -0.15239438633E+03  0.24184799899E+03  0.17192540078E+03 0.  0.
        -24    2    3    3    0    0  0.63721446583E+02  0.22922117264E+02 -0.28778201263E+02  0.10548208045E+03  0.75580673545E+02 0.  0.
          6    2    1    2  501    0 -0.67292502086E+02  0.34347945514E+02  0.75344576837E+02  0.20319405215E+03  0.17292471013E+03 0.  0.
         24    2    5    5    0    0 -0.90275477505E+02  0.10001809292E+02  0.10285314639E+03  0.15960778245E+03  0.81524085197E+02 0.  0.
          5    1    5    5  501    0  0.22982975419E+02  0.24346136222E+02 -0.27508569552E+02  0.43586269706E+02  0.47000000000E+01 0. -1.
        -13    1    6    6    0    0 -0.59404800094E+02 -0.23933911573E+02  0.24026991216E+02  0.68403645402E+02  0.00000000000E+00 0.  1.
         14    1    6    6    0    0 -0.30870677411E+02  0.33935720865E+02  0.78826155173E+02  0.91204137043E+02  0.00000000000E+00 0. -1.
         -5    1    3    3    0  503  0.35710555034E+01 -0.57270062779E+02 -0.12361618507E+03  0.13636591854E+03  0.47000000000E+01 0.  1.
         11    1    4    4    0    0  0.43609696456E+02  0.36201761215E+02  0.12168458559E+02  0.57969341240E+02  0.00000000000E+00 0. -1.
        -12    1    4    4    0    0  0.20111750127E+02 -0.13279643950E+02 -0.40946659822E+02  0.47512739210E+02  0.00000000000E+00 0.  1.
</event>
<event>
12    1  0.8356052E-002  0.2059576E+03  0.7818608E-02  0.1145403E+00
         21   -1    0    0  503  502  0.00000000000E+00  0.00000000000E+00  0.91512931859E+03  0.91512931859E+03  0.00000000000E+00 0.  1.
         21   -1    0    0  501  503 -0.00000000000E+00 -0.00000000000E+00 -0.67815662384E+02  0.67815662384E+02  0.00000000000E+00 0.  1.
          6    2    1    2  501    0  0.60376561581E+02  0.90773189872E+02  0.14503131483E+03  0.25189805168E+03  0.17473821839E+03 0.  0.
         24    2    3    3    0    0 -0.21456680208E+02  0.82501377214E+02  0.11509546609E+03  0.16424334623E+03  0.80386840336E+02 0.  0.
         -6    2    1    2    0  502 -0.60376561581E+02 -0.90773189872E+02  0.70228234138E+03  0.73104692930E+03  0.17130097678E+03 0.  0.
        -24    2    5    5    0    0 -0.10033222988E+03 -0.65374690964E+02  0.60202306132E+03  0.62007147070E+03  0.87843359669E+02 0.  0.
          5    1    3    3  501    0  0.81833241789E+02  0.82718126581E+01  0.29935848742E+02  0.87654705443E+02  0.47000000000E+01 0. -1.
        -11    1    4    4    0    0  0.94561918445E+01  0.56780382220E+02  0.10941123416E+03  0.12362948487E+03  0.00000000000E+00 0.  1.
         12    1    4    4    0    0 -0.30912872053E+02  0.25720994995E+02  0.56842319323E+01  0.40613861362E+02  0.00000000000E+00 0. -1.
         -5    1    5    5    0  502  0.39955668294E+02 -0.25398498908E+02  0.10025928005E+03  0.11097545860E+03  0.47000000000E+01 0.  1.
         13    1    6    6    0    0 -0.30742779380E+02 -0.12643837153E+02  0.43406414395E+02  0.54672679764E+02  0.00000000000E+00 0. -1.
        -14    1    6    6    0    0 -0.69589450495E+02 -0.52730853810E+02  0.55861664693E+03  0.56539879093E+03  0.00000000000E+00 0.  1.
</event>
<event>
12    1  0.8356052E-002  0.2096918E+03  0.7818608E-02  0.1141928E+00
         21   -1    0    0  501  502  0.00000000000E+00  0.00000000000E+00  0.76739913662E+03  0.76739913662E+03  0.00000000000E+00 0.  1.
         21   -1    0    0  502  503 -0.00000000000E+00 -0.00000000000E+00 -0.13462031048E+03  0.13462031048E+03  0.00000000000E+00 0.  1.
         -6    2    1    2    0  503 -0.74428105005E+02 -0.92389449013E+02 -0.25967925015E+02  0.21070335148E+03  0.17218076575E+03 0.  0.
        -24    2    3    3    0    0 -0.55118874986E+02 -0.33927076783E+01  0.32609530813E+02  0.10232127426E+03  0.79728670006E+02 0.  0.
          6    2    1    2  501    0  0.74428105005E+02  0.92389449013E+02  0.65874675115E+03  0.69131609562E+03  0.17290259918E+03 0.  0.
         24    2    5    5    0    0  0.58028992862E+02  0.10103866206E+02  0.51796119425E+03  0.52735722563E+03  0.79701898002E+02 0.  0.
          5    1    5    5  501    0  0.16399112143E+02  0.82285582807E+02  0.14078555690E+03  0.16395886999E+03  0.47000000000E+01 0. -1.
        -11    1    6    6    0    0  0.45961587040E+02  0.43670049663E+02  0.32460553343E+03  0.33073901048E+03  0.00000000000E+00 0.  1.
         12    1    6    6    0    0  0.12067405822E+02 -0.33566183457E+02  0.19335566082E+03  0.19661821514E+03  0.00000000000E+00 0. -1.
         -5    1    3    3    0  503 -0.19309230019E+02 -0.88996741335E+02 -0.58577455828E+02  0.10838207722E+03  0.47000000000E+01 0.  1.
         11    1    4    4    0    0  0.13957418658E+02  0.50632310968E+00 -0.13301980589E+02  0.19287524109E+02  0.00000000000E+00 0. -1.
        -12    1    4    4    0    0 -0.69076293644E+02 -0.38990307880E+01  0.45911511402E+02  0.83033750149E+02  0.00000000000E+00 0.  1.
</event>
<event>
12    1  0.8356052E-002  0.3142745E+03  0.7818608E-02  0.1078371E+00
         21   -1    0    0  503  502  0.00000000000E+00  0.00000000000E+00  0.10225711479E+03  0.10225711479E+03  0.00000000000E+00 0.  1.
         21   -1    0    0  501  503 -0.00000000000E+00 -0.00000000000E+00 -0.97067631825E+03  0.97067631825E+03  0.00000000000E+00 0. -1.
          6    2    1    2  501    0 -0.25909541688E+03  0.48876126366E+02 -0.39083756332E+03  0.50122310732E+03  0.17015079085E+03 0.  0.
         24    2    3    3    0    0 -0.18182861230E+03 -0.28745924284E+02 -0.28640301795E+03  0.34981635018E+03  0.80354326289E+02 0.  0.
         -6    2    1    2    0  502  0.25909541688E+03 -0.48876126366E+02 -0.47758164014E+03  0.57171032571E+03  0.17102386603E+03 0.  0.
        -24    2    5    5    0    0  0.16412879885E+03 -0.28369230057E+02 -0.17709128991E+03  0.25586901759E+03  0.79778150997E+02 0.  0.
          5    1    3    3  501    0 -0.77266804586E+02  0.77622050649E+02 -0.10443454538E+03  0.15140675713E+03  0.47000000000E+01 0. -1.
        -13    1    4    4    0    0 -0.22400628159E+02 -0.18409589038E+02 -0.10201081473E+02  0.30737000077E+02  0.00000000000E+00 0.  1.
         14    1    4    4    0    0 -0.15942798414E+03 -0.10336335246E+02 -0.27620193647E+03  0.31907935011E+03  0.00000000000E+00 0. -1.
         -5    1    5    5    0  502  0.94966618039E+02 -0.20506896308E+02 -0.30049035022E+03  0.31584130812E+03  0.47000000000E+01 0.  1.
         13    1    6    6    0    0  0.25535888500E+02 -0.36255109997E+02 -0.57699101080E+02  0.72771566342E+02  0.00000000000E+00 0. -1.
        -14    1    6    6    0    0  0.13859291034E+03  0.78858799399E+01 -0.11939218883E+03  0.18309745125E+03  0.00000000000E+00 0.  1.
</event>
<event>
12    1  0.8356052E-002  0.2387428E+03  0.7818608E-02  0.1120701E+00
         21   -1    0    0  501  502  0.00000000000E+00  0.00000000000E+00  0.60751783872E+03  0.60751783872E+03  0.00000000000E+00 0.  1.
         21   -1    0    0  502  503 -0.00000000000E+00 -0.00000000000E+00 -0.16417855869E+03  0.16417855869E+03  0.00000000000E+00 0.  1.
         -6    2    1    2    0  503 -0.59981789382E+01 -0.16542020851E+03 -0.31095407691E+02  0.24075934460E+03  0.17204160572E+03 0.  0.
        -24    2    3    3    0    0  0.27838818483E+01 -0.52907344338E+02 -0.75209871902E+02  0.11949745797E+03  0.76263887568E+02 0.  0.
          6    2    1    2  501    0  0.59981789382E+01  0.16542020851E+03  0.47443468772E+03  0.53093705281E+03  0.17148194541E+03 0.  0.
         24    2    5    5    0    0  0.12089705324E+02  0.10807197494E+03  0.14671470859E+03  0.19814822892E+03  0.76888244640E+02 0.  0.
          5    1    5    5  501    0 -0.60915263853E+01  0.57348233566E+02  0.32771997913E+03  0.33278882389E+03  0.47000000000E+01 0. -1.
        -11    1    6    6    0    0 -0.80309696947E+01  0.43577783377E+02  0.11553378121E+03  0.12373994617E+03  0.00000000000E+00 0.  1.
         12    1    6    6    0    0  0.20120675018E+02  0.64494191564E+02  0.31180927382E+02  0.74408282745E+02  0.00000000000E+00 0. -1.
         -5    1    3    3    0  503 -0.87820607866E+01 -0.11251286417E+03  0.44114464210E+02  0.12126188662E+03  0.47000000000E+01 0.  1.
         11    1    4    4    0    0 -0.14108819236E+02 -0.58580297276E+02 -0.80825231367E+02  0.10081382859E+03  0.00000000000E+00 0. -1.
        -12    1    4    4    0    0  0.16892701084E+02  0.56729529379E+01  0.56153594657E+01  0.18683629382E+02  0.00000000000E+00 0.  1.
</event>
<event>
12    1  0.8356052E-002  0.2238510E+03  0.7818608E-02  0.1131267E+00
         21   -1    0    0  501  502  0.00000000000E+00  0.00000000000E+00  0.18231405503E+03  0.18231405503E+03  0.00000000000E+00 0. -1.
         21   -1    0    0  502  503 -0.00000000000E+00 -0.00000000000E+00 -0.35488157154E+03  0.35488157154E+03  0.00000000000E+00 0. -1.
         -6    2    1    2    0  503 -0.26110272625E+02  0.13789184810E+03 -0.21520076175E+03  0.31051675210E+03  0.17439431575E+03 0.  0.
        -24    2    3    3    0    0  0.41806139185E+02  0.47705593463E+02 -0.14748983565E+03  0.17878574195E+03  0.78660746159E+02 0.  0.
          6    2    1    2  501    0  0.26110272625E+02 -0.13789184810E+03  0.42633245248E+02  0.22667887447E+03  0.17282884719E+03 0.  0.
         24    2    5    5    0    0  0.19118010387E+02 -0.52351928324E+02  0.87331952587E+02  0.12979732801E+03  0.78193693449E+02 0.  0.
          5    1    5    5  501    0  0.69922622379E+01 -0.85539919776E+02 -0.44698707339E+02  0.96881546459E+02  0.47000000000E+01 0. -1.
        -13    1    6    6    0    0 -0.65069286007E+01  0.26780247687E+01  0.64592089824E+02  0.64974225692E+02  0.00000000000E+00 0.  1.
         14    1    6    6    0    0  0.25624938988E+02 -0.55029953093E+02  0.22739862763E+02  0.64823102317E+02  0.00000000000E+00 0. -1.
         -5    1    3    3    0  503 -0.67916411811E+02  0.90186254638E+02 -0.67710926109E+02  0.13173101014E+03  0.47000000000E+01 0.  1.
         13    1    4    4    0    0  0.26219606326E+02  0.67418515541E+02 -0.86117458493E+02  0.11246750931E+03  0.00000000000E+00 0. -1.
        -14    1    4    4    0    0  0.15586532860E+02 -0.19712922078E+02 -0.61372377153E+02  0.66318232642E+02  0.00000000000E+00 0.  1.
</event>
<event>
12    1  0.8356052E-002  0.1888690E+03  0.7818608E-02  0.1159901E+00
         21   -1    0    0  503  502  0.00000000000E+00  0.00000000000E+00  0.93542653145E+02  0.93542653145E+02  0.00000000000E+00 0. -1.
         21   -1    0    0  501  503 -0.00000000000E+00 -0.00000000000E+00 -0.50353146324E+03  0.50353146324E+03  0.00000000000E+00 0. -1.
          6    2    1    2  501    0  0.42990291645E+02  0.61133027964E+02 -0.35350055927E+03  0.39993857929E+03  0.17147247453E+03 0.  0.
         24    2    3    3    0    0  0.85406877534E+02  0.83800046302E+01 -0.25139126299E+03  0.27733985738E+03  0.79719948408E+02 0.  0.
         -6    2    1    2    0  502 -0.42990291645E+02 -0.61133027964E+02 -0.56488250829E+02  0.19713553709E+03  0.17345340936E+03 0.  0.
        -24    2    5    5    0    0  0.67494398805E+01 -0.62736480750E+02  0.21092285503E+02  0.10484555080E+03  0.81032611079E+02 0.  0.
          5    1    3    3  501    0 -0.42416585889E+02  0.52753023334E+02 -0.10210929627E+03  0.12259872191E+03  0.47000000000E+01 0. -1.
        -13    1    4    4    0    0  0.63097747904E+02 -0.11634604479E+02 -0.23411050050E+03  0.24274351950E+03  0.00000000000E+00 0.  1.
         14    1    4    4    0    0  0.22309129630E+02  0.20014609109E+02 -0.17280762490E+02  0.34596337883E+02  0.00000000000E+00 0. -1.
         -5    1    5    5    0  502 -0.49739731526E+02  0.16034527865E+01 -0.77580536332E+02  0.92289986297E+02  0.47000000000E+01 0.  1.
         11    1    6    6    0    0  0.17543098367E+02 -0.71216396445E+01 -0.25314918943E+02  0.31612073210E+02  0.00000000000E+00 0. -1.
        -12    1    6    6    0    0 -0.10793658486E+02 -0.55614841106E+02  0.46407204446E+02  0.73233477585E+02  0.00000000000E+00 0.  1.
</event>
<event>
12    1  0.8356052E-002  0.1888545E+03  0.7818608E-02  0.1159618E+00
         21   -1    0    0  503  502  0.00000000000E+00  0.00000000000E+00  0.96247963925E+03  0.96247963925E+03  0.00000000000E+00 0. -1.
         21   -1    0    0  501  503 -0.00000000000E+00 -0.00000000000E+00 -0.13198336910E+03  0.13198336910E+03  0.00000000000E+00 0.  1.
          6    2    1    2  501    0  0.64310505290E+01  0.77293510182E+02 -0.49260338437E+02  0.19466430615E+03  0.17161575108E+03 0.  0.
         24    2    3    3    0    0  0.49739373238E+02  0.28469382776E+02  0.18076412638E+02  0.10077216442E+03  0.80893519041E+02 0.  0.
         -6    2    1    2    0  502 -0.64310505290E+01 -0.77293510182E+02  0.87975660859E+03  0.89979870220E+03  0.17219282504E+03 0.  0.
        -24    2    5    5    0    0 -0.33630534698E+02 -0.78006713272E+02  0.33223400779E+03  0.35158030687E+03  0.77544929319E+02 0.  0.
          5    1    3    3  501    0 -0.43308322709E+02  0.48824127406E+02 -0.67336751076E+02  0.93892141728E+02  0.47000000000E+01 0. -1.
        -11    1    4    4    0    0 -0.27280045506E+01  0.36327031992E+02  0.29053229542E+02  0.46595980610E+02  0.00000000000E+00 0.  1.
         12    1    4    4    0    0  0.52467377789E+02 -0.78576492156E+01 -0.10976816903E+02  0.54176183813E+02  0.00000000000E+00 0. -1.
         -5    1    5    5    0  502  0.27199484169E+02  0.71320309003E+00  0.54752260080E+03  0.54821839533E+03  0.47000000000E+01 0.  1.
         13    1    6    6    0    0 -0.24149945808E+02 -0.93448118327E+02  0.28942831542E+03  0.30509755894E+03  0.00000000000E+00 0. -1.
        -14    1    6    6    0    0 -0.94805888899E+01  0.15441405055E+02  0.42805692368E+02  0.46482747928E+02  0.00000000000E+00 0.  1.
</event>
<event>
12    1  0.8356052E-002  0.2346742E+03  0.7818608E-02  0.1124522E+00
         21   -1    0    0  503  502  0.00000000000E+00  0.00000000000E+00  0.11318401192E+04  0.11318401192E+04  0.00000000000E+00 0. -1.
         21   -1    0    0  501  503 -0.00000000000E+00 -0.00000000000E+00 -0.99465326734E+02  0.99465326734E+02  0.00000000000E+00 0.  1.
          6    2    1    2  501    0  0.11993642466E+03  0.10498798361E+03  0.66997535417E+02  0.23781401168E+03  0.16327771354E+03 0.  0.
         24    2    3    3    0    0  0.36543606247E+02  0.11000466821E+03  0.20074364913E+02  0.14187964236E+03  0.79311982718E+02 0.  0.
         -6    2    1    2    0  502 -0.11993642466E+03 -0.10498798361E+03  0.96537725701E+03  0.99349143421E+03  0.17223460408E+03 0.  0.
        -24    2    5    5    0    0 -0.21197075122E+02 -0.93898267023E+02  0.39026111248E+03  0.40983647565E+03  0.79974998052E+02 0.  0.
          5    1    3    3  501    0  0.83392818411E+02 -0.50166846075E+01  0.46923170505E+02  0.95934369322E+02  0.47000000000E+01 0. -1.
        -11    1    4    4    0    0  0.37430443244E+02  0.19160173280E+02  0.28259097859E+02  0.50662875296E+02  0.00000000000E+00 0.  1.
         12    1    4    4    0    0 -0.88683699678E+00  0.90844494935E+02 -0.81847329461E+01  0.91216767062E+02  0.00000000000E+00 0. -1.
         -5    1    5    5    0  502 -0.98739349536E+02 -0.11089716584E+02  0.57511614453E+03  0.58365495857E+03  0.47000000000E+01 0.  1.
         13    1    6    6    0    0 -0.49703613007E+02 -0.64876979117E+02  0.29802183654E+03  0.30902505824E+03  0.00000000000E+00 0. -1.
        -14    1    6    6    0    0  0.28506537885E+02 -0.29021287906E+02  0.92239275944E+02  0.10081141741E+03  0.00000000000E+00 0.  1.
</event>
<event>
12    1  0.8356052E-002  0.2902578E+03  0.7818608E-02  0.1090385E+00
         21   -1    0    0  503  502  0.00000000000E+00  0.00000000000E+00  0.94254897561E+03  0.94254897561E+03  0.00000000000E+00 0.  1.
         21   -1    0    0  501  503 -0.00000000000E+00 -0.00000000000E+00 -0.16976829393E+03  0.16976829393E+03  0.00000000000E+00 0.  1.
          6    2    1    2  501    0 -0.85248938845E+02 -0.21637385120E+03  0.31974338281E+01  0.29027537718E+03  0.17367943447E+03 0.  0.
         24    2    3    3    0    0  0.22117564104E+01 -0.15209092233E+03 -0.34256578020E+02  0.17535557400E+03  0.80246642759E+02 0.  0.
         -6    2    1    2    0  502  0.85248938845E+02  0.21637385120E+03  0.76958324786E+03  0.82204189237E+03  0.17149190176E+03 0.  0.
        -24    2    5    5    0    0  0.15646832581E+01  0.38114994773E+02  0.19937574162E+03  0.21876918066E+03  0.81572464704E+02 0.  0.
          5    1    3    3  501    0 -0.87460695255E+02 -0.64282928862E+02  0.37454011848E+02  0.11491980317E+03  0.47000000000E+01 0. -1.
        -13    1    4    4    0    0  0.45294193978E+00 -0.12974477619E+03 -0.58511739806E+02  0.14232897035E+03  0.00000000000E+00 0.  1.
         14    1    4    4    0    0  0.17588144706E+01 -0.22346146141E+02  0.24255161786E+02  0.33026603655E+02  0.00000000000E+00 0. -1.
         -5    1    5    5    0  502  0.83684255586E+02  0.17825885642E+03  0.57020750623E+03  0.60327271171E+03  0.47000000000E+01 0.  1.
         13    1    6    6    0    0 -0.36950396758E+02  0.24908978745E+02  0.68612592754E+02  0.81813672006E+02  0.00000000000E+00 0. -1.
        -14    1    6    6    0    0  0.38515080016E+02  0.13206016028E+02  0.13076314887E+03  0.13695550865E+03  0.00000000000E+00 0.  1.
</event>
<event>
12    1  0.8356052E-002  0.2029431E+03  0.7818608E-02  0.1147333E+00
         21   -1    0    0  501  502  0.00000000000E+00  0.00000000000E+00  0.12313487282E+03  0.12313487282E+03  0.00000000000E+00 0.  1.
         21   -1    0    0  502  503 -0.00000000000E+00 -0.00000000000E+00 -0.41371806245E+03  0.41371806245E+03  0.00000000000E+00 0. -1.
         -6    2    1    2    0  503  0.90805029060E+02  0.58650541802E+02 -0.26315748629E+03  0.33232180627E+03  0.17175704055E+03 0.  0.
        -24    2    3    3    0    0  0.80766228014E+02  0.55847875665E+02 -0.28301431272E+03  0.30940857822E+03  0.77423499460E+02 0.  0.
          6    2    1    2  501    0 -0.90805029060E+02 -0.58650541802E+02 -0.27425703345E+02  0.20453112900E+03  0.17145079227E+03 0.  0.
         24    2    5    5    0    0 -0.11721374421E+03 -0.75340679655E+01 -0.34430748154E+01  0.14202056506E+03  0.79763162698E+02 0.  0.
          5    1    5    5  501    0  0.26408715149E+02 -0.51116473836E+02 -0.23982628529E+02  0.62510563942E+02  0.47000000000E+01 0. -1.
        -13    1    6    6    0    0 -0.45891953954E+02 -0.42474896982E+02 -0.15331552281E+00  0.62531686504E+02  0.00000000000E+00 0.  1.
         14    1    6    6    0    0 -0.71321790255E+02  0.34940829017E+02 -0.32897592926E+01  0.79488878554E+02  0.00000000000E+00 0. -1.
         -5    1    3    3    0  503  0.10038801046E+02  0.28026661362E+01  0.19856826430E+02  0.22913228053E+02  0.47000000000E+01 0.  1.
         13    1    4    4    0    0  0.19798800213E+02  0.34758565446E+02 -0.20161506517E+03  0.20554509205E+03  0.00000000000E+00 0. -1.
        -14    1    4    4    0    0  0.60967427801E+02  0.21089310220E+02 -0.81399247549E+02  0.10386348617E+03  0.00000000000E+00 0.  1.
</event>
<event>
12    1  0.8356052E-002  0.1806264E+03  0.7818608E-02  0.1167617E+00
         21   -1    0    0  501  502  0.00000000000E+00  0.00000000000E+00  0.12357438697E+03  0.12357438697E+03  0.00000000000E+00 0.  1.
         21   -1    0    0  502  503 -0.00000000000E+00 -0.00000000000E+00 -0.28536948244E+03  0.28536948244E+03  0.00000000000E+00 0.  1.
         -6    2    1    2    0  503  0.20962404839E+01  0.53847185859E+02 -0.14039473117E+03  0.22877188054E+03  0.17240063554E+03 0.  0.
        -24    2    3    3    0    0 -0.58262912873E+01 -0.14932349041E+02 -0.13757116935E+03  0.15932079392E+03  0.78742415641E+02 0.  0.
          6    2    1    2  501    0 -0.20962404839E+01 -0.53847185859E+02 -0.21400364309E+02  0.18017198887E+03  0.17058738620E+03 0.  0.
         24    2    5    5    0    0  0.67917138459E+01 -0.93506636936E+02 -0.46175158143E+02  0.13234157803E+03  0.81194393384E+02 0.  0.
          5    1    5    5  501    0 -0.88879543297E+01  0.39659451077E+02  0.24774793833E+02  0.47830410843E+02  0.47000000000E+01 0. -1.
        -11    1    6    6    0    0 -0.26863568678E+02 -0.47645528460E+02  0.61619364755E+01  0.55042866617E+02  0.00000000000E+00 0.  1.
         12    1    6    6    0    0  0.33655282524E+02 -0.45861108476E+02 -0.52337094618E+02  0.77298711409E+02  0.00000000000E+00 0. -1.
         -5    1    3    3    0  503  0.79225317712E+01  0.68779534899E+02 -0.28235618140E+01  0.69451086614E+02  0.47000000000E+01 0.  1.
         11    1    4    4    0    0 -0.35829837544E+02 -0.68068092545E+01 -0.11570290800E+03  0.12131476756E+03  0.00000000000E+00 0. -1.
        -12    1    4    4    0    0  0.30003546256E+02 -0.81255397862E+01 -0.21868261359E+02  0.38006026360E+02  0.00000000000E+00 0.  1.
</event>
<event>
12    1  0.8356052E-002  0.1835272E+03  0.7818608E-02  0.1164558E+00
         21   -1    0    0  503  502  0.00000000000E+00  0.00000000000E+00  0.86416339832E+02  0.86416339832E+02  0.00000000000E+00 0.  1.
         21   -1    0    0  501  503 -0.00000000000E+00 -0.00000000000E+00 -0.48334232884E+03  0.48334232884E+03  0.00000000000E+00 0.  1.
          6    2    1    2  501    0 -0.56931400613E+02  0.16938582060E+02 -0.32479109724E+03  0.37305693120E+03  0.17364940867E+03 0.  0.
         24    2    3    3    0    0 -0.26918095103E+02 -0.18979439222E+02 -0.31317186199E+03  0.32460077175E+03  0.78767016731E+02 0.  0.
         -6    2    1    2    0  502  0.56931400613E+02 -0.16938582060E+02 -0.72134891763E+02  0.19670173747E+03  0.17308966167E+03 0.  0.
        -24    2    5    5    0    0  0.77548471688E+02 -0.64213561086E+02 -0.30667676232E+02  0.13035712785E+03  0.76911166468E+02 0.  0.
          5    1    3    3  501    0 -0.30013305510E+02  0.35918021282E+02 -0.11619235253E+02  0.48456159446E+02  0.47000000000E+01 0. -1.
        -11    1    4    4    0    0  0.52232779809E+01 -0.44048101441E+02 -0.15057202784E+03  0.15696959400E+03  0.00000000000E+00 0.  1.
         12    1    4    4    0    0 -0.32141373084E+02  0.25068662220E+02 -0.16259983415E+03  0.16763117775E+03  0.00000000000E+00 0. -1.
         -5    1    5    5    0  502 -0.20617071075E+02  0.47274979026E+02 -0.41467215531E+02  0.66344609619E+02  0.47000000000E+01 0.  1.
         11    1    6    6    0    0  0.53163892159E+01 -0.24802245634E+01 -0.34759191072E+02  0.35250771228E+02  0.00000000000E+00 0. -1.
        -12    1    6    6    0    0  0.72232082472E+02 -0.61733336522E+02  0.40915148395E+01  0.95106356623E+02  0.00000000000E+00 0.  1.
</event>
<event>
12    1  0.8356052E-002  0.1801402E+03  0.7818608E-02  0.1168085E+00
         21   -1    0    0  503  502  0.00000000000E+00  0.00000000000E+00  0.33114710431E+02  0.33114710431E+02  0.00000000000E+00 0.  1.
         21   -1    0    0  501  503 -0.00000000000E+00 -0.00000000000E+00 -0.10265666278E+04  0.10265666278E+04  0.00000000000E+00 0.  1.
          6    2    1    2  501    0 -0.22925547591E+02 -0.44351344761E+02 -0.37528276208E+03  0.41627832664E+03  0.17308342267E+03 0.  0.
         24    2    3    3    0    0 -0.12679911898E+02  0.40187672963E+02 -0.19607413478E+03  0.21781009073E+03  0.84972584223E+02 0.  0.
         -6    2    1    2    0  502  0.22925547591E+02  0.44351344761E+02 -0.61816915526E+03  0.64340301156E+03  0.17129421547E+03 0.  0.
        -24    2    5    5    0    0 -0.29019220339E+01  0.74349136548E+01 -0.12246682911E+03  0.14563522712E+03  0.78407882603E+02 0.  0.
          5    1    3    3  501    0 -0.10245635694E+02 -0.84539017723E+02 -0.17920862730E+03  0.19846823591E+03  0.47000000000E+01 0. -1.
        -13    1    4    4    0    0 -0.44791664079E+02  0.11598098552E+02 -0.13801838923E+03  0.14556745799E+03  0.00000000000E+00 0.  1.
         14    1    4    4    0    0  0.32111752181E+02  0.28589574410E+02 -0.58055745550E+02  0.72242632735E+02  0.00000000000E+00 0. -1.
         -5    1    5    5    0  502  0.25827469625E+02  0.36916431106E+02 -0.49570232615E+03  0.49776778443E+03  0.47000000000E+01 0.  1.
         11    1    6    6    0    0  0.28139231105E+02  0.27092459070E+02 -0.82888091859E+02  0.91631072447E+02  0.00000000000E+00 0. -1.
        -12    1    6    6    0    0 -0.31041153139E+02 -0.19657545415E+02 -0.39578737253E+02  0.54004154678E+02  0.00000000000E+00 0.  1.
</event>
<event>
12    1  0.8356052E-002  0.1838294E+03  0.7818608E-02  0.1164327E+00
         21   -1    0    0  503  502  0.00000000000E+00  0.00000000000E+00  0.72467458015E+03  0.72467458015E+03  0.00000000000E+00 0.  1.
         21   -1    0    0  501  503 -0.00000000000E+00 -0.00000000000E+00 -0.80398095486E+02  0.80398095486E+02  0.00000000000E+00 0.  1.
          6    2    1    2  501    0 -0.52326429988E+02  0.31859035276E+02  0.60913610534E+02  0.19365879511E+03  0.17332111115E+03 0.  0.
         24    2    3    3    0    0 -0.69078610368E+02  0.61253491504E+02  0.88850613276E+02  0.14953130111E+03  0.77080048651E+02 0.  0.
         -6    2    1    2    0  502  0.52326429988E+02 -0.31859035276E+02  0.58336287413E+03  0.61141388053E+03  0.17251561374E+03 0.  0.
        -24    2    5    5    0    0 -0.26267274139E+02 -0.53735435306E+02  0.28086170232E+03  0.29806966699E+03  0.79904717356E+02 0.  0.
          5    1    3    3  501    0  0.16752180380E+02 -0.29394456228E+02 -0.27937002741E+02  0.44127493999E+02  0.47000000000E+01 0. -1.
        -11    1    4    4    0    0 -0.68674279789E+02  0.67186060425E+02  0.46445553418E+02  0.10671135297E+03  0.00000000000E+00 0.  1.
         12    1    4    4    0    0 -0.40433057893E+00 -0.59325689213E+01  0.42405059858E+02  0.42819948140E+02  0.00000000000E+00 0. -1.
         -5    1    5    5    0  502  0.78593704128E+02  0.21876400031E+02  0.30250117181E+03  0.31334421354E+03  0.47000000000E+01 0.  1.
         13    1    6    6    0    0 -0.27225118077E+01  0.86777012340E+01 -0.30340953087E+00  0.90998146461E+01  0.00000000000E+00 0. -1.
        -14    1    6    6    0    0 -0.23544762332E+02 -0.62413136540E+02  0.28116511185E+03  0.28896985235E+03  0.00000000000E+00 0.  1.
</event>
<event>
12    1  0.8356052E-002  0.2312031E+03  0.7818608E-02  0.1126613E+00
         21   -1    0    0  501  502  0.00000000000E+00  0.00000000000E+00  0.45491818801E+03  0.45491818801E+03  0.00000000000E+00 0. -1.
         21   -1    0    0  502  503 -0.00000000000E+00 -0.00000000000E+00 -0.12258555401E+03  0.12258555401E+03  0.00000000000E+00 0. -1.
         -6    2    1    2    0  503 -0.87894154311E+02 -0.11932494446E+03  0.23562106216E+03  0.32688852143E+03  0.17139135269E+03 0.  0.
        -24    2    3    3    0    0 -0.61082894874E+02 -0.14861459933E+03  0.22039102790E+03  0.28410100621E+03  0.79522055898E+02 0.  0.
          6    2    1    2  501    0  0.87894154311E+02  0.11932494446E+03  0.96711571828E+02  0.25061522059E+03  0.17745713829E+03 0.  0.
         24    2    5    5    0    0  0.12358062737E+03  0.53702464679E+02  0.64794277026E+02  0.16924791807E+03  0.79312251650E+02 0.  0.
          5    1    5    5  501    0 -0.35686473054E+02  0.65622479783E+02  0.31917294802E+02  0.81367302520E+02  0.47000000000E+01 0. -1.
        -11    1    6    6    0    0  0.12094689790E+02 -0.19511100187E+02  0.85256945406E+01  0.24487793266E+02  0.00000000000E+00 0.  1.
         12    1    6    6    0    0  0.11148593757E+03  0.73213564865E+02  0.56268582485E+02  0.14476012480E+03  0.00000000000E+00 0. -1.
         -5    1    3    3    0  503 -0.26811259437E+02  0.29289654869E+02  0.15230034269E+02  0.42787515221E+02  0.47000000000E+01 0.  1.
         13    1    4    4    0    0 -0.28971143437E+02 -0.13542804069E+03  0.14192823056E+03  0.19830205241E+03  0.00000000000E+00 0. -1.
        -14    1    4    4    0    0 -0.32111751438E+02 -0.13186558637E+02  0.78462797331E+02  0.85798953805E+02  0.00000000000E+00 0.  1.
</event>
<event>
12    1  0.8356052E-002  0.1786525E+03  0.7818608E-02  0.1170336E+00
         21   -1    0    0  503  502  0.00000000000E+00  0.00000000000E+00  0.63990142263E+03  0.63990142263E+03  0.00000000000E+00 0.  1.
         21   -1    0    0  501  503 -0.00000000000E+00 -0.00000000000E+00 -0.81201367033E+02  0.81201367033E+02  0.00000000000E+00 0.  1.
          6    2    1    2  501    0 -0.25601077150E+02 -0.34686011629E+02  0.52929827232E+02  0.18632840531E+03  0.17337293174E+03 0.  0.
         24    2    3    3    0    0 -0.40696387575E+02 -0.77088901208E+02  0.70869436629E+02  0.13764788532E+03  0.79533443492E+02 0.  0.
         -6    2    1    2    0  502  0.25601077150E+02  0.34686011629E+02  0.50577022836E+03  0.53477438435E+03  0.16829017708E+03 0.  0.
        -24    2    5    5    0    0  0.19034547563E+02  0.85692933912E+02  0.31014492774E+03  0.33244748630E+03  0.81399398143E+02 0.  0.
          5    1    3    3  501    0  0.15095310425E+02  0.42402889579E+02 -0.17939609397E+02  0.48680519993E+02  0.47000000000E+01 0. -1.
        -13    1    4    4    0    0  0.28710679306E+01 -0.12572634707E+02 -0.16294461201E+02  0.20780366704E+02  0.00000000000E+00 0.  1.
         14    1    4    4    0    0 -0.43567455506E+02 -0.64516266500E+02  0.87163897830E+02  0.11686751862E+03  0.00000000000E+00 0. -1.
         -5    1    5    5    0  502  0.65665295867E+01 -0.51006922283E+02  0.19562530062E+03  0.20232689805E+03  0.47000000000E+01 0.  1.
         13    1    6    6    0    0  0.15472898989E+00 -0.10977445408E+02  0.55074371477E+01  0.12282512475E+02  0.00000000000E+00 0. -1.
        -14    1    6    6    0    0  0.18879818574E+02  0.96670379320E+02  0.30463749060E+03  0.32016497382E+03  0.00000000000E+00 0.  1.
</event>
<event>
12    1  0.8356052E-002  0.2141427E+03  0.7818608E-02  0.1138803E+00
         21   -1    0    0  501  502  0.00000000000E+00  0.00000000000E+00  0.38372249602E+02  0.38372249602E+02  0.00000000000E+00 0. -1.
         21   -1    0    0  502  503 -0.00000000000E+00 -0.00000000000E+00 -0.14636732593E+04  0.14636732593E+04  0.00000000000E+00 0. -1.
         -6    2    1    2    0  503  0.67409404569E+02  0.10592469500E+03 -0.10391355116E+04  0.10604791149E+04  0.17043847252E+03 0.  0.
        -24    2    3    3    0    0  0.48437234529E+02  0.11689036587E+03 -0.10206178662E+04  0.10314070946E+04  0.78295866683E+02 0.  0.
          6    2    1    2  501    0 -0.67409404569E+02 -0.10592469500E+03 -0.38616549815E+03  0.44156639401E+03  0.17347339717E+03 0.  0.
         24    2    5    5    0    0 -0.36906460819E+02 -0.23686082110E+02 -0.31625036153E+03  0.32929958967E+03  0.80627608540E+02 0.  0.
          5    1    5    5  501    0 -0.30502943750E+02 -0.82238612889E+02 -0.69915136621E+02  0.11226680434E+03  0.47000000000E+01 0. -1.
        -11    1    6    6    0    0 -0.97500598447E+01 -0.42404393765E+02 -0.26363260961E+03  0.26719908145E+03  0.00000000000E+00 0.  1.
         12    1    6    6    0    0 -0.27156400975E+02  0.18718311655E+02 -0.52617751912E+02  0.62100508221E+02  0.00000000000E+00 0. -1.
         -5    1    3    3    0  503  0.18972170040E+02 -0.10965670875E+02 -0.18517645429E+02  0.29072020329E+02  0.47000000000E+01 0.  1.
         11    1    4    4    0    0  0.93651750759E+01  0.34641766266E+02 -0.59873101683E+03  0.59980545928E+03  0.00000000000E+00 0. -1.
        -12    1    4    4    0    0  0.39072059453E+02  0.82248599608E+02 -0.42188684934E+03  0.43160163533E+03  0.00000000000E+00 0.  1.
</event>
<event>
12    1  0.8356052E-002  0.2554526E+03  0.7818608E-02  0.1110280E+00
         21   -1    0    0  501  502  0.00000000000E+00  0.00000000000E+00  0.56974332525E+03  0.56974332525E+03  0.00000000000E+00 0.  1.
         21   -1    0    0  502  503 -0.00000000000E+00 -0.00000000000E+00 -0.11972492035E+03  0.11972492035E+03  0.00000000000E+00 0. -1.
         -6    2    1    2    0  503  0.13516111754E+03  0.13197630502E+03  0.14712333175E+03  0.29479023176E+03  0.17195852179E+03 0.  0.
        -24    2    3    3    0    0  0.15109093723E+02  0.65057869943E+02  0.11342070922E+03  0.15319742778E+03  0.78386117665E+02 0.  0.
          6    2    1    2  501    0 -0.13516111754E+03 -0.13197630502E+03  0.30289507316E+03  0.39467801384E+03  0.16834202234E+03 0.  0.
         24    2    5    5    0    0 -0.45554342875E+02 -0.11305244855E+03  0.24836665376E+03  0.28798722262E+03  0.79966189195E+02 0.  0.
          5    1    5    5  501    0 -0.89606774660E+02 -0.18923856465E+02  0.54528419394E+02  0.10669079121E+03  0.47000000000E+01 0. -1.
        -11    1    6    6    0    0  0.19719232339E+02 -0.39038467876E+02  0.50001885924E+02  0.66430705958E+02  0.00000000000E+00 0.  1.
         12    1    6    6    0    0 -0.65273575215E+02 -0.74013980676E+02  0.19836476784E+03  0.22155651667E+03  0.00000000000E+00 0. -1.
         -5    1    3    3    0  503  0.12005202381E+03  0.66918435075E+02  0.33702622522E+02  0.14159280398E+03  0.47000000000E+01 0.  1.
         13    1    4    4    0    0 -0.18665036417E+02  0.79284606736E+01  0.72378750979E+02  0.75166000734E+02  0.00000000000E+00 0. -1.
        -14    1    4    4    0    0  0.33774130139E+02  0.57129409269E+02  0.41041958245E+02  0.78031427045E+02  0.00000000000E+00 0.  1.
</event>
<event>
12    1  0.8356052E-002  0.2041025E+03  0.7818608E-02  0.1146695E+00
         21   -1    0    0  503  502  0.00000000000E+00  0.00000000000E+00  0.20205201170E+03  0.20205201170E+03  0.00000000000E+00 0.  1.
         21   -1    0    0  501  503 -0.00000000000E+00 -0.00000000000E+00 -0.28664517417E+03  0.28664517417E+03  0.00000000000E+00 0. -1.
          6    2    1    2  501    0 -0.10118565227E+03  0.44600292117E+02 -0.17308272935E+03  0.26623765958E+03  0.16940229603E+03 0.  0.
         24    2    3    3    0    0 -0.69002867731E+01  0.49363566912E+02 -0.44800605450E+02  0.10689271223E+03  0.83274137545E+02 0.  0.
         -6    2    1    2    0  502  0.10118565227E+03 -0.44600292117E+02  0.88489566883E+02  0.22245952628E+03  0.17155207695E+03 0.  0.
        -24    2    5    5    0    0  0.57397076386E+02 -0.16737041829E+01 -0.15021234037E+02  0.10205725373E+03  0.83023008274E+02 0.  0.
          5    1    3    3  501    0 -0.94285365498E+02 -0.47632747951E+01 -0.12828212390E+03  0.15934494735E+03  0.47000000000E+01 0. -1.
        -13    1    4    4    0    0 -0.29042183359E+02  0.22287123716E+02  0.13405726929E+02  0.38985610324E+02  0.00000000000E+00 0.  1.
         14    1    4    4    0    0  0.22141896586E+02  0.27076443196E+02 -0.58206332380E+02  0.67907101909E+02  0.00000000000E+00 0. -1.
         -5    1    5    5    0  502  0.43788575885E+02 -0.42926587934E+02  0.10351080092E+03  0.12040227256E+03  0.47000000000E+01 0.  1.
         11    1    6    6    0    0  0.15684455736E+01 -0.27699118528E+02 -0.27661112138E+02  0.39177012564E+02  0.00000000000E+00 0. -1.
        -12    1    6    6    0    0  0.55828630813E+02  0.26025414345E+02  0.12639878101E+02  0.62880241162E+02  0.00000000000E+00 0.  1.
</event>
<event>
12    1  0.8356052E-002  0.2001088E+03  0.7818608E-02  0.1149819E+00
         21   -1    0    0  501  502  0.00000000000E+00  0.00000000000E+00  0.67297593653E+03  0.67297593653E+03  0.00000000000E+00 0. -1.
         21   -1    0    0  502  503 -0.00000000000E+00 -0.00000000000E+00 -0.96908142576E+02  0.96908142576E+02  0.00000000000E+00 0. -1.
         -6    2    1    2    0  503  0.50403620145E+02 -0.88039987345E+02  0.48464072736E+02  0.20589392417E+03  0.17248761512E+03 0.  0.
        -24    2    3    3    0    0  0.64826466376E+02 -0.10737923724E+03  0.77390933186E+02  0.16793502093E+03  0.80498716644E+02 0.  0.
          6    2    1    2  501    0 -0.50403620145E+02  0.88039987345E+02  0.52760372122E+03  0.56399015493E+03  0.17154487437E+03 0.  0.
         24    2    5    5    0    0 -0.36915657895E+02  0.12757501498E+03  0.37050253935E+03  0.40136231328E+03  0.78622036419E+02 0.  0.
          5    1    5    5  501    0 -0.13487962250E+02 -0.39535027637E+02  0.15710118187E+03  0.16262784166E+03  0.47000000000E+01 0. -1.
        -11    1    6    6    0    0  0.20291047669E+02  0.25724695974E+02  0.46012693462E+02  0.56485879281E+02  0.00000000000E+00 0.  1.
         12    1    6    6    0    0 -0.57206705564E+02  0.10185031901E+03  0.32448984588E+03  0.34487643400E+03  0.00000000000E+00 0. -1.
         -5    1    3    3    0  503 -0.14422846230E+02  0.19339249899E+02 -0.28926860450E+02  0.37958903244E+02  0.47000000000E+01 0.  1.
         13    1    4    4    0    0  0.75142547944E+02 -0.50895947325E+02  0.56106664718E+02  0.10669938046E+03  0.00000000000E+00 0. -1.
        -14    1    4    4    0    0 -0.10316081569E+02 -0.56483289919E+02  0.21284268468E+02  0.61235640465E+02  0.00000000000E+00 0.  1.
</event>
<event>
12    1  0.8356052E-002  0.1902266E+03  0.7818608E-02  0.1158703E+00
         21   -1    0    0  501  502  0.00000000000E+00  0.00000000000E+00  0.84804104081E+03  0.84804104081E+03  0.00000000000E+00 0.  1.
         21   -1    0    0  502  503 -0.00000000000E+00 -0.00000000000E+00 -0.13800098356E+03  0.13800098356E+03  0.00000000000E+00 0.  1.
         -6    2    1    2    0  503  0.29243110342E+02 -0.73302718573E+02 -0.55129087442E+02  0.19805400711E+03  0.17308300147E+03 0.  0.
        -24    2    3    3    0    0  0.82785322796E+02 -0.58055747435E+02 -0.16608428112E+02  0.13019260542E+03  0.80314352029E+02 0.  0.
          6    2    1    2  501    0 -0.29243110342E+02  0.73302718573E+02  0.76516914470E+03  0.78798801726E+03  0.17091766234E+03 0.  0.
         24    2    5    5    0    0  0.25322906617E+02  0.76544305548E+02  0.65627254180E+03  0.66605148371E+03  0.80191330685E+02 0.  0.
          5    1    5    5  501    0 -0.54566016959E+02 -0.32415869748E+01  0.10889660290E+03  0.12193653355E+03  0.47000000000E+01 0. -1.
        -11    1    6    6    0    0 -0.85719498229E+01  0.36174030802E+02  0.49475950182E+03  0.49615421339E+03  0.00000000000E+00 0.  1.
         12    1    6    6    0    0  0.33894856440E+02  0.40370274747E+02  0.16151303998E+03  0.16989727031E+03  0.00000000000E+00 0. -1.
         -5    1    3    3    0  503 -0.53542212454E+02 -0.15246971139E+02 -0.38520659330E+02  0.67861401685E+02  0.47000000000E+01 0.  1.
         13    1    4    4    0    0  0.86316162149E+02 -0.55264349559E+02 -0.37261135611E+02  0.10905512554E+03  0.00000000000E+00 0. -1.
        -14    1    4    4    0    0 -0.35308393523E+01 -0.27913978755E+01  0.20652707499E+02  0.21137479880E+02  0.00000000000E+00 0.  1.
</event>
<event>
12    1  0.8356052E-002  0.1773255E+03  0.7818608E-02  0.1170579E+00
         21   -1    0    0  503  502  0.00000000000E+00  0.00000000000E+00  0.74226883307E+03  0.74226883307E+03  0.00000000000E+00 0.  1.
         21   -1    0    0  501  503 -0.00000000000E+00 -0.00000000000E+00 -0.81005412779E+03  0.81005412779E+03  0.00000000000E+00 0.  1.
          6    2    1    2  501    0 -0.37076475478E+00  0.40781666006E+02 -0.78956680169E+03  0.80923424860E+03  0.17257187787E+03 0.  0.
         24    2    3    3    0    0 -0.86680219977E+01  0.86360776188E+02 -0.45904584569E+03  0.47544914990E+03  0.88292057534E+02 0.  0.
         -6    2    1    2    0  502  0.37076475478E+00 -0.40781666006E+02  0.72178150697E+03  0.74308871225E+03  0.17189825107E+03 0.  0.
        -24    2    5    5    0    0  0.14988932339E+02 -0.55697184850E+02  0.22941270226E+03  0.25025477128E+03  0.81672627574E+02 0.  0.
          5    1    3    3  501    0  0.82972572429E+01 -0.45579110182E+02 -0.33052095600E+03  0.33378509871E+03  0.47000000000E+01 0. -1.
        -13    1    4    4    0    0  0.39988765534E+02  0.41177022889E+02 -0.21582161283E+03  0.22332401830E+03  0.00000000000E+00 0.  1.
         14    1    4    4    0    0 -0.48656787531E+02  0.45183753298E+02 -0.24322423286E+03  0.25212513160E+03  0.00000000000E+00 0. -1.
         -5    1    5    5    0  502 -0.14618167584E+02  0.14915518845E+02  0.49236880471E+03  0.49283394098E+03  0.47000000000E+01 0.  1.
         13    1    6    6    0    0  0.44740699259E+02 -0.11864427634E+02  0.12207481063E+03  0.13055555984E+03  0.00000000000E+00 0. -1.
        -14    1    6    6    0    0 -0.29751766920E+02 -0.43832757216E+02  0.10733789163E+03  0.11969921144E+03  0.00000000000E+00 0.  1.
</event>
<event>
12    1  0.8356052E-002  0.2779216E+03  0.7818608E-02  0.1096841E+00
         21   -1    0    0  503  502  0.00000000000E+00  0.00000000000E+00  0.31156192362E+03  0.31156192362E+03  0.00000000000E+00 0. -1.
         21   -1    0    0  501  503 -0.00000000000E+00 -0.00000000000E+00 -0.25229559892E+03  0.25229559892E+03  0.00000000000E+00 0. -1.
          6    2    1    2  501    0  0.21266989796E+03 -0.50534181154E+02  0.67084039204E+02  0.28582602249E+03  0.17150527062E+03 0.  0.
         24    2    3    3    0    0  0.62415826138E+02  0.56763909521E+01 -0.17577483664E+02  0.10437195675E+03  0.81587870776E+02 0.  0.
         -6    2    1    2    0  502 -0.21266989796E+03  0.50534181154E+02 -0.78177145094E+01  0.27803150005E+03  0.17163394011E+03 0.  0.
        -24    2    5    5    0    0 -0.11095361370E+03  0.69854072115E+02  0.46587291251E+02  0.16097828428E+03  0.80952680741E+02 0.  0.
          5    1    3    3  501    0  0.15025407183E+03 -0.56210572107E+02  0.84661522869E+02  0.18145406573E+03  0.47000000000E+01 0. -1.
        -11    1    4    4    0    0  0.26147736863E+02 -0.26773171938E+02  0.20417565898E+02  0.42630785541E+02  0.00000000000E+00 0.  1.
         12    1    4    4    0    0  0.36268089276E+02  0.32449562890E+02 -0.37995049562E+02  0.61741171213E+02  0.00000000000E+00 0. -1.
         -5    1    5    5    0  502 -0.10171628427E+03 -0.19319890960E+02 -0.54405005761E+02  0.11705321578E+03  0.47000000000E+01 0.  1.
         11    1    6    6    0    0 -0.38888005186E+02  0.57209595936E+02 -0.80786421801E+01  0.69645382288E+02  0.00000000000E+00 0. -1.
        -12    1    6    6    0    0 -0.72065608513E+02  0.12644476179E+02  0.54665933431E+02  0.91332901991E+02  0.00000000000E+00 0.  1.
</event>
<event>
12    1  0.8356052E-002  0.1756166E+03  0.7818608E-02  0.1174272E+00
         21   -1    0    0  503  502  0.00000000000E+00  0.00000000000E+00  0.59281431872E+03  0.59281431872E+03  0.00000000000E+00 0. -1.
         21   -1    0    0  501  503 -0.00000000000E+00 -0.00000000000E+00 -0.20842805458E+03  0.20842805458E+03  0.00000000000E+00 0. -1.
          6    2    1    2  501    0 -0.75795087335E+01 -0.83168670924E+00 -0.15642049973E+03  0.23517774853E+03  0.17545101884E+03 0.  0.
         24    2    3    3    0    0 -0.49999853189E+02 -0.15365482909E+02 -0.15875416467E+03  0.19003073481E+03  0.90403052988E+02 0.  0.
         -6    2    1    2    0  502  0.75795087335E+01  0.83168670924E+00  0.54080676386E+03  0.56606462477E+03  0.16703012580E+03 0.  0.
        -24    2    5    5    0    0  0.59768471761E+02  0.14983676187E+02  0.35961034455E+03  0.37691336509E+03  0.94590190338E+02 0.  0.
          5    1    3    3  501    0  0.42420344455E+02  0.14533796199E+02  0.23336649360E+01  0.45147013718E+02  0.47000000000E+01 0. -1.
        -11    1    4    4    0    0 -0.69292674691E+01 -0.52964498282E+01  0.11324941558E+02  0.14294104720E+02  0.00000000000E+00 0.  1.
         12    1    4    4    0    0 -0.43070585720E+02 -0.10069033081E+02 -0.17007910622E+03  0.17573663009E+03  0.00000000000E+00 0. -1.
         -5    1    5    5    0  502 -0.52188963028E+02 -0.14151989478E+02  0.18119641931E+03  0.18915125968E+03  0.47000000000E+01 0.  1.
         11    1    6    6    0    0  0.31755884436E+02  0.54912905488E+02  0.18252857929E+03  0.19323701934E+03  0.00000000000E+00 0. -1.
        -12    1    6    6    0    0  0.28012587325E+02 -0.39929229301E+02  0.17708176526E+03  0.18367634575E+03  0.00000000000E+00 0.  1.
</event>
<event>
12    1  0.8356052E-002  0.2266228E+03  0.7818608E-02  0.1129556E+00
         21   -1    0    0  501  502  0.00000000000E+00  0.00000000000E+00  0.15659907593E+03  0.15659907593E+03  0.00000000000E+00 0. -1.
         21   -1    0    0  502  503 -0.00000000000E+00 -0.00000000000E+00 -0.40774500529E+03  0.40774500529E+03  0.00000000000E+00 0. -1.
         -6    2    1    2    0  503 -0.75886380742E+02 -0.12690965829E+03 -0.25294308925E+03  0.33771413664E+03  0.16794590658E+03 0.  0.
        -24    2    3    3    0    0  0.56939317002E+01 -0.11026806931E+03 -0.12285723137E+03  0.18319323099E+03  0.79211063709E+02 0.  0.
          6    2    1    2  501    0  0.75886380742E+02  0.12690965829E+03  0.17971598938E+01  0.22662994458E+03  0.17173554626E+03 0.  0.
         24    2    5    5    0    0  0.47902074688E+02  0.48987673054E+02  0.63813673533E+02  0.12307756589E+03  0.79884300243E+02 0.  0.
          5    1    5    5  501    0  0.27984306054E+02  0.77921985234E+02 -0.62016513640E+02  0.10355237869E+03  0.47000000000E+01 0. -1.
        -11    1    6    6    0    0 -0.17667929965E+02  0.31276782394E+01 -0.37756578946E+01  0.18335585972E+02  0.00000000000E+00 0.  1.
         12    1    6    6    0    0  0.65570004652E+02  0.45859994815E+02  0.67589331428E+02  0.10474197992E+03  0.00000000000E+00 0. -1.
         -5    1    3    3    0  503 -0.81580312442E+02 -0.16641588980E+02 -0.13008585788E+03  0.15452090564E+03  0.47000000000E+01 0.  1.
         13    1    4    4    0    0 -0.14897452515E+02 -0.11242583374E+03 -0.91994138497E+02  0.14602884545E+03  0.00000000000E+00 0. -1.
        -14    1    4    4    0    0  0.20591384215E+02  0.21577644355E+01 -0.30863092876E+02  0.37164385547E+02  0.00000000000E+00 0.  1.
</event>
<event>
12    1  0.8356052E-002  0.3130308E+03  0.7818608E-02  0.1078956E+00
         21   -1    0    0  501  502  0.00000000000E+00  0.00000000000E+00  0.11463831031E+03  0.11463831031E+03  0.00000000000E+00 0.  1.
         21   -1    0    0  502  503 -0.00000000000E+00 -0.00000000000E+00 -0.11760371031E+04  0.11760371031E+04  0.00000000000E+00 0. -1.
         -6    2    1    2    0  503 -0.58485942598E+02 -0.25440121190E+03 -0.19302901447E+03  0.36776146732E+03  0.17276491055E+03 0.  0.
        -24    2    3    3    0    0 -0.43718360506E+02 -0.20077916317E+03 -0.67612279454E+02  0.23048491064E+03  0.79550652364E+02 0.  0.
          6    2    1    2  501    0  0.58485942598E+02  0.25440121190E+03 -0.86836977828E+03  0.92291394605E+03  0.17194039050E+03 0.  0.
         24    2    5    5    0    0  0.47589116766E+02  0.97121109278E+02 -0.24139165018E+03  0.27640065569E+03  0.80188277125E+02 0.  0.
          5    1    5    5  501    0  0.10896825832E+02  0.15728010263E+03 -0.62697812810E+03  0.64651329036E+03  0.47000000000E+01 0. -1.
        -13    1    6    6    0    0  0.27362811560E+02 -0.64732970814E+01 -0.65324396486E+02  0.71118941274E+02  0.00000000000E+00 0.  1.
         14    1    6    6    0    0  0.20226305205E+02  0.10359440636E+03 -0.17606725369E+03  0.20528171441E+03  0.00000000000E+00 0. -1.
         -5    1    3    3    0  503 -0.14767582092E+02 -0.53622048739E+02 -0.12541673502E+03  0.13727655668E+03  0.47000000000E+01 0.  1.
         13    1    4    4    0    0 -0.14505843684E+02 -0.61696042812E+02 -0.61382518042E+02  0.88230577017E+02  0.00000000000E+00 0. -1.
        -14    1    4    4    0    0 -0.29212516822E+02 -0.13908312035E+03 -0.62297614119E+01  0.14225433362E+03  0.00000000000E+00 0.  1.
</event>
<event>
12    1  0.8356052E-002  0.1869071E+03  0.7818608E-02  0.1161512E+00
         21   -1    0    0  503  502  0.00000000000E+00  0.00000000000E+00  0.26051192611E+03  0.26051192611E+03  0.00000000000E+00 0. -1.
         21   -1    0    0  501  503 -0.00000000000E+00 -0.00000000000E+00 -0.16241544553E+03  0.16241544553E+03  0.00000000000E+00 0. -1.
          6    2    1    2  501    0 -0.45361465167E+01 -0.72942225284E+02 -0.40249995189E+02  0.19119188680E+03  0.17202654043E+03 0.  0.
         24    2    3    3    0    0  0.40992599900E+02 -0.69742079426E+02  0.20575004872E+02  0.11500213476E+03  0.79106316339E+02 0.  0.
         -6    2    1    2    0  502  0.45361465167E+01  0.72942225284E+02  0.13834647577E+03  0.23173548483E+03  0.17093988042E+03 0.  0.
        -24    2    5    5    0    0 -0.51293498386E+01  0.11047044141E+03  0.71112659807E+02  0.15399061469E+03  0.80162774230E+02 0.  0.
          5    1    3    3  501    0 -0.45528746417E+02 -0.32001458581E+01 -0.60825000061E+02  0.76189752042E+02  0.47000000000E+01 0. -1.
        -11    1    4    4    0    0 -0.42390349026E+01 -0.18247054902E+02  0.39654606059E+02  0.43856723671E+02  0.00000000000E+00 0.  1.
         12    1    4    4    0    0  0.45231634803E+02 -0.51495024524E+02 -0.19079601186E+02  0.71145411089E+02  0.00000000000E+00 0. -1.
         -5    1    5    5    0  502  0.96654963553E+01 -0.37528216122E+02  0.67233815962E+02  0.77744870145E+02  0.47000000000E+01 0.  1.
         11    1    6    6    0    0 -0.37548486313E+02  0.68153585475E+02  0.20464567006E+02  0.80458675978E+02  0.00000000000E+00 0. -1.
        -12    1    6    6    0    0  0.32419136475E+02  0.42316855931E+02  0.50648092801E+02  0.73531938707E+02  0.00000000000E+00 0.  1.
</event>
<event>
12    1  0.8356052E-002  0.1806786E+03  0.7818608E-02  0.1167372E+00
         21   -1    0    0  503  502  0.00000000000E+00  0.00000000000E+00  0.48060469296E+03  0.48060469296E+03  0.00000000000E+00 0. -1.
         21   -1    0    0  501  503 -0.00000000000E+00 -0.00000000000E+00 -0.94202414645E+02  0.94202414645E+02  0.00000000000E+00 0. -1.
          6    2    1    2  501    0  0.44029000089E+02 -0.35667121904E+02  0.40759070749E+02  0.18521893288E+03  0.17156355912E+03 0.  0.
         24    2    3    3    0    0  0.34219058943E+02  0.27932871427E+02  0.68626681714E+02  0.11493459723E+03  0.80926824333E+02 0.  0.
         -6    2    1    2    0  502 -0.44029000089E+02  0.35667121904E+02  0.34564320756E+03  0.38958817472E+03  0.17058435600E+03 0.  0.
        -24    2    5    5    0    0 -0.49557411166E+02  0.63706788246E+02  0.34192140178E+03  0.36038666695E+03  0.80335626296E+02 0.  0.
          5    1    3    3  501    0  0.98099411455E+01 -0.63599993331E+02 -0.27867610965E+02  0.70284335651E+02  0.47000000000E+01 0. -1.
        -13    1    4    4    0    0  0.31899894495E+02  0.31088365469E+02 -0.16260614963E+01  0.44572792288E+02  0.00000000000E+00 0.  1.
         14    1    4    4    0    0  0.23191644480E+01 -0.31554940419E+01  0.70252743211E+02  0.70361804944E+02  0.00000000000E+00 0. -1.
         -5    1    5    5    0  502  0.55284110776E+01 -0.28039666342E+02  0.37218057860E+01  0.29201507768E+02  0.47000000000E+01 0.  1.
         11    1    6    6    0    0 -0.71194235878E+02  0.40121923326E+02  0.23715573789E+03  0.25084104921E+03  0.00000000000E+00 0. -1.
        -12    1    6    6    0    0  0.21636824712E+02  0.23584864919E+02  0.10476566388E+03  0.10954561774E+03  0.00000000000E+00 0.  1.
</event>
<event>
12    1  0.8356052E-002  0.1888274E+03  0.7818608E-02  0.1159697E+00
         21   -1    0    0  501  502  0.00000000000E+00  0.00000000000E+00  0.73902823576E+03  0.73902823576E+03  0.00000000000E+00 0. -1.
         21   -1    0    0  502  503 -0.00000000000E+00 -0.00000000000E+00 -0.10585990478E+03  0.10585990478E+03  0.00000000000E+00 0. -1.
         -6    2    1    2    0  503 -0.72190990306E+02  0.23777209932E+02  0.47020547436E+01  0.18888590159E+03  0.17285508297E+03 0.  0.
        -24    2    3    3    0    0 -0.50296626242E+02 -0.35365364955E+02  0.48547426256E+02  0.11193322818E+03  0.79948329094E+02 0.  0.
          6    2    1    2  501    0  0.72190990306E+02 -0.23777209932E+02  0.62846627624E+03  0.65600223895E+03  0.17202378422E+03 0.  0.
         24    2    5    5    0    0  0.11643541631E+03 -0.24742354514E+02  0.49692562202E+03  0.51713707251E+03  0.79537963684E+02 0.  0.
          5    1    5    5  501    0 -0.44244426002E+02  0.96514458164E+00  0.13154065422E+03  0.13886516644E+03  0.47000000000E+01 0. -1.
        -11    1    6    6    0    0  0.74351934251E+02 -0.51209559020E+02  0.26543335359E+03  0.28036671390E+03  0.00000000000E+00 0.  1.
         12    1    6    6    0    0  0.42083482058E+02  0.26467204506E+02  0.23149226843E+03  0.23677035861E+03  0.00000000000E+00 0. -1.
         -5    1    3    3    0  503 -0.21894364064E+02  0.59142574887E+02 -0.43845371512E+02  0.76952673411E+02  0.47000000000E+01 0.  1.
         11    1    4    4    0    0  0.31901770008E+01 -0.39266430572E+02 -0.29376329887E+00  0.39396904650E+02  0.00000000000E+00 0. -1.
        -12    1    4    4    0    0 -0.53486803243E+02  0.39010656165E+01  0.48841189555E+02  0.72536323529E+02  0.00000000000E+00 0.  1.
</event>
<event>
12    1  0.8356052E-002  0.1746254E+03  0.7818608E-02  0.1173139E+00
         21   -1    0    0  501  502  0.00000000000E+00  0.00000000000E+00  0.17964878108E+04  0.17964878108E+04  0.00000000000E+00 0.  1.
         21   -1    0    0  502  503 -0.00000000000E+00 -0.00000000000E+00 -0.19082630296E+02  0.19082630296E+02  0.00000000000E+00 0.  1.
         -6    2    1    2    0  503 -0.15137921292E+02  0.22451230873E+02  0.58639214631E+03  0.61184130125E+03  0.17251322918E+03 0.  0.
        -24    2    3    3    0    0 -0.98432820802E+01  0.15422083657E+02  0.59392354394E+03  0.59934113864E+03  0.78293636767E+02 0.  0.
          6    2    1    2  501    0  0.15137921292E+02 -0.22451230873E+02  0.11910130342E+04  0.12037291399E+04  0.17239077714E+03 0.  0.
         24    2    5    5    0    0 -0.28550271316E+02 -0.94720930722E+01  0.10778101610E+04  0.10816058551E+04  0.85391123354E+02 0.  0.
          5    1    5    5  501    0  0.43688192608E+02 -0.12979137801E+02  0.11320287317E+03  0.12212328478E+03  0.47000000000E+01 0. -1.
        -13    1    6    6    0    0  0.25671127552E+02 -0.10217257781E+02  0.61661384165E+03  0.61723255655E+03  0.00000000000E+00 0.  1.
         14    1    6    6    0    0 -0.54221398868E+02  0.74516470861E+00  0.46119631939E+03  0.46437329853E+03  0.00000000000E+00 0. -1.
         -5    1    3    3    0  503 -0.52946392123E+01  0.70291472160E+01 -0.75313976344E+01  0.12500162611E+02  0.47000000000E+01 0.  1.
         13    1    4    4    0    0 -0.12706465652E+02  0.25019152483E+02  0.71321285905E+02  0.76642925854E+02  0.00000000000E+00 0. -1.
        -14    1    4    4    0    0  0.28631835721E+01 -0.95970688262E+01  0.52260225803E+03  0.52269821279E+03  0.00000000000E+00 0.  1.
</event>
<event>
12    1  0.8356052E-002  0.1900838E+03  0.7818608E-02  0.1160022E+00
         21   -1    0    0  503  502  0.00000000000E+00  0.00000000000E+00  0.40014121127E+03  0.40014121127E+03  0.00000000000E+00 0.  1.
         21   -1    0    0  501  503 -0.00000000000E+00 -0.00000000000E+00 -0.13711042412E+03  0.13711042412E+03  0.00000000000E+00 0.  1.
          6    2    1    2  501    0  0.54654599914E+02  0.28262159525E+02 -0.32535309383E+02  0.18583852284E+03  0.17231231895E+03 0.  0.
         24    2    3    3    0    0  0.88886300070E+01 -0.24070674608E+02  0.30672959928E+02  0.91760763305E+02  0.82588147407E+02 0.  0.
         -6    2    1    2    0  502 -0.54654599914E+02 -0.28262159525E+02  0.29556609654E+03  0.35141311255E+03  0.17984989101E+03 0.  0.
        -24    2    5    5    0    0 -0.15635380838E+02  0.63364392414E+00  0.53914941491E+02  0.10488758111E+03  0.88598629321E+02 0.  0.
          5    1    3    3  501    0  0.45765969907E+02  0.52332834133E+02 -0.63208269311E+02  0.94077759535E+02  0.47000000000E+01 0. -1.
        -11    1    4    4    0    0 -0.92052039633E+00 -0.39841211967E+02 -0.14901980798E+02  0.42546898365E+02  0.00000000000E+00 0.  1.
         12    1    4    4    0    0  0.98091504034E+01  0.15770537359E+02  0.45574940725E+02  0.49213864940E+02  0.00000000000E+00 0. -1.
         -5    1    5    5    0  502 -0.39019219076E+02 -0.28895803449E+02  0.24165115505E+03  0.24652553144E+03  0.47000000000E+01 0.  1.
         13    1    6    6    0    0 -0.44672429002E+02  0.42793200776E+00  0.11841547874E+01  0.44690169627E+02  0.00000000000E+00 0. -1.
        -14    1    6    6    0    0  0.29037048164E+02  0.20571191638E+00  0.52730786704E+02  0.60197411488E+02  0.00000000000E+00 0.  1.
</event>
<event>
12    1  0.8356052E-002  0.1760385E+03  0.7818608E-02  0.1171765E+00
         21   -1    0    0  501  502  0.00000000000E+00  0.00000000000E+00  0.35744092706E+03  0.35744092706E+03  0.00000000000E+00 0.  1.
         21   -1    0    0  502  503 -0.00000000000E+00 -0.00000000000E+00 -0.14302381102E+03  0.14302381102E+03  0.00000000000E+00 0.  1.
         -6    2    1    2    0  503 -0.32134704220E+02  0.18612909313E+02  0.26449257193E+03  0.31771979696E+03  0.17207692804E+03 0.  0.
        -24    2    3    3    0    0 -0.28350161808E+01  0.28795709453E+02  0.50275036676E+02  0.10121713289E+03  0.82946359042E+02 0.  0.
          6    2    1    2  501    0  0.32134704220E+02 -0.18612909313E+02 -0.50075455889E+02  0.18274494112E+03  0.17178207885E+03 0.  0.
         24    2    5    5    0    0  0.66925282168E+02  0.31539054371E+02 -0.56299092243E+02  0.12121098769E+03  0.77774098555E+02 0.  0.
          5    1    5    5  501    0 -0.34790577948E+02 -0.50151963684E+02  0.62236363534E+01  0.61533953431E+02  0.47000000000E+01 0. -1.
        -13    1    6    6    0    0  0.44056370103E+02  0.57586616669E+01 -0.70990500512E+02  0.83748296065E+02  0.00000000000E+00 0.  1.
         14    1    6    6    0    0  0.22868912066E+02  0.25780392704E+02  0.14691408269E+02  0.37462691628E+02  0.00000000000E+00 0. -1.
         -5    1    3    3    0  503 -0.29299688039E+02 -0.10182800140E+02  0.21421753525E+03  0.21650266407E+03  0.47000000000E+01 0.  1.
         13    1    4    4    0    0 -0.23337526294E+02  0.51215154460E+02  0.40368262045E+02  0.69262029716E+02  0.00000000000E+00 0. -1.
        -14    1    4    4    0    0  0.20502510113E+02 -0.22419445007E+02  0.99067746304E+01  0.31955103175E+02  0.00000000000E+00 0.  1.
</event>
<event>
12    1  0.8356052E-002  0.1782207E+03  0.7818608E-02  0.1169685E+00
         21   -1    0    0  503  502  0.00000000000E+00  0.00000000000E+00  0.11105700183E+03  0.11105700183E+03  0.00000000000E+00 0. -1.
         21   -1    0    0  501  503 -0.00000000000E+00 -0.00000000000E+00 -0.30779230870E+03  0.30779230870E+03  0.00000000000E+00 0. -1.
          6    2    1    2  501    0 -0.13805087676E+02  0.39063387010E+02 -0.15546969351E+03  0.23650255812E+03  0.17333812548E+03 0.  0.
         24    2    3    3    0    0 -0.50314989838E+02 -0.28926908472E+02 -0.59946125874E+02  0.11361034840E+03  0.77106478453E+02 0.  0.
         -6    2    1    2    0  502  0.13805087676E+02 -0.39063387010E+02 -0.41265613359E+02  0.18234675242E+03  0.17271641098E+03 0.  0.
        -24    2    5    5    0    0  0.39995586853E+02 -0.36832930806E+02  0.32235005213E+02  0.10414606117E+03  0.82770735988E+02 0.  0.
          5    1    3    3  501    0  0.36509902162E+02  0.67990295481E+02 -0.95523567636E+02  0.12289220972E+03  0.47000000000E+01 0. -1.
        -11    1    4    4    0    0 -0.21735395082E+02  0.24723148117E+02 -0.85605891510E+01  0.34013896260E+02  0.00000000000E+00 0.  1.
         12    1    4    4    0    0 -0.28579594756E+02 -0.53650056589E+02 -0.51385536723E+02  0.79596452137E+02  0.00000000000E+00 0. -1.
         -5    1    5    5    0  502 -0.26190499177E+02 -0.22304562033E+01 -0.73500618572E+02  0.78200691253E+02  0.47000000000E+01 0.  1.
         13    1    6    6    0    0  0.80617614295E+01 -0.57154349577E+02  0.58706691228E+01  0.58017897487E+02  0.00000000000E+00 0. -1.
        -14    1    6    6    0    0  0.31933825423E+02  0.20321418770E+02  0.26364336090E+02  0.46128163680E+02  0.00000000000E+00 0.  1.
</event>
<event>
12    1  0.8356052E-002  0.1817562E+03  0.7818608E-02  0.1168187E+00
         21   -1    0    0  501  502  0.00000000000E+00  0.00000000000E+00  0.34684166545E+03  0.34684166545E+03  0.00000000000E+00 0. -1.
         21   -1    0    0  502  503 -0.00000000000E+00 -0.00000000000E+00 -0.13210024895E+03  0.13210024895E+03  0.00000000000E+00 0. -1.
         -6    2    1    2    0  503  0.29315186065E+02  0.52363204742E+02 -0.28155138419E+02  0.17557078046E+03  0.16257644905E+03 0.  0.
        -24    2    3    3    0    0  0.38058517254E+02  0.44631789067E+02  0.40392721788E+02  0.10587774086E+03  0.78345878681E+02 0.  0.
          6    2    1    2  501    0 -0.29315186065E+02 -0.52363204742E+02  0.24289655492E+03  0.30337113395E+03  0.17156346690E+03 0.  0.
         24    2    5    5    0    0 -0.41085955412E+01  0.33447125453E+02  0.83948401104E+02  0.12092829200E+03  0.80254140084E+02 0.  0.
          5    1    5    5  501    0 -0.25206590524E+02 -0.85810330195E+02  0.15894815382E+03  0.18244284194E+03  0.47000000000E+01 0. -1.
        -13    1    6    6    0    0  0.27327822251E+02 -0.13338701779E+02  0.24983938592E+02  0.39356422878E+02  0.00000000000E+00 0.  1.
         14    1    6    6    0    0 -0.31436417792E+02  0.46785827232E+02  0.58964462512E+02  0.81571869126E+02  0.00000000000E+00 0. -1.
         -5    1    3    3    0  503 -0.87433311884E+01  0.77314156754E+01 -0.68547860207E+02  0.69693039592E+02  0.47000000000E+01 0.  1.
         13    1    4    4    0    0  0.52605174424E+02  0.34481583964E+01  0.12917768349E+02  0.54277646519E+02  0.00000000000E+00 0. -1.
        -14    1    4    4    0    0 -0.14546657171E+02  0.41183630670E+02  0.27474953439E+02  0.51600094346E+02  0.00000000000E+00 0.  1.
</event>
<event>
12    1  0.8356052E-002  0.2412780E+03  0.7818608E-02  0.1119090E+00
         21   -1    0    0  501  502  0.00000000000E+00  0.00000000000E+00  0.10004248374E+04  0.10004248374E+04  0.00000000000E+00 0. -1.
         21   -1    0    0  502  503 -0.00000000000E+00 -0.00000000000E+00 -0.58826778086E+02  0.58826778086E+02  0.00000000000E+00 0. -1.
         -6    2    1    2    0  503 -0.11550434010E+03 -0.12468120326E+03  0.40805121274E+03  0.47404733740E+03  0.17125545493E+03 0.  0.
        -24    2    3    3    0    0 -0.34609515776E+01 -0.64061031943E+02  0.25171035411E+03  0.27232207830E+03  0.81764405216E+02 0.  0.
          6    2    1    2  501    0  0.11550434010E+03  0.12468120326E+03  0.53354684657E+03  0.58520427809E+03  0.17001515985E+03 0.  0.
         24    2    5    5    0    0  0.58403946839E+02  0.13086408984E+03  0.47562068808E+03  0.50349618281E+03  0.82200584892E+02 0.  0.
          5    1    5    5  501    0  0.57100393260E+02 -0.61828865734E+01  0.57926158491E+02  0.81708095280E+02  0.47000000000E+01 0. -1.
        -11    1    6    6    0    0  0.63594626517E+02  0.75851684954E+02  0.38355236703E+03  0.39611888732E+03  0.00000000000E+00 0.  1.
         12    1    6    6    0    0 -0.51906796776E+01  0.55012404883E+02  0.92068321046E+02  0.10737729549E+03  0.00000000000E+00 0. -1.
         -5    1    3    3    0  503 -0.11204338852E+03 -0.60620171320E+02  0.15634085863E+03  0.20172525910E+03  0.47000000000E+01 0.  1.
         13    1    4    4    0    0 -0.28188338220E+02 -0.17088840234E+02  0.18059965482E+03  0.18358334945E+03  0.00000000000E+00 0. -1.
        -14    1    4    4    0    0  0.24727386642E+02 -0.46972191709E+02  0.71110699290E+02  0.88738728848E+02  0.00000000000E+00 0.  1.
</event>
<event>
12    1  0.8356052E-002  0.2786266E+03  0.7818608E-02  0.1096466E+00
         21   -1    0    0  501  502  0.00000000000E+00  0.00000000000E+00  0.15398606375E+03  0.15398606375E+03  0.00000000000E+00 0.  1.
         21   -1    0    0  502  503 -0.00000000000E+00 -0.00000000000E+00 -0.51326772599E+03  0.51326772599E+03  0.00000000000E+00 0. -1.
         -6    2    1    2    0  503  0.21770839508E+03 -0.19949812266E+02 -0.22493714494E+03  0.35809143652E+03  0.17273626554E+03 0.  0.
        -24    2    3    3    0    0  0.41585869361E+02 -0.57874754300E+00 -0.13940158789E+02  0.82526198538E+02  0.69903690452E+02 0.  0.
          6    2    1    2  501    0 -0.21770839508E+03  0.19949812266E+02 -0.13434451729E+03  0.30916235323E+03  0.17244700933E+03 0.  0.
         24    2    5    5    0    0 -0.13191456060E+03  0.48736643885E+02 -0.18954716211E+02  0.16244439283E+03  0.79070776776E+02 0.  0.
          5    1    5    5  501    0 -0.85793834487E+02 -0.28786831619E+02 -0.11538980108E+03  0.14671796040E+03  0.47000000000E+01 0. -1.
        -13    1    6    6    0    0 -0.13321599147E+03  0.51327695746E+02 -0.34302279088E+02  0.14682533529E+03  0.00000000000E+00 0.  1.
         14    1    6    6    0    0  0.13014308693E+01 -0.25910518605E+01  0.15347562877E+02  0.15619057536E+02  0.00000000000E+00 0. -1.
         -5    1    3    3    0  503  0.17612252572E+03 -0.19371064723E+02 -0.21099698616E+03  0.27556523798E+03  0.47000000000E+01 0.  1.
         11    1    4    4    0    0  0.11107474933E+02 -0.86147082193E+00 -0.40557743900E+02  0.42060060885E+02  0.00000000000E+00 0. -1.
        -12    1    4    4    0    0  0.30478394428E+02  0.28272327893E+00  0.26617585112E+02  0.40466137653E+02  0.00000000000E+00 0.  1.
</event>
<event>
12    1  0.8356052E-002  0.1843370E+03  0.7818608E-02  0.1163732E+00
         21   -1    0    0  501  502  0.00000000000E+00  0.00000000000E+00  0.17235351605E+03  0.17235351605E+03  0.00000000000E+00 0. -1.
         21   -1    0    0  502  503 -0.00000000000E+00 -0.00000000000E+00 -0.30268417054E+03  0.30268417054E+03  0.00000000000E+00 0. -1.
         -6    2    1    2    0  503  0.46661498471E+02 -0.44711994724E+02 -0.20562794838E+03  0.27615755058E+03  0.17263742838E+03 0.  0.
        -24    2    3    3    0    0  0.56647985276E+02 -0.86414153313E+02 -0.19104088657E+03  0.23061995818E+03  0.77540599951E+02 0.  0.
          6    2    1    2  501    0 -0.46661498471E+02  0.44711994724E+02  0.75297293885E+02  0.19888013600E+03  0.17235767496E+03 0.  0.
         24    2    5    5    0    0 -0.71929087401E+02  0.48532552226E+02  0.10347003195E+03  0.16055467606E+03  0.86847879962E+02 0.  0.
          5    1    5    5  501    0  0.25267588930E+02 -0.38205575023E+01 -0.28172738061E+02  0.38325459943E+02  0.47000000000E+01 0. -1.
        -11    1    6    6    0    0 -0.14221847442E+02  0.58681486358E+02  0.72265793320E+02  0.94170710255E+02  0.00000000000E+00 0.  1.
         12    1    6    6    0    0 -0.57707239960E+02 -0.10148934132E+02  0.31204238626E+02  0.66383965805E+02  0.00000000000E+00 0. -1.
         -5    1    3    3    0  503 -0.99864868050E+01  0.41702158589E+02 -0.14587061814E+02  0.45537592405E+02  0.47000000000E+01 0.  1.
         11    1    4    4    0    0  0.29006360235E+02 -0.10803515995E+02 -0.11775015497E+03  0.12175049851E+03  0.00000000000E+00 0. -1.
        -12    1    4    4    0    0  0.27641625042E+02 -0.75610637318E+02 -0.73290731602E+02  0.10886945967E+03  0.00000000000E+00 0.  1.
</event>
<event>
12    1  0.8356052E-002  0.2134916E+03  0.7818608E-02  0.1139070E+00
         21   -1    0    0  501  502  0.00000000000E+00  0.00000000000E+00  0.14571771012E+04  0.14571771012E+04  0.00000000000E+00 0. -1.
         21   -1    0    0  502  503 -0.00000000000E+00 -0.00000000000E+00 -0.34633221034E+02  0.34633221034E+02  0.00000000000E+00 0. -1.
         -6    2    1    2    0  503  0.12624325790E+03 -0.17652617882E+02  0.47482812368E+03  0.52061541189E+03  0.17125911646E+03 0.  0.
        -24    2    3    3    0    0  0.28276659142E+02  0.46459033570E+02  0.21410138102E+03  0.23476880501E+03  0.79492007134E+02 0.  0.
          6    2    1    2  501    0 -0.12624325790E+03  0.17652617882E+02  0.94771575647E+03  0.97119491033E+03  0.16972160650E+03 0.  0.
         24    2    5    5    0    0 -0.51993304365E+02  0.40585537894E+01  0.21668147648E+03  0.23625881603E+03  0.78406570822E+02 0.  0.
          5    1    5    5  501    0 -0.74249953537E+02  0.13594064092E+02  0.73103427999E+03  0.73493609430E+03  0.47000000000E+01 0. -1.
        -13    1    6    6    0    0  0.42833006922E+00 -0.25920955853E+02  0.28043995148E+02  0.38190903143E+02  0.00000000000E+00 0.  1.
         14    1    6    6    0    0 -0.52421634434E+02  0.29979509643E+02  0.18863748133E+03  0.19806791289E+03  0.00000000000E+00 0. -1.
         -5    1    3    3    0  503  0.97966598760E+02 -0.64111651452E+02  0.26072674266E+03  0.28584660688E+03  0.47000000000E+01 0.  1.
         13    1    4    4    0    0  0.49100296149E+02  0.33207189357E+02  0.86876286113E+02  0.10517150563E+03  0.00000000000E+00 0. -1.
        -14    1    4    4    0    0 -0.20823637007E+02  0.13251844213E+02  0.12722509491E+03  0.12959729938E+03  0.00000000000E+00 0.  1.
</event>
<event>
12    1  0.8356052E-002  0.1888665E+03  0.7818608E-02  0.1159542E+00
         21   -1    0    0  503  502  0.00000000000E+00  0.00000000000E+00  0.26539073097E+02  0.26539073097E+02  0.00000000000E+00 0.  1.
         21   -1    0    0  501  503 -0.00000000000E+00 -0.00000000000E+00 -0.13931982273E+04  0.13931982273E+04  0.00000000000E+00 0.  1.
          6    2    1    2  501    0 -0.61625247427E+02  0.46422672403E+02 -0.81850021746E+03  0.83995390009E+03  0.17212557236E+03 0.  0.
         24    2    3    3    0    0 -0.90804894000E+02  0.76894913824E+02 -0.68444254690E+03  0.69933541515E+03  0.80312304962E+02 0.  0.
         -6    2    1    2    0  502  0.61625247427E+02 -0.46422672403E+02 -0.54815893672E+03  0.57978340028E+03  0.17238861825E+03 0.  0.
        -24    2    5    5    0    0  0.25318189804E+02  0.14410628337E+02 -0.13020468202E+03  0.15584149160E+03  0.80527227329E+02 0.  0.
          5    1    3    3  501    0  0.29179646573E+02 -0.30472241421E+02 -0.13405767056E+03  0.14061848494E+03  0.47000000000E+01 0. -1.
        -13    1    4    4    0    0 -0.87364331871E+02  0.24084987385E+02 -0.42791618179E+03  0.43740698639E+03  0.00000000000E+00 0.  1.
         14    1    4    4    0    0 -0.34405621285E+01  0.52809926439E+02 -0.25652636511E+03  0.26192842876E+03  0.00000000000E+00 0. -1.
         -5    1    5    5    0  502  0.36307057623E+02 -0.60833300741E+02 -0.41795425470E+03  0.42394190868E+03  0.47000000000E+01 0.  1.
         11    1    6    6    0    0 -0.28257957026E+02  0.26678194463E+01 -0.28114874311E+02  0.39950914300E+02  0.00000000000E+00 0. -1.
        -12    1    6    6    0    0  0.53576146830E+02  0.11742808891E+02 -0.10208980771E+03  0.11589057730E+03  0.00000000000E+00 0.  1.
</event>
<event>
12    1  0.8356052E-002  0.2156249E+03  0.7818608E-02  0.1137278E+00
         21   -1    0    0  501  502  0.00000000000E+00  0.00000000000E+00  0.36026337420E+03  0.36026337420E+03  0.00000000000E+00 0. -1.
         21   -1    0    0  502  503 -0.00000000000E+00 -0.00000000000E+00 -0.13244736205E+03  0.13244736205E+03  0.00000000000E+00 0. -1.
         -6    2    1    2    0  503 -0.86316552838E+02  0.96729316832E+02  0.72994315636E+02  0.22764505697E+03  0.17229914050E+03 0.  0.
        -24    2    3    3    0    0 -0.31350125025E+02  0.29341259223E+02  0.99168775631E+02  0.13670743631E+03  0.83730145407E+02 0.  0.
          6    2    1    2  501    0  0.86316552838E+02 -0.96729316832E+02  0.15482169651E+03  0.26506567929E+03  0.17170599464E+03 0.  0.
         24    2    5    5    0    0  0.10547347971E+03 -0.16296835801E+02  0.95384648510E+02  0.16312832339E+03  0.78245619312E+02 0.  0.
          5    1    5    5  501    0 -0.19156926869E+02 -0.80432481031E+02  0.59437048003E+02  0.10193735590E+03  0.47000000000E+01 0. -1.
        -13    1    6    6    0    0 -0.75017949997E+01  0.63281281004E+01 -0.43542121577E+01  0.10736912824E+02  0.00000000000E+00 0.  1.
         14    1    6    6    0    0  0.11297527471E+03 -0.22624963901E+02  0.99738860668E+02  0.15239141057E+03  0.00000000000E+00 0. -1.
         -5    1    3    3    0  503 -0.54966427813E+02  0.67388057610E+02 -0.26174459995E+02  0.90937620658E+02  0.47000000000E+01 0.  1.
         13    1    4    4    0    0  0.29138525117E+01  0.28181812227E+02 -0.34237474354E+01  0.28538169586E+02  0.00000000000E+00 0. -1.
        -14    1    4    4    0    0 -0.34263977537E+02  0.11594469961E+01  0.10259252307E+03  0.10816926672E+03  0.00000000000E+00 0.  1.
</event>
<event>
12    1  0.8356052E-002  0.1793504E+03  0.7818608E-02  0.1168449E+00
         21   -1    0    0  501  502  0.00000000000E+00  0.00000000000E+00  0.81834872715E+02  0.81834872715E+02  0.00000000000E+00 0. -1.
         21   -1    0    0  502  503 -0.00000000000E+00 -0.00000000000E+00 -0.41209028082E+03  0.41209028082E+03  0.00000000000E+00 0. -1.
         -6    2    1    2    0  503 -0.50389295046E+02 -0.93211470819E-01 -0.11189243441E+03  0.21139177586E+03  0.17212633814E+03 0.  0.
        -24    2    3    3    0    0  0.19842818667E+02  0.15514418654E+02 -0.11125537526E+03  0.13929015480E+03  0.79934686228E+02 0.  0.
          6    2    1    2  501    0  0.50389295046E+02  0.93211470819E-01 -0.21836297370E+03  0.28253337768E+03  0.17205705878E+03 0.  0.
         24    2    5    5    0    0  0.29645202147E+02  0.63446524131E+02 -0.15128008596E+03  0.18784355012E+03  0.86575028033E+02 0.  0.
          5    1    5    5  501    0  0.20744092900E+02 -0.63353312660E+02 -0.67082887740E+02  0.94689827557E+02  0.47000000000E+01 0. -1.
        -13    1    6    6    0    0  0.37062644270E+02  0.76866399214E+02 -0.87407493863E+02  0.12215626432E+03  0.00000000000E+00 0.  1.
         14    1    6    6    0    0 -0.74174421235E+01 -0.13419875084E+02 -0.63872592097E+02  0.65687285803E+02  0.00000000000E+00 0. -1.
         -5    1    3    3    0  503 -0.70232113713E+02 -0.15607630125E+02 -0.63705914958E+00  0.72101621058E+02  0.47000000000E+01 0.  1.
         11    1    4    4    0    0 -0.20777548174E+02  0.30214076185E+02 -0.30453144820E+02  0.47665406085E+02  0.00000000000E+00 0. -1.
        -12    1    4    4    0    0  0.40620366841E+02 -0.14699657531E+02 -0.80802230438E+02  0.91624748717E+02  0.00000000000E+00 0.  1.
</event>
<event>
12    1  0.8356052E-002  0.2476674E+03  0.7818608E-02  0.1114856E+00
         21   -1    0    0  501  502  0.00000000000E+00  0.00000000000E+00  0.27080732656E+03  0.27080732656E+03  0.00000000000E+00 0.  1.
         21   -1    0    0  502  503 -0.00000000000E+00 -0.00000000000E+00 -0.22634401377E+03  0.22634401377E+03  0.00000000000E+00 0. -1.
         -6    2    1    2    0  503  0.17385687057E+03 -0.40777976703E+02  0.14348216320E+02  0.24808265872E+03  0.17161025440E+03 0.  0.
        -24    2    3    3    0    0  0.99959034725E+02  0.31737431097E+02 -0.32102556849E+02  0.13450828291E+03  0.77864182137E+02 0.  0.
          6    2    1    2  501    0 -0.17385687057E+03  0.40777976703E+02  0.30115096473E+02  0.24906868161E+03  0.17099483703E+03 0.  0.
         24    2    5    5    0    0 -0.32102753026E+02  0.35967261865E+02 -0.24341392393E+02  0.97065484277E+02  0.80653420116E+02 0.  0.
          5    1    5    5  501    0 -0.14175411755E+03  0.48107148381E+01  0.54456488866E+02  0.15200319733E+03  0.47000000000E+01 0. -1.
        -11    1    6    6    0    0 -0.22629999141E+02 -0.63017864667E+01  0.23014528915E+02  0.32886135605E+02  0.00000000000E+00 0.  1.
         12    1    6    6    0    0 -0.94727538849E+01  0.42269048331E+02 -0.47355921309E+02  0.64179348672E+02  0.00000000000E+00 0. -1.
         -5    1    3    3    0  503  0.73897835849E+02 -0.72515407800E+02  0.46450773169E+02  0.11357437581E+03  0.47000000000E+01 0.  1.
         11    1    4    4    0    0  0.84543742005E+02 -0.10403627733E+02 -0.26941050114E+02  0.89340360215E+02  0.00000000000E+00 0. -1.
        -12    1    4    4    0    0  0.15415292720E+02  0.42141058830E+02 -0.51615067348E+01  0.45167922696E+02  0.00000000000E+00 0.  1.
</event>
<event>
12    1  0.8356052E-002  0.1950369E+03  0.7818608E-02  0.1154385E+00
         21   -1    0    0  501  502  0.00000000000E+00  0.00000000000E+00  0.10437530367E+04  0.10437530367E+04  0.00000000000E+00 0.  1.
         21   -1    0    0  502  503 -0.00000000000E+00 -0.00000000000E+00 -0.38643685916E+02  0.38643685916E+02  0.00000000000E+00 0.  1.
         -6    2    1    2    0  503 -0.83399200708E+02  0.36973945349E+02  0.36620599414E+03  0.41490506605E+03  0.17238585897E+03 0.  0.
        -24    2    3    3    0    0 -0.39739796290E+02 -0.14785903155E+02  0.32875322336E+03  0.33738071148E+03  0.62842567339E+02 0.  0.
          6    2    1    2  501    0  0.83399200708E+02 -0.36973945349E+02  0.63890335660E+03  0.66749165652E+03  0.17036758242E+03 0.  0.
         24    2    5    5    0    0  0.19335516884E+02 -0.18855492446E+02  0.13749493585E+03  0.16166072794E+03  0.80622216310E+02 0.  0.
          5    1    5    5  501    0  0.64063683823E+02 -0.18118452903E+02  0.50140842074E+03  0.50583092858E+03  0.47000000000E+01 0. -1.
        -11    1    6    6    0    0  0.50239286499E+02 -0.48950869150E+01  0.91732766108E+02  0.10470362058E+03  0.00000000000E+00 0.  1.
         12    1    6    6    0    0 -0.30903769615E+02 -0.13960405531E+02  0.45762169746E+02  0.56957107361E+02  0.00000000000E+00 0. -1.
         -5    1    3    3    0  503 -0.43659404418E+02  0.51759848504E+02  0.37452770776E+02  0.77524354561E+02  0.47000000000E+01 0.  1.
         13    1    4    4    0    0 -0.22781152045E+02 -0.34077801923E+02  0.11495007692E+03  0.12204014772E+03  0.00000000000E+00 0. -1.
        -14    1    4    4    0    0 -0.16958644245E+02  0.19291898768E+02  0.21380314644E+03  0.21534056376E+03  0.00000000000E+00 0.  1.
</event>
<event>
12    1  0.8356052E-002  0.1781990E+03  0.7818608E-02  0.1169699E+00
         21   -1    0    0  503  502  0.00000000000E+00  0.00000000000E+00  0.65728134351E+02  0.65728134351E+02  0.00000000000E+00 0.  1.
         21   -1    0    0  501  503 -0.00000000000E+00 -0.00000000000E+00 -0.59772892537E+03  0.59772892537E+03  0.00000000000E+00 0.  1.
          6    2    1    2  501    0  0.19083216834E+02  0.43336884567E+02 -0.41189491015E+03  0.44856101708E+03  0.17119379168E+03 0.  0.
         24    2    3    3    0    0  0.69899692555E+02  0.62654636198E+02 -0.27791426100E+03  0.30389452449E+03  0.79397576107E+02 0.  0.
         -6    2    1    2    0  502 -0.19083216834E+02 -0.43336884567E+02 -0.12010588087E+03  0.21489604263E+03  0.17179240901E+03 0.  0.
        -24    2    5    5    0    0  0.17694767168E+02 -0.39547618612E+02 -0.15039180818E+01  0.90575914657E+02  0.79527452011E+02 0.  0.
          5    1    3    3  501    0 -0.50816475721E+02 -0.19317751631E+02 -0.13398064915E+03  0.14466649260E+03  0.47000000000E+01 0. -1.
        -11    1    4    4    0    0 -0.65758791495E+01  0.25084170157E+02 -0.13532236739E+03  0.13778461777E+03  0.00000000000E+00 0.  1.
         12    1    4    4    0    0  0.76475571704E+02  0.37570466041E+02 -0.14259189361E+03  0.16610990671E+03  0.00000000000E+00 0. -1.
         -5    1    5    5    0  502 -0.36777984002E+02 -0.37892659555E+01 -0.11860196279E+03  0.12432012798E+03  0.47000000000E+01 0.  1.
         11    1    6    6    0    0  0.10147616865E+02  0.22995301392E+02 -0.99160608209E+01  0.27020108740E+02  0.00000000000E+00 0. -1.
        -12    1    6    6    0    0  0.75471503034E+01 -0.62542920003E+02  0.84121427391E+01  0.63555805917E+02  0.00000000000E+00 0.  1.
</event>
<event>
12    1  0.8356052E-002  0.3157684E+03  0.7818608E-02  0.1077656E+00
         21   -1    0    0  503  502  0.00000000000E+00  0.00000000000E+00  0.13947600056E+04  0.13947600056E+04  0.00000000000E+00 0. -1.
         21   -1    0    0  501  503 -0.00000000000E+00 -0.00000000000E+00 -0.74361740614E+02  0.74361740614E+02  0.00000000000E+00 0.  1.
          6    2    1    2  501    0  0.21586177700E+03  0.15103360816E+03  0.51413662216E+03  0.60336237959E+03  0.17407537821E+03 0.  0.
         24    2    3    3    0    0  0.76137090343E+02  0.13310796226E+03  0.31667790050E+03  0.36075909519E+03  0.79672115295E+02 0.  0.
         -6    2    1    2    0  502 -0.21586177700E+03 -0.15103360816E+03  0.80626164286E+03  0.86575936666E+03  0.17341853026E+03 0.  0.
        -24    2    5    5    0    0 -0.15689157649E+03 -0.27836457775E+02  0.48382731456E+03  0.51555798391E+03  0.79506787760E+02 0.  0.
          5    1    3    3  501    0  0.13972468666E+03  0.17925645899E+02  0.19745872166E+03  0.24260328440E+03  0.47000000000E+01 0. -1.
        -11    1    4    4    0    0  0.35321049800E+02  0.42020596511E+02  0.43887168649E+02  0.70280798674E+02  0.00000000000E+00 0.  1.
         12    1    4    4    0    0  0.40816040543E+02  0.91087365752E+02  0.27279073185E+03  0.29047829652E+03  0.00000000000E+00 0. -1.
         -5    1    5    5    0  502 -0.58970200506E+02 -0.12319715039E+03  0.32243432830E+03  0.35020138275E+03  0.47000000000E+01 0.  1.
         11    1    6    6    0    0 -0.13057468461E+03 -0.51933448527E+02  0.35272206967E+03  0.37968367067E+03  0.00000000000E+00 0. -1.
        -12    1    6    6    0    0 -0.26316891888E+02  0.24096990752E+02  0.13110524489E+03  0.13587431324E+03  0.00000000000E+00 0.  1.
</event>
<event>
12    1  0.8356052E-002  0.2529372E+03  0.7818608E-02  0.1111632E+00
         21   -1    0    0  501  502  0.00000000000E+00  0.00000000000E+00  0.77771078908E+03  0.77771078908E+03  0.00000000000E+00 0. -1.
         21   -1    0    0  502  503 -0.00000000000E+00 -0.00000000000E+00 -0.99434237048E+02  0.99434237048E+02  0.00000000000E+00 0.  1.
         -6    2    1    2    0  503  0.13275598894E+03 -0.12790647573E+03  0.15442471429E+03  0.29542520215E+03  0.17159498405E+03 0.  0.
        -24    2    3    3    0    0 -0.12601289427E+01 -0.39259208949E+02  0.72486321308E+02  0.11499613575E+03  0.80168391824E+02 0.  0.
          6    2    1    2  501    0 -0.13275598894E+03  0.12790647573E+03  0.52385183775E+03  0.58171982398E+03  0.17318483354E+03 0.  0.
         24    2    5    5    0    0 -0.10143649986E+03  0.11079999930E+02  0.30391338076E+03  0.33067331294E+03  0.81051631595E+02 0.  0.
          5    1    5    5  501    0 -0.31319489079E+02  0.11682647580E+03  0.21993845699E+03  0.25104651104E+03  0.47000000000E+01 0. -1.
        -13    1    6    6    0    0 -0.97072127962E+02  0.17422253554E+02  0.30694430858E+03  0.32239935098E+03  0.00000000000E+00 0.  1.
         14    1    6    6    0    0 -0.43643718948E+01 -0.63422536245E+01 -0.30309278158E+01  0.82739619590E+01  0.00000000000E+00 0. -1.
         -5    1    3    3    0  503  0.13401611788E+03 -0.88647266780E+02  0.81938392977E+02  0.18042906640E+03  0.47000000000E+01 0.  1.
         13    1    4    4    0    0 -0.70671436632E+01  0.10551957591E+02  0.62609092115E+02  0.63884166614E+02  0.00000000000E+00 0. -1.
        -14    1    4    4    0    0  0.58070147205E+01 -0.49811166540E+02  0.98772291934E+01  0.51111969133E+02  0.00000000000E+00 0.  1.
</event>
<event>
12    1  0.8356052E-002  0.1768278E+03  0.7818608E-02  0.1171142E+00
         21   -1    0    0  503  502  0.00000000000E+00  0.00000000000E+00  0.48802466795E+02  0.48802466795E+02  0.00000000000E+00 0.  1.
         21   -1    0    0  501  503 -0.00000000000E+00 -0.00000000000E+00 -0.79845662120E+03  0.79845662120E+03  0.00000000000E+00 0.  1.
          6    2    1    2  501    0 -0.28744124419E+02  0.28821023567E+02 -0.56434361004E+03  0.59111837506E+03  0.17111501119E+03 0.  0.
         24    2    3    3    0    0  0.10851311486E+02  0.41345273909E+02 -0.52701590115E+03  0.53508175095E+03  0.82094686168E+02 0.  0.
         -6    2    1    2    0  502  0.28744124419E+02 -0.28821023567E+02 -0.18531054436E+03  0.25614071293E+03  0.17207902510E+03 0.  0.
        -24    2    5    5    0    0  0.80677459214E+02 -0.17364600052E+02 -0.88768807863E+02  0.14581973673E+03  0.81074734729E+02 0.  0.
          5    1    3    3  501    0 -0.39595435906E+02 -0.12524250342E+02 -0.37327708891E+02  0.56036624115E+02  0.47000000000E+01 0. -1.
        -13    1    4    4    0    0  0.62096948517E+01  0.10305852568E+02 -0.46872063706E+03  0.46887504361E+03  0.00000000000E+00 0.  1.
         14    1    4    4    0    0  0.46416166348E+01  0.31039421341E+02 -0.58295264086E+02  0.66206707342E+02  0.00000000000E+00 0. -1.
         -5    1    5    5    0  502 -0.51933334794E+02 -0.11456423515E+02 -0.96541736496E+02  0.11032097619E+03  0.47000000000E+01 0.  1.
         11    1    6    6    0    0  0.42393180333E+02 -0.24423226602E+02 -0.94554751091E+02  0.10646256004E+03  0.00000000000E+00 0. -1.
        -12    1    6    6    0    0  0.38284278881E+02  0.70586265501E+01  0.57859432281E+01  0.39357176693E+02  0.00000000000E+00 0.  1.
</event>
<event>
12    1  0.8356052E-002  0.3010814E+03  0.7818608E-02  0.1085019E+00
         21   -1    0    0  501  502  0.00000000000E+00  0.00000000000E+00  0.44715277893E+03  0.44715277893E+03  0.00000000000E+00 0.  1.
         21   -1    0    0  502  503 -0.00000000000E+00 -0.00000000000E+00 -0.21014240164E+03  0.21014240164E+03  0.00000000000E+00 0. -1.
         -6    2    1    2    0  503 -0.18680276750E+03 -0.16074410758E+03  0.50505592982E+02  0.30528811448E+03  0.17296264294E+03 0.  0.
        -24    2    3    3    0    0 -0.10475207098E+03 -0.14531119646E+03 -0.14099403417E+02  0.19961698737E+03  0.86947157972E+02 0.  0.
          6    2    1    2  501    0  0.18680276750E+03  0.16074410758E+03  0.18650478430E+03  0.35200706609E+03  0.16849628465E+03 0.  0.
         24    2    5    5    0    0  0.10948259730E+03  0.64331453889E+02  0.15586600879E+03  0.22459186654E+03  0.10011153154E+03 0.  0.
          5    1    5    5  501    0  0.77320170202E+02  0.96412653691E+02  0.30638775506E+02  0.12741519955E+03  0.47000000000E+01 0. -1.
        -11    1    6    6    0    0  0.52063625162E+02 -0.10442368087E+02  0.15160821060E+02  0.55222410410E+02  0.00000000000E+00 0.  1.
         12    1    6    6    0    0  0.57418972138E+02  0.74773821976E+02  0.14070518773E+03  0.16936945613E+03  0.00000000000E+00 0. -1.
         -5    1    3    3    0  503 -0.82050696519E+02 -0.15432911120E+02  0.64604996399E+02  0.10567112711E+03  0.47000000000E+01 0.  1.
         13    1    4    4    0    0 -0.33375463525E+02  0.38647856298E+01  0.49037315683E+00  0.33602062426E+02  0.00000000000E+00 0. -1.
        -14    1    4    4    0    0 -0.71376607458E+02 -0.14917598209E+03 -0.14589776574E+02  0.16601492495E+03  0.00000000000E+00 0.  1.
</event>
<event>
12    1  0.8356052E-002  0.1843703E+03  0.7818608E-02  0.1163664E+00
         21   -1    0    0  501  502  0.00000000000E+00  0.00000000000E+00  0.63015918897E+02  0.63015918897E+02  0.00000000000E+00 0. -1.
         21   -1    0    0  502  503 -0.00000000000E+00 -0.00000000000E+00 -0.12758663952E+04  0.12758663952E+04  0.00000000000E+00 0. -1.
         -6    2    1    2    0  503 -0.52383007396E+02 -0.40893174504E+02 -0.11150609054E+04  0.11301834284E+04  0.17186485358E+03 0.  0.
        -24    2    3    3    0    0 -0.35549051723E+02 -0.71960764464E+02 -0.10486595188E+04  0.10548189052E+04  0.80709663437E+02 0.  0.
          6    2    1    2  501    0  0.52383007396E+02  0.40893174504E+02 -0.97789570953E+02  0.20869888575E+03  0.17197730530E+03 0.  0.
         24    2    5    5    0    0  0.71297651926E+02  0.69354873469E+02 -0.11099590146E+03  0.17176205790E+03  0.85373653731E+02 0.  0.
          5    1    5    5  501    0 -0.18914644529E+02 -0.28461698965E+02  0.13206330504E+02  0.36936827842E+02  0.47000000000E+01 0. -1.
        -13    1    6    6    0    0  0.31056256603E+02  0.11116778455E+01 -0.81502213770E+02  0.87225786046E+02  0.00000000000E+00 0.  1.
         14    1    6    6    0    0  0.40241395323E+02  0.68243195623E+02 -0.29493687686E+02  0.84536271858E+02  0.00000000000E+00 0. -1.
         -5    1    3    3    0  503 -0.16833955673E+02  0.31067589960E+02 -0.66401386597E+02  0.75364523163E+02  0.47000000000E+01 0.  1.
         11    1    4    4    0    0 -0.53831929231E+02 -0.19833862116E+02 -0.61088588498E+03  0.61357381231E+03  0.00000000000E+00 0. -1.
        -12    1    4    4    0    0  0.18282877508E+02 -0.52126902347E+02 -0.43777363378E+03  0.44124509288E+03  0.00000000000E+00 0.  1.
</event>
<event>
12    1  0.8356052E-002  0.1773259E+03  0.7818608E-02  0.1170635E+00
         21   -1    0    0  501  502  0.00000000000E+00  0.00000000000E+00  0.13910432998E+03  0.13910432998E+03  0.00000000000E+00 0.  1.
         21   -1    0    0  502  503 -0.00000000000E+00 -0.00000000000E+00 -0.22545463227E+03  0.22545463227E+03  0.00000000000E+00 0.  1.
         -6    2    1    2    0  503 -0.39165569013E+02 -0.33470859286E+01 -0.52131529832E+02  0.18483014549E+03  0.17291426054E+03 0.  0.
        -24    2    3    3    0    0 -0.89212687665E+02 -0.19083914367E+02 -0.25945588223E+02  0.12600705995E+03  0.82954844228E+02 0.  0.
          6    2    1    2  501    0  0.39165569013E+02  0.33470859286E+01 -0.34218772459E+02  0.17972881676E+03  0.17200691383E+03 0.  0.
         24    2    5    5    0    0  0.70720310467E+02  0.36220700863E+02  0.12792123754E+02  0.11408972300E+03  0.80867329496E+02 0.  0.
          5    1    5    5  501    0 -0.31554741454E+02 -0.32873614934E+02 -0.47010896213E+02  0.65639093761E+02  0.47000000000E+01 0. -1.
        -11    1    6    6    0    0  0.39581936798E+02  0.24483442679E+02 -0.33308811793E+02  0.57233256322E+02  0.00000000000E+00 0.  1.
         12    1    6    6    0    0  0.31138373669E+02  0.11737258184E+02  0.46100935547E+02  0.56856466675E+02  0.00000000000E+00 0. -1.
         -5    1    3    3    0  503  0.50047118652E+02  0.15736828438E+02 -0.26185941609E+02  0.58823085541E+02  0.47000000000E+01 0.  1.
         11    1    4    4    0    0  0.11539577161E+02  0.13067418915E+02 -0.55940481218E+01  0.18308813521E+02  0.00000000000E+00 0. -1.
        -12    1    4    4    0    0 -0.10075226483E+03 -0.32151333282E+02 -0.20351540102E+02  0.10769824643E+03  0.00000000000E+00 0.  1.
</event>
<event>
12    1  0.8356052E-002  0.3458714E+03  0.7818608E-02  0.1064361E+00
         21   -1    0    0  503  502  0.00000000000E+00  0.00000000000E+00  0.41678172728E+03  0.41678172728E+03  0.00000000000E+00 0.  1.
         21   -1    0    0  501  503 -0.00000000000E+00 -0.00000000000E+00 -0.38969733202E+03  0.38969733202E+03  0.00000000000E+00 0. -1.
          6    2    1    2  501    0  0.29517680980E+03 -0.52685667432E+02 -0.19375353175E+03  0.39611773845E+03  0.17164994335E+03 0.  0.
         24    2    3    3    0    0  0.14421497341E+03 -0.49245495619E+02 -0.19132961561E+02  0.16521571515E+03  0.60885835148E+02 0.  0.
         -6    2    1    2    0  502 -0.29517680980E+03  0.52685667432E+02  0.22083792701E+03  0.41036132085E+03  0.17240039167E+03 0.  0.
        -24    2    5    5    0    0 -0.91441971591E+02  0.84203488981E+01  0.14316557622E+03  0.18782506133E+03  0.79682714596E+02 0.  0.
          5    1    3    3  501    0  0.15096183639E+03 -0.34401718138E+01 -0.17462057019E+03  0.23090202330E+03  0.47000000000E+01 0. -1.
        -13    1    4    4    0    0  0.11748690214E+03 -0.18004331343E+02  0.22363412628E+01  0.11887947402E+03  0.00000000000E+00 0.  1.
         14    1    4    4    0    0  0.26728071268E+02 -0.31241164275E+02 -0.21369302824E+02  0.46336241131E+02  0.00000000000E+00 0. -1.
         -5    1    5    5    0  502 -0.20373483821E+03  0.44265318534E+02  0.77672350792E+02  0.22253625952E+03  0.47000000000E+01 0.  1.
         11    1    6    6    0    0 -0.33654060572E+02  0.49056483077E+01  0.66876800157E+00  0.34016296520E+02  0.00000000000E+00 0. -1.
        -12    1    6    6    0    0 -0.57787911019E+02  0.35147005904E+01  0.14249680822E+03  0.15380876481E+03  0.00000000000E+00 0.  1.
</event>
<event>
12    1  0.8356052E-002  0.1997065E+03  0.7818608E-02  0.1150324E+00
         21   -1    0    0  501  502  0.00000000000E+00  0.00000000000E+00  0.29896582535E+03  0.29896582535E+03  0.00000000000E+00 0. -1.
         21   -1    0    0  502  503 -0.00000000000E+00 -0.00000000000E+00 -0.19996527134E+03  0.19996527134E+03  0.00000000000E+00 0. -1.
         -6    2    1    2    0  503  0.11171278954E+02  0.10096417242E+03 -0.95699788648E+02  0.22002089559E+03  0.17009463061E+03 0.  0.
        -24    2    3    3    0    0  0.15385128670E+02  0.13395773013E+03 -0.10403569891E+03  0.18541007677E+03  0.73294571929E+02 0.  0.
          6    2    1    2  501    0 -0.11171278954E+02 -0.10096417242E+03  0.19470034266E+03  0.27891020110E+03  0.17194218581E+03 0.  0.
         24    2    5    5    0    0 -0.27757850021E+02  0.53961893139E+01  0.53067458235E+02  0.10095064154E+03  0.81087975727E+02 0.  0.
          5    1    5    5  501    0  0.16586571067E+02 -0.10636036174E+03  0.14163288442E+03  0.17795955956E+03  0.47000000000E+01 0. -1.
        -11    1    6    6    0    0 -0.37255674634E+00  0.35037439016E+02  0.97182338486E+00  0.35052893918E+02  0.00000000000E+00 0.  1.
         12    1    6    6    0    0 -0.27385293275E+02 -0.29641249702E+02  0.52095634850E+02  0.65897747625E+02  0.00000000000E+00 0. -1.
         -5    1    3    3    0  503 -0.42138497155E+01 -0.32993557705E+02  0.83359102602E+01  0.34610818819E+02  0.47000000000E+01 0.  1.
         13    1    4    4    0    0 -0.11921842341E+02  0.74615101398E+01 -0.37179015510E+02  0.39750266071E+02  0.00000000000E+00 0. -1.
        -14    1    4    4    0    0  0.27306971011E+02  0.12649621999E+03 -0.66856683398E+02  0.14565981070E+03  0.00000000000E+00 0.  1.
</event>
<event>
12    1  0.8356052E-002  0.2119418E+03  0.7818608E-02  0.1140662E+00
         21   -1    0    0  501  502  0.00000000000E+00  0.00000000000E+00  0.10528407266E+03  0.10528407266E+03  0.00000000000E+00 0.  1.
         21   -1    0    0  502  503 -0.00000000000E+00 -0.00000000000E+00 -0.42442493551E+03  0.42442493551E+03  0.00000000000E+00 0.  1.
         -6    2    1    2    0  503  0.93637526843E+02 -0.75782330988E+02 -0.13227567093E+03  0.24715292129E+03  0.17051910526E+03 0.  0.
        -24    2    3    3    0    0 -0.10381722215E+02 -0.82927388331E+01 -0.78373636542E+02  0.11186667463E+03  0.78709442351E+02 0.  0.
          6    2    1    2  501    0 -0.93637526843E+02  0.75782330988E+02 -0.18686519193E+03  0.28255608688E+03  0.17438002797E+03 0.  0.
         24    2    5    5    0    0  0.14550490083E+02  0.34761315564E+02 -0.41021425593E+02  0.96330780083E+02  0.78592595149E+02 0.  0.
          5    1    5    5  501    0 -0.10818801693E+03  0.41021015424E+02 -0.14584376633E+03  0.18622530680E+03  0.47000000000E+01 0. -1.
        -11    1    6    6    0    0 -0.24842307849E+02 -0.10372643690E+02 -0.16665313916E+02  0.31661722699E+02  0.00000000000E+00 0.  1.
         12    1    6    6    0    0  0.39392797932E+02  0.45133959254E+02 -0.24356111677E+02  0.64669057383E+02  0.00000000000E+00 0. -1.
         -5    1    3    3    0  503  0.10401924906E+03 -0.67489592155E+02 -0.53902034385E+02  0.13528624666E+03  0.47000000000E+01 0.  1.
         11    1    4    4    0    0 -0.16130502329E+02 -0.14466170785E+02  0.94504402018E+01  0.23638401439E+02  0.00000000000E+00 0. -1.
        -12    1    4    4    0    0  0.57487801142E+01  0.61734319523E+01 -0.87824076744E+02  0.88228273194E+02  0.00000000000E+00 0.  1.
</event>
<event>
12    1  0.8356052E-002  0.3062526E+03  0.7818608E-02  0.1082178E+00
         21   -1    0    0  501  502  0.00000000000E+00  0.00000000000E+00  0.83645456036E+03  0.83645456036E+03  0.00000000000E+00 0.  1.
         21   -1    0    0  502  503 -0.00000000000E+00 -0.00000000000E+00 -0.11750749541E+03  0.11750749541E+03  0.00000000000E+00 0. -1.
         -6    2    1    2    0  503 -0.23825630064E+03 -0.85896425848E+02  0.25671062499E+03  0.39947742824E+03  0.17186509221E+03 0.  0.
        -24    2    3    3    0    0 -0.21952839487E+03 -0.37192123136E+02  0.15111355229E+03  0.28159750917E+03  0.82981210563E+02 0.  0.
          6    2    1    2  501    0  0.23825630064E+03  0.85896425848E+02  0.46223643996E+03  0.55448462754E+03  0.17218134331E+03 0.  0.
         24    2    5    5    0    0  0.40936599255E+02  0.34609906377E+02  0.19225893273E+03  0.21614261708E+03  0.82948676449E+02 0.  0.
          5    1    5    5  501    0  0.19731970138E+03  0.51286519471E+02  0.26997750723E+03  0.33834201046E+03  0.47000000000E+01 0. -1.
        -13    1    6    6    0    0  0.36946059574E+02  0.60173922925E+02  0.11809349983E+03  0.13759355734E+03  0.00000000000E+00 0.  1.
         14    1    6    6    0    0  0.39905396812E+01 -0.25564016548E+02  0.74165432901E+02  0.78549059743E+02  0.00000000000E+00 0. -1.
         -5    1    3    3    0  503 -0.18727905768E+02 -0.48704302712E+02  0.10559707270E+03  0.11787991907E+03  0.47000000000E+01 0.  1.
         11    1    4    4    0    0 -0.18962746891E+02 -0.14520446727E+01 -0.10345039172E+02  0.21649804591E+02  0.00000000000E+00 0. -1.
        -12    1    4    4    0    0 -0.20056564798E+03 -0.35740078463E+02  0.16145859146E+03  0.25994770458E+03  0.00000000000E+00 0.  1.
</event>
<event>
12    1  0.8356052E-002  0.2879709E+03  0.7818608E-02  0.1091494E+00
         21   -1    0    0  503  502  0.00000000000E+00  0.00000000000E+00  0.58246630142E+02  0.58246630142E+02  0.00000000000E+00 0.  1.
         21   -1    0    0  501  503 -0.00000000000E+00 -0.00000000000E+00 -0.18688444692E+04  0.18688444692E+04  0.00000000000E+00 0. -1.
          6    2    1    2  501    0 -0.18028850610E+03 -0.14344398040E+03 -0.43419691852E+03  0.52101266753E+03  0.17276317527E+03 0.  0.
         24    2    3    3    0    0 -0.10462640363E+03 -0.12831552335E+03 -0.39217325564E+03  0.43302572415E+03  0.79371641478E+02 0.  0.
         -6    2    1    2    0  502  0.18028850610E+03  0.14344398040E+03 -0.13764009205E+04  0.14060784318E+04  0.17174673619E+03 0.  0.
        -24    2    5    5    0    0  0.66993533273E+02  0.28027458710E+02 -0.33921072730E+03  0.35634403145E+03  0.81507541322E+02 0.  0.
          5    1    3    3  501    0 -0.75662102475E+02 -0.15128457059E+02 -0.42023662884E+02  0.87986943384E+02  0.47000000000E+01 0. -1.
        -11    1    4    4    0    0 -0.60384558308E+02 -0.60966969832E+02 -0.10964586052E+03  0.13923175292E+03  0.00000000000E+00 0.  1.
         12    1    4    4    0    0 -0.44241845318E+02 -0.67348553513E+02 -0.28252739512E+03  0.29379397123E+03  0.00000000000E+00 0. -1.
         -5    1    5    5    0  502  0.11329497283E+03  0.11541652169E+03 -0.10371901932E+04  0.10497344003E+04  0.47000000000E+01 0.  1.
         13    1    6    6    0    0  0.66055181941E+02  0.50451090939E+02 -0.29850707309E+03  0.30986298960E+03  0.00000000000E+00 0. -1.
        -14    1    6    6    0    0  0.93835133227E+00 -0.22423632230E+02 -0.40703654218E+02  0.46481041859E+02  0.00000000000E+00 0.  1.
</event>
<event>
12    1  0.8356052E-002  0.2970216E+03  0.7818608E-02  0.1086778E+00
         21   -1    0    0  501  502  0.00000000000E+00  0.00000000000E+00  0.37710459168E+03  0.37710459168E+03  0.00000000000E+00 0.  1.
         21   -1    0    0  502  503 -0.00000000000E+00 -0.00000000000E+00 -0.33624780728E+03  0.33624780728E+03  0.00000000000E+00 0. -1.
         -6    2    1    2    0  503  0.22199707583E+03  0.94547599766E+02 -0.17653440119E+03  0.34552311568E+03  0.17320472964E+03 0.  0.
        -24    2    3    3    0    0  0.11937996175E+03 -0.30286653621E+01 -0.39950757278E+02  0.14872732965E+03  0.79139165368E+02 0.  0.
          6    2    1    2  501    0 -0.22199707583E+03 -0.94547599766E+02  0.21739118559E+03  0.36782928327E+03  0.17267745586E+03 0.  0.
         24    2    5    5    0    0 -0.21943565212E+03 -0.72707800767E+02  0.23511555406E+03  0.33919746618E+03  0.79606328843E+02 0.  0.
          5    1    5    5  501    0 -0.25614237123E+01 -0.21839798999E+02 -0.17724368477E+02  0.28631817086E+02  0.47000000000E+01 0. -1.
        -11    1    6    6    0    0 -0.12014996051E+03 -0.55541288160E+02  0.81369702223E+02  0.15537656240E+03  0.00000000000E+00 0.  1.
         12    1    6    6    0    0 -0.99285691604E+02 -0.17166512606E+02  0.15374585184E+03  0.18382090379E+03  0.00000000000E+00 0. -1.
         -5    1    3    3    0  503  0.10261711408E+03  0.97576265128E+02 -0.13658364391E+03  0.19679578604E+03  0.47000000000E+01 0.  1.
         13    1    4    4    0    0  0.13007328927E+03 -0.26590056357E+01 -0.28753802393E+02  0.13324005421E+03  0.00000000000E+00 0. -1.
        -14    1    4    4    0    0 -0.10693327522E+02 -0.36965972638E+00 -0.11196954886E+02  0.15487275439E+02  0.00000000000E+00 0.  1.
</event>
<event>
12    1  0.8356052E-002  0.1801267E+03  0.7818608E-02  0.1167706E+00
         21   -1    0    0  503  502  0.00000000000E+00  0.00000000000E+00  0.12066855282E+03  0.12066855282E+03  0.00000000000E+00 0. -1.
         21   -1    0    0  501  503 -0.00000000000E+00 -0.00000000000E+00 -0.65869665828E+03  0.65869665828E+03  0.00000000000E+00 0. -1.
          6    2    1    2  501    0 -0.39200920046E+02  0.37337231987E+02 -0.56888294109E+03  0.59671888166E+03  0.17179884179E+03 0.  0.
         24    2    3    3    0    0  0.69169745882E+01  0.49255602388E+02 -0.16089442793E+03  0.18593228910E+03  0.78802539845E+02 0.  0.
         -6    2    1    2    0  502  0.39200920046E+02 -0.37337231987E+02  0.30854835634E+02  0.18264632944E+03  0.17168832153E+03 0.  0.
        -24    2    5    5    0    0  0.87172076070E+01 -0.91522284952E+02  0.34992499627E+01  0.11456039288E+03  0.68260680598E+02 0.  0.
          5    1    3    3  501    0 -0.46117894634E+02 -0.11918370401E+02 -0.40798851316E+03  0.41078659256E+03  0.47000000000E+01 0. -1.
        -11    1    4    4    0    0  0.96885007249E+01 -0.74828114453E+01 -0.10677057402E+03  0.10747006555E+03  0.00000000000E+00 0.  1.
         12    1    4    4    0    0 -0.27715261367E+01  0.56738413833E+02 -0.54123853910E+02  0.78462223544E+02  0.00000000000E+00 0. -1.
         -5    1    5    5    0  502  0.30483712439E+02  0.54185052966E+02  0.27355585671E+02  0.68085936553E+02  0.47000000000E+01 0.  1.
         13    1    6    6    0    0 -0.11318126377E+02 -0.56796530199E+02  0.31245439526E+02  0.65804432362E+02  0.00000000000E+00 0. -1.
        -14    1    6    6    0    0  0.20035333984E+02 -0.34725754753E+02 -0.27746189563E+02  0.48755960521E+02  0.00000000000E+00 0.  1.
</event>
<event>
12    1  0.8356052E-002  0.1782845E+03  0.7818608E-02  0.1169544E+00
         21   -1    0    0  501  502  0.00000000000E+00  0.00000000000E+00  0.61461957044E+02  0.61461957044E+02  0.00000000000E+00 0. -1.
         21   -1    0    0  502  503 -0.00000000000E+00 -0.00000000000E+00 -0.14658045700E+04  0.14658045700E+04  0.00000000000E+00 0. -1.
         -6    2    1    2    0  503  0.36124164944E+02  0.26851934929E+02 -0.13165681226E+04  0.13285463188E+04  0.17221416360E+03 0.  0.
        -24    2    3    3    0    0  0.40996831185E+02 -0.47183244726E+02 -0.62831572807E+03  0.63629029735E+03  0.78598279979E+02 0.  0.
          6    2    1    2  501    0 -0.36124164944E+02 -0.26851934929E+02 -0.87774490331E+02  0.19872020818E+03  0.17250906726E+03 0.  0.
         24    2    5    5    0    0 -0.78243115325E+02  0.19776368057E+02 -0.72563448744E+02  0.13389991501E+03  0.78426037245E+02 0.  0.
          5    1    5    5  501    0  0.42118950381E+02 -0.46628302986E+02 -0.15211041588E+02  0.64820293170E+02  0.47000000000E+01 0. -1.
        -11    1    6    6    0    0  0.15371025406E+02 -0.32330489744E+01 -0.63098365186E+01  0.16927346650E+02  0.00000000000E+00 0.  1.
         12    1    6    6    0    0 -0.93614140731E+02  0.23009417031E+02 -0.66253612225E+02  0.11697256836E+03  0.00000000000E+00 0. -1.
         -5    1    3    3    0  503 -0.48726662413E+01  0.74035179655E+02 -0.68825239454E+03  0.69225602149E+03  0.47000000000E+01 0.  1.
         13    1    4    4    0    0  0.45339935234E+02  0.25531592676E+01 -0.40060621292E+03  0.40317188169E+03  0.00000000000E+00 0. -1.
        -14    1    4    4    0    0 -0.43431040485E+01 -0.49736403994E+02 -0.22770951515E+03  0.23311841567E+03  0.00000000000E+00 0.  1.
</event>
<event>
12    1  0.8356052E-002  0.3352636E+03  0.7818608E-02  0.1068835E+00
         21   -1    0    0  501  502  0.00000000000E+00  0.00000000000E+00  0.73560499531E+03  0.73560499531E+03  0.00000000000E+00 0.  1.
         21   -1    0    0  502  503 -0.00000000000E+00 -0.00000000000E+00 -0.26019437341E+03  0.26019437341E+03  0.00000000000E+00 0. -1.
         -6    2    1    2    0  503 -0.25074870299E+03  0.14147178420E+03 -0.82185934170E+02  0.34519010507E+03  0.17179203442E+03 0.  0.
        -24    2    3    3    0    0 -0.18333583183E+03  0.19251927127E+02 -0.66894455614E+02  0.20469772814E+03  0.58682431630E+02 0.  0.
          6    2    1    2  501    0  0.25074870299E+03 -0.14147178420E+03  0.55759655607E+03  0.65060926365E+03  0.17172453766E+03 0.  0.
         24    2    5    5    0    0  0.54611176845E+02 -0.82619113052E+02  0.17177883054E+03  0.21379010954E+03  0.79937136795E+02 0.  0.
          5    1    5    5  501    0  0.19613752614E+03 -0.58852671145E+02  0.38581772553E+03  0.43681915410E+03  0.47000000000E+01 0. -1.
        -13    1    6    6    0    0  0.15111279695E+02 -0.46684561439E+01  0.98450976355E+02  0.99713288994E+02  0.00000000000E+00 0.  1.
         14    1    6    6    0    0  0.39499897150E+02 -0.77950656908E+02  0.73327854185E+02  0.11407682055E+03  0.00000000000E+00 0. -1.
         -5    1    3    3    0  503 -0.67412871155E+02  0.12221985707E+03 -0.15291478556E+02  0.14049237693E+03  0.47000000000E+01 0.  1.
         13    1    4    4    0    0 -0.51575177209E+02  0.17625559839E+02 -0.45917818523E+02  0.71267842129E+02  0.00000000000E+00 0. -1.
        -14    1    4    4    0    0 -0.13176065462E+03  0.16263672882E+01 -0.20976637091E+02  0.13342988601E+03  0.00000000000E+00 0.  1.
</event>
<event>
12    1  0.8356052E-002  0.2356263E+03  0.7818608E-02  0.1123069E+00
         21   -1    0    0  501  502  0.00000000000E+00  0.00000000000E+00  0.22193018952E+03  0.22193018952E+03  0.00000000000E+00 0.  1.
         21   -1    0    0  502  503 -0.00000000000E+00 -0.00000000000E+00 -0.24968600067E+03  0.24968600067E+03  0.00000000000E+00 0.  1.
         -6    2    1    2    0  503 -0.90400001938E+02 -0.13043626521E+03  0.46377848591E+01  0.23567195652E+03  0.17416653643E+03 0.  0.
        -24    2    3    3    0    0 -0.24333954137E+02 -0.13640740614E+03  0.33006428591E+02  0.16337225290E+03  0.80012167300E+02 0.  0.
          6    2    1    2  501    0  0.90400001938E+02  0.13043626521E+03 -0.32393596008E+02  0.23594423367E+03  0.17156502181E+03 0.  0.
         24    2    5    5    0    0  0.77721692839E+02  0.23472908279E+02 -0.51408553816E+02  0.12646566103E+03  0.82213654907E+02 0.  0.
          5    1    5    5  501    0  0.12678309099E+02  0.10696335693E+03  0.19014957808E+02  0.10947857264E+03  0.47000000000E+01 0. -1.
        -13    1    6    6    0    0  0.75404665605E+01  0.40123910995E+02 -0.31710918526E+02  0.51694963229E+02  0.00000000000E+00 0.  1.
         14    1    6    6    0    0  0.70181226278E+02 -0.16651002716E+02 -0.19697635291E+02  0.74770697800E+02  0.00000000000E+00 0. -1.
         -5    1    3    3    0  503 -0.66066047801E+02  0.59711409345E+01 -0.28368643732E+02  0.72299703619E+02  0.47000000000E+01 0.  1.
         11    1    4    4    0    0 -0.28636019411E+02 -0.58677473460E+01  0.32158694405E+01  0.29407378034E+02  0.00000000000E+00 0. -1.
        -12    1    4    4    0    0  0.43020652740E+01 -0.13053965879E+03  0.29790559151E+02  0.13396487487E+03  0.00000000000E+00 0.  1.
</event>
<event>
12    1  0.8356052E-002  0.3235673E+03  0.7818608E-02  0.1074160E+00
         21   -1    0    0  501  502  0.00000000000E+00  0.00000000000E+00  0.46335381824E+03  0.46335381824E+03  0.00000000000E+00 0.  1.
         21   -1    0    0  502  503 -0.00000000000E+00 -0.00000000000E+00 -0.22690212562E+03  0.22690212562E+03  0.00000000000E+00 0. -1.
         -6    2    1    2    0  503 -0.16502416094E+03 -0.21729127812E+03  0.87610542577E+02  0.33521844980E+03  0.17391759162E+03 0.  0.
        -24    2    3    3    0    0 -0.16408313796E+03 -0.22051756362E+03  0.11390574205E+03  0.30829593214E+03  0.80750180625E+02 0.  0.
          6    2    1    2  501    0  0.16502416094E+03  0.21729127812E+03  0.14884115004E+03  0.35503749406E+03  0.17160845259E+03 0.  0.
         24    2    5    5    0    0  0.10976713473E+03  0.18893340262E+03  0.17113420851E+03  0.28888177999E+03  0.80131835080E+02 0.  0.
          5    1    5    5  501    0  0.55257026211E+02  0.28357875503E+02 -0.22293058468E+02  0.66155714073E+02  0.47000000000E+01 0.  1.
        -11    1    6    6    0    0  0.70972537778E+00  0.29764679102E+02  0.58046850158E+02  0.65237080295E+02  0.00000000000E+00 0.  1.
         12    1    6    6    0    0  0.10905740936E+03  0.15916872352E+03  0.11308735835E+03  0.22364469969E+03  0.00000000000E+00 0. -1.
         -5    1    3    3    0  503 -0.94102297979E+00  0.32262854965E+01 -0.26295199471E+02  0.26922517668E+02  0.47000000000E+01 0.  1.
         11    1    4    4    0    0 -0.25891985123E+02 -0.99383071331E+02  0.42312300992E+02  0.11107529237E+03  0.00000000000E+00 0. -1.
        -12    1    4    4    0    0 -0.13819115284E+03 -0.12113449229E+03  0.71593441056E+02  0.19722063976E+03  0.00000000000E+00 0.  1.
</event>
<event>
12    1  0.8356052E-002  0.1756073E+03  0.7818608E-02  0.1172125E+00
         21   -1    0    0  501  502  0.00000000000E+00  0.00000000000E+00  0.78532154108E+02  0.78532154108E+02  0.00000000000E+00 0.  1.
         21   -1    0    0  502  503 -0.00000000000E+00 -0.00000000000E+00 -0.76424500591E+03  0.76424500591E+03  0.00000000000E+00 0.  1.
         -6    2    1    2    0  503  0.38833640803E+02 -0.48085902346E+01 -0.63668591723E+03  0.66045958969E+03  0.17119210911E+03 0.  0.
        -24    2    3    3    0    0 -0.11797389895E+02 -0.32209701171E+01 -0.13801798526E+03  0.15920334965E+03  0.78404012832E+02 0.  0.
          6    2    1    2  501    0 -0.38833640803E+02  0.48085902346E+01 -0.49026934574E+02  0.18231757033E+03  0.17118668738E+03 0.  0.
         24    2    5    5    0    0  0.48404233180E+02  0.11420146856E+02 -0.25223138797E+02  0.91527317372E+02  0.72578602567E+02 0.  0.
          5    1    5    5  501    0 -0.87237873982E+02 -0.66115566218E+01 -0.23803795778E+02  0.90790252954E+02  0.47000000000E+01 0. -1.
        -11    1    6    6    0    0  0.59121253697E+02  0.50847949723E+01  0.42914480420E+01  0.59494489702E+02  0.00000000000E+00 0.  1.
         12    1    6    6    0    0 -0.10717020517E+02  0.63353518841E+01 -0.29514586839E+02  0.32032827670E+02  0.00000000000E+00 0. -1.
         -5    1    3    3    0  503  0.50631030697E+02 -0.15876201175E+01 -0.49866793197E+03  0.50125624004E+03  0.47000000000E+01 0.  1.
         13    1    4    4    0    0 -0.30226901864E+02  0.29205321403E+02 -0.71199940155E+02  0.82680395939E+02  0.00000000000E+00 0. -1.
        -14    1    4    4    0    0  0.18429511970E+02 -0.32426291520E+02 -0.66818045101E+02  0.76522953708E+02  0.00000000000E+00 0.  1.
</event>
<event>
12    1  0.8356052E-002  0.1842795E+03  0.7818608E-02  0.1163766E+00
         21   -1    0    0  503  502  0.00000000000E+00  0.00000000000E+00  0.50944936706E+02  0.50944936706E+02  0.00000000000E+00 0. -1.
         21   -1    0    0  501  503 -0.00000000000E+00 -0.00000000000E+00 -0.76934881380E+03  0.76934881380E+03  0.00000000000E+00 0. -1.
          6    2    1    2  501    0  0.59561875810E+01  0.64760217584E+02 -0.50941767012E+03  0.54166464379E+03  0.17223490284E+03 0.  0.
         24    2    3    3    0    0  0.10575973512E+01  0.32050466595E+02 -0.49989020629E+03  0.50692581015E+03  0.77815215287E+02 0.  0.
         -6    2    1    2    0  502 -0.59561875810E+01 -0.64760217584E+02 -0.20898620698E+03  0.27862910671E+03  0.17242268542E+03 0.  0.
        -24    2    5    5    0    0  0.59992227425E+01 -0.63910905662E+02 -0.23127271460E+03  0.25289136033E+03  0.79664151745E+02 0.  0.
          5    1    3    3  501    0  0.48985902298E+01  0.32709750989E+02 -0.95274638276E+01  0.34738833645E+02  0.47000000000E+01 0. -1.
        -11    1    4    4    0    0  0.27358630120E+02 -0.13865094192E+02 -0.15575126692E+03  0.15874253565E+03  0.00000000000E+00 0.  1.
         12    1    4    4    0    0 -0.26301032769E+02  0.45915560787E+02 -0.34413893937E+03  0.34818327450E+03  0.00000000000E+00 0. -1.
         -5    1    5    5    0  502 -0.11955410324E+02 -0.84931192138E+00  0.22286507626E+02  0.25737746383E+02  0.47000000000E+01 0.  1.
         13    1    6    6    0    0  0.30649502078E+02 -0.54639209659E+02 -0.93001399235E+02  0.11213427429E+03  0.00000000000E+00 0. -1.
        -14    1    6    6    0    0 -0.24650279336E+02 -0.92716960037E+01 -0.13827131537E+03  0.14075708604E+03  0.00000000000E+00 0.  1.
</event>
<event>
12    1  0.8356052E-002  0.2191679E+03  0.7818608E-02  0.1134758E+00
         21   -1    0    0  501  502  0.00000000000E+00  0.00000000000E+00  0.22584929950E+03  0.22584929950E+03  0.00000000000E+00 0. -1.
         21   -1    0    0  502  503 -0.00000000000E+00 -0.00000000000E+00 -0.28168387991E+03  0.28168387991E+03  0.00000000000E+00 0. -1.
         -6    2    1    2    0  503 -0.13723202269E+03 -0.17666897585E+01 -0.15475998180E+03  0.26830064575E+03  0.17087666692E+03 0.  0.
        -24    2    3    3    0    0 -0.14154436794E+03 -0.16958533006E+01 -0.17970205065E+03  0.24255577950E+03  0.80639910392E+02 0.  0.
          6    2    1    2  501    0  0.13723202269E+03  0.17666897585E+01  0.98925401396E+02  0.23923253366E+03  0.16914556120E+03 0.  0.
         24    2    5    5    0    0  0.30742170195E+02  0.47499049209E+02  0.23679729903E+02  0.10097357929E+03  0.80210307327E+02 0.  0.
          5    1    5    5  501    0  0.10648985250E+03 -0.45732359451E+02  0.75245671493E+02  0.13825895437E+03  0.47000000000E+01 0. -1.
        -11    1    6    6    0    0 -0.15003798358E+02 -0.44878821337E+01  0.27471162866E+02  0.31621509142E+02  0.00000000000E+00 0.  1.
         12    1    6    6    0    0  0.45745968553E+02  0.51986931343E+02 -0.37914329629E+01  0.69352070144E+02  0.00000000000E+00 0. -1.
         -5    1    3    3    0  503  0.43123452466E+01 -0.70836457922E-01  0.24942068853E+02  0.25744866245E+02  0.47000000000E+01 0.  1.
         13    1    4    4    0    0 -0.54694507082E+02 -0.39933562965E+02 -0.82100957120E+02  0.10642718504E+03  0.00000000000E+00 0. -1.
        -14    1    4    4    0    0 -0.86849860856E+02  0.38237709664E+02 -0.97601093534E+02  0.13612859446E+03  0.00000000000E+00 0.  1.
</event>
<event>
12    1  0.8356052E-002  0.2949346E+03  0.7818608E-02  0.1087988E+00
         21   -1    0    0  501  502  0.00000000000E+00  0.00000000000E+00  0.10255035700E+04  0.10255035700E+04  0.00000000000E+00 0.  1.
         21   -1    0    0  502  503 -0.00000000000E+00 -0.00000000000E+00 -0.13898662627E+03  0.13898662627E+03  0.00000000000E+00 0.  1.
         -6    2    1    2    0  503  0.17688306019E+03  0.15938304000E+03  0.79047280637E+02  0.30534390969E+03  0.17405706016E+03 0.  0.
        -24    2    3    3    0    0  0.16606069751E+03  0.71885281045E+02  0.20114200561E+02  0.19919222915E+03  0.80804171916E+02 0.  0.
          6    2    1    2  501    0 -0.17688306019E+03 -0.15938304000E+03  0.80746966312E+03  0.85914628660E+03  0.17156489880E+03 0.  0.
         24    2    5    5    0    0 -0.15987603229E+03 -0.13651896323E+03  0.47712627793E+03  0.52754283798E+03  0.80337959768E+02 0.  0.
          5    1    5    5  501    0 -0.17007027893E+02 -0.22864076762E+02  0.33034338518E+03  0.33160344862E+03  0.47000000000E+01 0. -1.
        -11    1    6    6    0    0 -0.75320021676E+02 -0.11553392360E+03  0.29594841895E+03  0.32650675314E+03  0.00000000000E+00 0.  1.
         12    1    6    6    0    0 -0.84556010618E+02 -0.20985039639E+02  0.18117785899E+03  0.20103608484E+03  0.00000000000E+00 0. -1.
         -5    1    3    3    0  503  0.10822362673E+02  0.87497758952E+02  0.58933080076E+02  0.10615168055E+03  0.47000000000E+01 0.  1.
         11    1    4    4    0    0  0.75211241269E+02  0.19067313456E+02  0.47006038665E+02  0.90718580934E+02  0.00000000000E+00 0. -1.
        -12    1    4    4    0    0  0.90849456244E+02  0.52817967589E+02 -0.26891838104E+02  0.10847364821E+03  0.00000000000E+00 0.  1.
</event>
<event>
12    1  0.8356052E-002  0.2372596E+03  0.7818608E-02  0.1122501E+00
         21   -1    0    0  503  502  0.00000000000E+00  0.00000000000E+00  0.39364800077E+02  0.39364800077E+02  0.00000000000E+00 0. -1.
         21   -1    0    0  501  503 -0.00000000000E+00 -0.00000000000E+00 -0.14030524138E+04  0.14030524138E+04  0.00000000000E+00 0.  1.
          6    2    1    2  501    0 -0.65090295714E+02  0.13642500546E+03 -0.71052956872E+03  0.74750172462E+03  0.17623289017E+03 0.  0.
         24    2    3    3    0    0 -0.12512557418E+02  0.72141983929E+02 -0.59614172094E+03  0.60606836526E+03  0.81073312396E+02 0.  0.
         -6    2    1    2    0  502  0.65090295714E+02 -0.13642500546E+03 -0.65315804504E+03  0.69491548929E+03  0.18287585064E+03 0.  0.
        -24    2    5    5    0    0 -0.14408618604E+02 -0.27482947066E+02 -0.14245709680E+03  0.16668637423E+03  0.80792340334E+02 0.  0.
          5    1    3    3  501    0 -0.52577738296E+02  0.64283021529E+02 -0.11438784778E+03  0.14143335937E+03  0.47000000000E+01 0. -1.
        -13    1    4    4    0    0  0.19715210563E+02  0.12186956719E+02 -0.34767302473E+03  0.34844474966E+03  0.00000000000E+00 0.  1.
         14    1    4    4    0    0 -0.32227767981E+02  0.59955027210E+02 -0.24846869620E+03  0.25762361559E+03  0.00000000000E+00 0. -1.
         -5    1    5    5    0  502  0.79498914318E+02 -0.10894205839E+03 -0.51070094824E+03  0.52822911506E+03  0.47000000000E+01 0.  1.
         13    1    6    6    0    0  0.33543175781E+02 -0.63323652339E+01 -0.55662328595E+02  0.65295775633E+02  0.00000000000E+00 0. -1.
        -14    1    6    6    0    0 -0.47951794385E+02 -0.21150581832E+02 -0.86794768205E+02  0.10139059860E+03  0.00000000000E+00 0.  1.
</event>
<event>
12    1  0.8356052E-002  0.2079464E+03  0.7818608E-02  0.1144010E+00
         21   -1    0    0  501  502  0.00000000000E+00  0.00000000000E+00  0.35211641963E+02  0.35211641963E+02  0.00000000000E+00 0. -1.
         21   -1    0    0  502  503 -0.00000000000E+00 -0.00000000000E+00 -0.16202649790E+04  0.16202649790E+04  0.00000000000E+00 0. -1.
         -6    2    1    2    0  503  0.10449766872E+03  0.53768413712E+02 -0.12060432741E+04  0.12231684630E+04  0.16670304350E+03 0.  0.
        -24    2    3    3    0    0  0.10488439902E+03  0.25804642437E+02 -0.11680251189E+04  0.11757385969E+04  0.80074673234E+02 0.  0.
          6    2    1    2  501    0 -0.10449766872E+03 -0.53768413712E+02 -0.37901006297E+03  0.43230815803E+03  0.17155439541E+03 0.  0.
         24    2    5    5    0    0  0.86111808981E+01 -0.44078246434E+02 -0.20630974886E+03  0.22558370447E+03  0.79418203225E+02 0.  0.
          5    1    5    5  501    0 -0.11310884962E+03 -0.96901672777E+01 -0.17270031411E+03  0.20672445355E+03  0.47000000000E+01 0. -1.
        -11    1    6    6    0    0  0.35867578722E+02 -0.39445129869E+02 -0.79002543353E+02  0.95308988716E+02  0.00000000000E+00 0.  1.
         12    1    6    6    0    0 -0.27256397824E+02 -0.46331165653E+01 -0.12730720551E+03  0.13027471576E+03  0.00000000000E+00 0. -1.
         -5    1    3    3    0  503 -0.38673029752E+00  0.27963771275E+02 -0.38018155231E+02  0.47429866027E+02  0.47000000000E+01 0.  1.
         11    1    4    4    0    0  0.24150791810E+02 -0.15530174436E+02 -0.10512736168E+03  0.10897802181E+03  0.00000000000E+00 0. -1.
        -12    1    4    4    0    0  0.80733607210E+02  0.41334816874E+02 -0.10628977572E+04  0.10667605751E+04  0.00000000000E+00 0.  1.
</event>
<event>
12    1  0.8356052E-002  0.1998348E+03  0.7818608E-02  0.1150513E+00
         21   -1    0    0  501  502  0.00000000000E+00  0.00000000000E+00  0.63425834336E+02  0.63425834336E+02  0.00000000000E+00 0.  1.
         21   -1    0    0  502  503 -0.00000000000E+00 -0.00000000000E+00 -0.62376111309E+03  0.62376111309E+03  0.00000000000E+00 0. -1.
         -6    2    1    2    0  503  0.75357830306E+02 -0.55672403231E+02 -0.30383792359E+03  0.36203339935E+03  0.17312561729E+03 0.  0.
        -24    2    3    3    0    0  0.84769213072E+02  0.45663308671E+01 -0.84435661988E+02  0.13426878048E+03  0.60762270651E+02 0.  0.
          6    2    1    2  501    0 -0.75357830306E+02  0.55672403231E+02 -0.25649735517E+03  0.32515354808E+03  0.17650982282E+03 0.  0.
         24    2    5    5    0    0 -0.44970547514E+02  0.18355044558E+02 -0.26081481628E+03  0.27660766582E+03  0.78282658316E+02 0.  0.
          5    1    5    5  501    0 -0.30387282792E+02  0.37317358673E+02  0.43174611157E+01  0.48545882259E+02  0.47000000000E+01 0. -1.
        -11    1    6    6    0    0 -0.22758348113E+02  0.15475467505E+02 -0.18276424802E+02  0.33037254833E+02  0.00000000000E+00 0.  1.
         12    1    6    6    0    0 -0.22212199402E+02  0.28795770529E+01 -0.24253839148E+03  0.24357041099E+03  0.00000000000E+00 0. -1.
         -5    1    3    3    0  503 -0.94113827658E+01 -0.60238734098E+02 -0.21940226160E+03  0.22776461886E+03  0.47000000000E+01 0.  1.
         11    1    4    4    0    0  0.34856543078E+02  0.24381402140E+02 -0.63922447132E+02  0.76782228497E+02  0.00000000000E+00 0. -1.
        -12    1    4    4    0    0  0.49912669994E+02 -0.19815071273E+02 -0.20513214856E+02  0.57486551986E+02  0.00000000000E+00 0.  1.
</event>
<event>
12    1  0.8356052E-002  0.2532518E+03  0.7818608E-02  0.1111331E+00
         21   -1    0    0  503  502  0.00000000000E+00  0.00000000000E+00  0.85913207957E+03  0.85913207957E+03  0.00000000000E+00 0. -1.
         21   -1    0    0  501  503 -0.00000000000E+00 -0.00000000000E+00 -0.75868485463E+02  0.75868485463E+02  0.00000000000E+00 0. -1.
          6    2    1    2  501    0  0.12015004608E+03 -0.14146304145E+03  0.45340027809E+03  0.51913248862E+03  0.17169421335E+03 0.  0.
         24    2    3    3    0    0 -0.47074032025E+01 -0.71624449352E+02  0.23309328135E+03  0.25640815704E+03  0.79122966329E+02 0.  0.
         -6    2    1    2    0  502 -0.12015004608E+03  0.14146304145E+03  0.32986331601E+03  0.41586807641E+03  0.17230387128E+03 0.  0.
        -24    2    5    5    0    0 -0.90448227855E+02  0.16213075702E+03  0.31924017121E+03  0.37786421242E+03  0.79998823856E+02 0.  0.
          5    1    3    3  501    0  0.12485744928E+03 -0.69838592095E+02  0.22030699675E+03  0.26272433158E+03  0.47000000000E+01 0. -1.
        -13    1    4    4    0    0  0.12287899429E+02 -0.56318089200E+02  0.65462347825E+02  0.87224071370E+02  0.00000000000E+00 0.  1.
         14    1    4    4    0    0 -0.16995302632E+02 -0.15306360152E+02  0.16763093352E+03  0.16918408568E+03  0.00000000000E+00 0. -1.
         -5    1    5    5    0  502 -0.29701818223E+02 -0.20667715570E+02  0.10623144795E+02  0.38003863987E+02  0.47000000000E+01 0.  1.
         11    1    6    6    0    0 -0.75008690468E+02  0.75380610646E+02  0.22490499555E+03  0.24877861067E+03  0.00000000000E+00 0. -1.
        -12    1    6    6    0    0 -0.15439537387E+02  0.86750146371E+02  0.94335175669E+02  0.12908560175E+03  0.00000000000E+00 0.  1.
</event>
<event>
12    1  0.8356052E-002  0.1916610E+03  0.7818608E-02  0.1157652E+00
         21   -1    0    0  501  502  0.00000000000E+00  0.00000000000E+00  0.96841924091E+02  0.96841924091E+02  0.00000000000E+00 0.  1.
         21   -1    0    0  502  503 -0.00000000000E+00 -0.00000000000E+00 -0.38281253033E+03  0.38281253033E+03  0.00000000000E+00 0.  1.
         -6    2    1    2    0  503  0.22513648131E+02 -0.68899721488E+02 -0.17956935280E+03  0.26043953572E+03  0.17415384959E+03 0.  0.
        -24    2    3    3    0    0  0.77710963008E+02 -0.24026283607E+02 -0.13606705122E+03  0.17692361365E+03  0.78558682288E+02 0.  0.
          6    2    1    2  501    0 -0.22513648131E+02  0.68899721488E+02 -0.10640125344E+03  0.21921491870E+03  0.17742580950E+03 0.  0.
         24    2    5    5    0    0  0.17749290307E+02  0.98841044841E+02 -0.10940809824E+03  0.16873008760E+03  0.80094450813E+02 0.  0.
          5    1    5    5  501    0 -0.40262938438E+02 -0.29941323353E+02  0.30068447924E+01  0.50484831102E+02  0.47000000000E+01 0. -1.
        -13    1    6    6    0    0 -0.11479582102E+02  0.79313157853E+02 -0.37058989850E+02  0.88293411660E+02  0.00000000000E+00 0.  1.
         14    1    6    6    0    0  0.29228872409E+02  0.19527886989E+02 -0.72349108385E+02  0.80436675942E+02  0.00000000000E+00 0. -1.
         -5    1    3    3    0  503 -0.55197314877E+02 -0.44873437881E+02 -0.43502301580E+02  0.83515922073E+02  0.47000000000E+01 0.  1.
         13    1    4    4    0    0 -0.11158348232E+00  0.22357335360E+02 -0.30385563565E+02  0.37724598983E+02  0.00000000000E+00 0. -1.
        -14    1    4    4    0    0  0.77822546490E+02 -0.46383618966E+02 -0.10568148766E+03  0.13919901466E+03  0.00000000000E+00 0.  1.
</event>
<event>
12    1  0.8356052E-002  0.2029623E+03  0.7818608E-02  0.1147748E+00
         21   -1    0    0  501  502  0.00000000000E+00  0.00000000000E+00  0.13851752801E+03  0.13851752801E+03  0.00000000000E+00 0. -1.
         21   -1    0    0  502  503 -0.00000000000E+00 -0.00000000000E+00 -0.32978182145E+03  0.32978182145E+03  0.00000000000E+00 0.  1.
         -6    2    1    2    0  503 -0.10323690830E+03 -0.28292449295E+02 -0.17326344573E+03  0.26685937411E+03  0.17243950243E+03 0.  0.
        -24    2    3    3    0    0 -0.78125177393E+02  0.25060389589E+02 -0.42402836300E+02  0.12324978687E+03  0.81614600210E+02 0.  0.
          6    2    1    2  501    0  0.10323690830E+03  0.28292449295E+02 -0.18000847716E+02  0.20143997535E+03  0.16969299110E+03 0.  0.
         24    2    5    5    0    0  0.34645279601E+02  0.68485665798E+02  0.31438763762E+02  0.10770272895E+03  0.68708806844E+02 0.  0.
          5    1    5    5  501    0  0.68591628700E+02 -0.40193216502E+02 -0.49439611478E+02  0.93737246405E+02  0.47000000000E+01 0. -1.
        -13    1    6    6    0    0  0.30358996538E+02  0.23499325140E+02 -0.16531358419E+02  0.41799195734E+02  0.00000000000E+00 0.  1.
         14    1    6    6    0    0  0.42862830636E+01  0.44986340657E+02  0.47970122181E+02  0.65903533216E+02  0.00000000000E+00 0. -1.
         -5    1    3    3    0  503 -0.25111730908E+02 -0.53352838885E+02 -0.13086060943E+03  0.14360958724E+03  0.47000000000E+01 0.  1.
         11    1    4    4    0    0  0.79481065367E+01  0.17209051433E+02 -0.30629901831E+02  0.36021031842E+02  0.00000000000E+00 0. -1.
        -12    1    4    4    0    0 -0.86073283930E+02  0.78513381562E+01 -0.11772934469E+02  0.87228755026E+02  0.00000000000E+00 0.  1.
</event>
<event>
12    1  0.8356052E-002  0.3007884E+03  0.7818608E-02  0.1084994E+00
         21   -1    0    0  501  502  0.00000000000E+00  0.00000000000E+00  0.15007890148E+03  0.15007890148E+03  0.00000000000E+00 0. -1.
         21   -1    0    0  502  503 -0.00000000000E+00 -0.00000000000E+00 -0.63900224007E+03  0.63900224007E+03  0.00000000000E+00 0.  1.
         -6    2    1    2    0  503  0.23820561203E+03 -0.60027050029E+02 -0.34087492619E+03  0.45383195159E+03  0.17153006922E+03 0.  0.
        -24    2    3    3    0    0  0.42074493836E+02 -0.26476446107E+02 -0.67481379752E+02  0.11566161023E+03  0.79703238559E+02 0.  0.
          6    2    1    2  501    0 -0.23820561203E+03  0.60027050029E+02 -0.14804841240E+03  0.33524918995E+03  0.17357570859E+03 0.  0.
         24    2    5    5    0    0 -0.19230200586E+03  0.10066358633E+03 -0.14766121746E+03  0.27376171919E+03  0.77642930655E+02 0.  0.
          5    1    5    5  501    0 -0.45903606171E+02 -0.40636536296E+02 -0.38719493992E+00  0.61487470769E+02  0.47000000000E+01 0. -1.
        -11    1    6    6    0    0 -0.19040841953E+03  0.81690761689E+02 -0.14811437180E+03  0.25468924969E+03  0.00000000000E+00 0.  1.
         12    1    6    6    0    0 -0.18935863291E+01  0.18972824636E+02  0.45315434041E+00  0.19072469497E+02  0.00000000000E+00 0. -1.
         -5    1    3    3    0  503  0.19613111819E+03 -0.33550603922E+02 -0.27339354644E+03  0.33817034137E+03  0.47000000000E+01 0.  1.
         11    1    4    4    0    0  0.49024996665E+02 -0.29416540423E+02 -0.10434430059E+02  0.58117643440E+02  0.00000000000E+00 0. -1.
        -12    1    4    4    0    0 -0.69505028287E+01  0.29400943156E+01 -0.57046949693E+02  0.57543966786E+02  0.00000000000E+00 0.  1.
</event>
<event>
12    1  0.8356052E-002  0.1942560E+03  0.7818608E-02  0.1155927E+00
         21   -1    0    0  501  502  0.00000000000E+00  0.00000000000E+00  0.17868340811E+03  0.17868340811E+03  0.00000000000E+00 0.  1.
         21   -1    0    0  502  503 -0.00000000000E+00 -0.00000000000E+00 -0.20612005964E+03  0.20612005964E+03  0.00000000000E+00 0.  1.
         -6    2    1    2    0  503  0.52392826169E+02 -0.54175193192E+02 -0.26883085801E+02  0.19054670682E+03  0.17293174199E+03 0.  0.
        -24    2    3    3    0    0  0.88040049522E+02 -0.80106455630E+02 -0.28176894569E+02  0.14619674802E+03  0.80071575426E+02 0.  0.
          6    2    1    2  501    0 -0.52392826169E+02  0.54175193192E+02 -0.55356572020E+00  0.19425676093E+03  0.17904028301E+03 0.  0.
         24    2    5    5    0    0 -0.54007471072E+01 -0.30581743264E+02  0.31752319321E+02  0.91993600503E+02  0.80561787846E+02 0.  0.
          5    1    5    5  501    0 -0.46992079062E+02  0.84756936457E+02 -0.32305885041E+02  0.10226316043E+03  0.47000000000E+01 0. -1.
        -11    1    6    6    0    0 -0.27744168196E+02 -0.69778366016E+01  0.47829846715E+02  0.55732605442E+02  0.00000000000E+00 0.  1.
         12    1    6    6    0    0  0.22343421089E+02 -0.23603906663E+02 -0.16077527395E+02  0.36260995061E+02  0.00000000000E+00 0. -1.
         -5    1    3    3    0  503 -0.35647223353E+02  0.25931262438E+02  0.12938087685E+01  0.44349958799E+02  0.47000000000E+01 0.  1.
         11    1    4    4    0    0  0.34700987674E+02 -0.25730079080E+02  0.28062936594E+02  0.51514307967E+02  0.00000000000E+00 0. -1.
        -12    1    4    4    0    0  0.53339061848E+02 -0.54376376550E+02 -0.56239831163E+02  0.94682440055E+02  0.00000000000E+00 0.  1.
</event>
<event>
12    1  0.8356052E-002  0.1854997E+03  0.7818608E-02  0.1163089E+00
         21   -1    0    0  503  502  0.00000000000E+00  0.00000000000E+00  0.68963472122E+02  0.68963472122E+02  0.00000000000E+00 0.  1.
         21   -1    0    0  501  503 -0.00000000000E+00 -0.00000000000E+00 -0.68519914671E+03  0.68519914671E+03  0.00000000000E+00 0.  1.
          6    2    1    2  501    0 -0.33311019963E+02  0.59869087708E+02 -0.50643886237E+03  0.53860407427E+03  0.17005909497E+03 0.  0.
         24    2    3    3    0    0  0.94867780847E+01  0.66448808657E+02 -0.47141311156E+03  0.48271277382E+03  0.79220307578E+02 0.  0.
         -6    2    1    2    0  502  0.33311019963E+02 -0.59869087708E+02 -0.10979681222E+03  0.21555854456E+03  0.17238391586E+03 0.  0.
        -24    2    5    5    0    0  0.61597493944E+02 -0.96727536764E+02 -0.71867561398E+02  0.15539719530E+03  0.76373256436E+02 0.  0.
          5    1    3    3  501    0 -0.42797798047E+02 -0.65797209496E+01 -0.35025750819E+02  0.55891300449E+02  0.47000000000E+01 0. -1.
        -13    1    4    4    0    0 -0.28647284399E+02  0.33653442129E+02 -0.12322595092E+03  0.13091163452E+03  0.00000000000E+00 0.  1.
         14    1    4    4    0    0  0.38134062484E+02  0.32795366528E+02 -0.34818716063E+03  0.35180113930E+03  0.00000000000E+00 0. -1.
         -5    1    5    5    0  502 -0.28286473981E+02  0.36858449056E+02 -0.37929250818E+02  0.60161349260E+02  0.47000000000E+01 0.  1.
         11    1    6    6    0    0 -0.45269589676E+01 -0.25164116991E+02 -0.49067111476E+02  0.55329084305E+02  0.00000000000E+00 0. -1.
        -12    1    6    6    0    0  0.66124452911E+02 -0.71563419772E+02 -0.22800449922E+02  0.10006811100E+03  0.00000000000E+00 0.  1.
</event>
<event>
12    1  0.8356052E-002  0.1766457E+03  0.7818608E-02  0.1171522E+00
         21   -1    0    0  503  502  0.00000000000E+00  0.00000000000E+00  0.14185102457E+03  0.14185102457E+03  0.00000000000E+00 0.  1.
         21   -1    0    0  501  503 -0.00000000000E+00 -0.00000000000E+00 -0.28431698596E+03  0.28431698596E+03  0.00000000000E+00 0.  1.
          6    2    1    2  501    0 -0.26889171977E+02 -0.12605346447E+02 -0.17455210868E+03  0.24833878666E+03  0.17413153645E+03 0.  0.
         24    2    3    3    0    0 -0.10665488800E+02 -0.38054236291E+02 -0.19404404848E+03  0.21210510609E+03  0.75984246570E+02 0.  0.
         -6    2    1    2    0  502  0.26889171977E+02  0.12605346447E+02  0.32086147284E+02  0.17782922387E+03  0.17237108135E+03 0.  0.
        -24    2    5    5    0    0 -0.42357249392E+02 -0.23397883481E+02  0.30468576871E+02  0.99624326506E+02  0.81578641370E+02 0.  0.
          5    1    3    3  501    0 -0.16223683177E+02  0.25448889843E+02  0.19491939806E+02  0.36233680568E+02  0.47000000000E+01 0. -1.
        -13    1    4    4    0    0  0.88191445742E+01 -0.75180930612E+01 -0.16571540107E+03  0.16612011674E+03  0.00000000000E+00 0.  1.
         14    1    4    4    0    0 -0.19484633374E+02 -0.30536143229E+02 -0.28328647409E+02  0.45984989345E+02  0.00000000000E+00 0. -1.
         -5    1    5    5    0  502  0.69246421369E+02  0.36003229928E+02  0.16175704128E+01  0.78204897364E+02  0.47000000000E+01 0.  1.
         11    1    6    6    0    0 -0.37775086034E+02 -0.93208071865E+01  0.57134619949E+02  0.69124520745E+02  0.00000000000E+00 0. -1.
        -12    1    6    6    0    0 -0.45821633583E+01 -0.14077076295E+02 -0.26666043078E+02  0.30499805761E+02  0.00000000000E+00 0.  1.
</event>
<event>
12    1  0.8356052E-002  0.1831379E+03  0.7818608E-02  0.1165444E+00
         21   -1    0    0  503  502  0.00000000000E+00  0.00000000000E+00  0.42279014864E+02  0.42279014864E+02  0.00000000000E+00 0.  1.
         21   -1    0    0  501  503 -0.00000000000E+00 -0.00000000000E+00 -0.11139626691E+04  0.11139626691E+04  0.00000000000E+00 0.  1.
          6    2    1    2  501    0 -0.39812930012E+02  0.36392614474E+02 -0.85439202406E+03  0.87379931225E+03  0.17501432949E+03 0.  0.
         24    2    3    3    0    0 -0.91343464396E+01  0.20755710992E+01 -0.79245238772E+03  0.79648538397E+03  0.79501168503E+02 0.  0.
         -6    2    1    2    0  502  0.39812930012E+02 -0.36392614474E+02 -0.21729163015E+03  0.28244237169E+03  0.17218754022E+03 0.  0.
        -24    2    5    5    0    0  0.84036587382E+02 -0.34112883786E+02 -0.96819648306E+02  0.15400360242E+03  0.78212712519E+02 0.  0.
          5    1    3    3  501    0 -0.30678583573E+02  0.34317043375E+02 -0.61939636337E+02  0.77313928277E+02  0.47000000000E+01 0. -1.
        -11    1    4    4    0    0 -0.44252396915E+02  0.34489719486E+01 -0.39667381617E+03  0.39914945380E+03  0.00000000000E+00 0.  1.
         12    1    4    4    0    0  0.35118050476E+02 -0.13734008495E+01 -0.39577857156E+03  0.39733593017E+03  0.00000000000E+00 0. -1.
         -5    1    5    5    0  502 -0.44223657370E+02 -0.22797306876E+01 -0.12047198184E+03  0.12843876927E+03  0.47000000000E+01 0.  1.
         13    1    6    6    0    0  0.12020663251E+02 -0.20112938289E+01 -0.69496117087E+02  0.70556728510E+02  0.00000000000E+00 0. -1.
        -14    1    6    6    0    0  0.72015924131E+02 -0.32101589958E+02 -0.27323531219E+02  0.83446873905E+02  0.00000000000E+00 0.  1.
</event>
<event>
12    1  0.8356052E-002  0.2160156E+03  0.7818608E-02  0.1137101E+00
         21   -1    0    0  501  502  0.00000000000E+00  0.00000000000E+00  0.24469183219E+02  0.24469183219E+02  0.00000000000E+00 0. -1.
         21   -1    0    0  502  503 -0.00000000000E+00 -0.00000000000E+00 -0.21338372991E+04  0.21338372991E+04  0.00000000000E+00 0.  1.
         -6    2    1    2    0  503  0.12868678271E+03  0.25105834169E+02 -0.14164303902E+04  0.14328076655E+04  0.17167459068E+03 0.  0.
        -24    2    3    3    0    0  0.12406884574E+03  0.50832068584E+02 -0.77297445965E+03  0.78880394731E+03  0.82129010393E+02 0.  0.
          6    2    1    2  501    0 -0.12868678271E+03 -0.25105834169E+02 -0.69293772571E+03  0.72549881685E+03  0.17027991831E+03 0.  0.
         24    2    5    5    0    0 -0.42686215823E+02  0.38905641930E+02 -0.43984042109E+03  0.45059173767E+03  0.78978199743E+02 0.  0.
          5    1    5    5  501    0 -0.86000566883E+02 -0.64011476099E+02 -0.25309730462E+03  0.27490707918E+03  0.47000000000E+01 0. -1.
        -11    1    6    6    0    0 -0.32433857368E+02 -0.41830346457E+01 -0.61378647194E+02  0.69547043172E+02  0.00000000000E+00 0.  1.
         12    1    6    6    0    0 -0.10252358455E+02  0.43088676575E+02 -0.37846177390E+03  0.38104469450E+03  0.00000000000E+00 0. -1.
         -5    1    3    3    0  503  0.46179369679E+01 -0.25726234415E+02 -0.64345593055E+03  0.64400371819E+03  0.47000000000E+01 0.  1.
         11    1    4    4    0    0  0.93297483287E+02 -0.50550256488E+01 -0.45925561124E+03  0.46866372820E+03  0.00000000000E+00 0. -1.
        -12    1    4    4    0    0  0.30771362451E+02  0.55887094232E+02 -0.31371884841E+03  0.32014021911E+03  0.00000000000E+00 0.  1.
</event>
<event>
12    1  0.8356052E-002  0.2531662E+03  0.7818608E-02  0.1111404E+00
         21   -1    0    0  503  502  0.00000000000E+00  0.00000000000E+00  0.76746899878E+02  0.76746899878E+02  0.00000000000E+00 0.  1.
         21   -1    0    0  501  503 -0.00000000000E+00 -0.00000000000E+00 -0.97981989211E+03  0.97981989211E+03  0.00000000000E+00 0.  1.
          6    2    1    2  501    0  0.22921327568E+02  0.18457280699E+03 -0.24687319426E+03  0.35322384731E+03  0.17096258048E+03 0.  0.
         24    2    3    3    0    0  0.55555881097E+02  0.16758325269E+03 -0.14125434493E+03  0.24128149440E+03  0.84222129354E+02 0.  0.
         -6    2    1    2    0  502 -0.22921327568E+02 -0.18457280699E+03 -0.65619979797E+03  0.70334294468E+03  0.17175742965E+03 0.  0.
        -24    2    5    5    0    0 -0.69772644096E+02 -0.85856517188E+02 -0.44621776553E+03  0.46658463822E+03  0.79695463714E+02 0.  0.
          5    1    3    3  501    0 -0.32634553529E+02  0.16989554291E+02 -0.10561884933E+03  0.11194235290E+03  0.47000000000E+01 0. -1.
        -11    1    4    4    0    0  0.15911531531E+02  0.12957208484E+03 -0.13187844322E+03  0.18556407463E+03  0.00000000000E+00 0.  1.
         12    1    4    4    0    0  0.39644349565E+02  0.38011167850E+02 -0.93759017104E+01  0.55717419778E+02  0.00000000000E+00 0. -1.
         -5    1    5    5    0  502  0.46851316528E+02 -0.98716289797E+02 -0.20998203244E+03  0.23675830646E+03  0.47000000000E+01 0.  1.
         13    1    6    6    0    0  0.15689690436E+02 -0.10356966430E+02 -0.33632666566E+02  0.38530369839E+02  0.00000000000E+00 0. -1.
        -14    1    6    6    0    0 -0.85462334532E+02 -0.75499550759E+02 -0.41258509897E+03  0.42805426838E+03  0.00000000000E+00 0.  1.
</event>
<event>
12    1  0.8356052E-002  0.1972311E+03  0.7818608E-02  0.1153098E+00
         21   -1    0    0  503  502  0.00000000000E+00  0.00000000000E+00  0.11666158536E+03  0.11666158536E+03  0.00000000000E+00 0.  1.
         21   -1    0    0  501  503 -0.00000000000E+00 -0.00000000000E+00 -0.45535191130E+03  0.45535191130E+03  0.00000000000E+00 0. -1.
          6    2    1    2  501    0  0.84610177483E+02 -0.49661172702E+02 -0.32337969494E+03  0.37878030189E+03  0.17109931559E+03 0.  0.
         24    2    3    3    0    0  0.85492384307E+01  0.11119287410E+02 -0.68000474035E+02  0.10543040295E+03  0.79339633018E+02 0.  0.
         -6    2    1    2    0  502 -0.84610177483E+02  0.49661172702E+02 -0.15310631003E+02  0.19323319477E+03  0.16576953258E+03 0.  0.
        -24    2    5    5    0    0 -0.23954096464E+02  0.24225000324E+01  0.48769505549E+02  0.93038353287E+02  0.75485119508E+02 0.  0.
          5    1    3    3  501    0  0.76060939052E+02 -0.60780460112E+02 -0.25537922090E+03  0.27334989894E+03  0.47000000000E+01 0. -1.
        -13    1    4    4    0    0 -0.41699128206E+01  0.22683607801E+02 -0.80781394804E+02  0.84009332709E+02  0.00000000000E+00 0.  1.
         14    1    4    4    0    0  0.12719151251E+02 -0.11564320391E+02  0.12780920769E+02  0.21421070243E+02  0.00000000000E+00 0. -1.
         -5    1    5    5    0  502 -0.60656081019E+02  0.47238672669E+02 -0.64080136552E+02  0.10019484149E+03  0.47000000000E+01 0.  1.
         11    1    6    6    0    0 -0.40487303112E+02 -0.23441190801E+02  0.19701603294E+02  0.50762824112E+02  0.00000000000E+00 0. -1.
        -12    1    6    6    0    0  0.16533206648E+02  0.25863690833E+02  0.29067902255E+02  0.42275529176E+02  0.00000000000E+00 0.  1.
</event>
<event>
12    1  0.8356052E-002  0.2022038E+03  0.7818608E-02  0.1148528E+00
         21   -1    0    0  501  502  0.00000000000E+00  0.00000000000E+00  0.15952155183E+03  0.15952155183E+03  0.00000000000E+00 0. -1.
         21   -1    0    0  502  503 -0.00000000000E+00 -0.00000000000E+00 -0.27378109009E+03  0.27378109009E+03  0.00000000000E+00 0. -1.
         -6    2    1    2    0  503 -0.80783277729E+02  0.48931217637E+02  0.29053987236E+01  0.20222469156E+03  0.17879089047E+03 0.  0.
        -24    2    3    3    0    0 -0.16743729645E+02 -0.40559243712E+02  0.11185330336E+02  0.91769933137E+02  0.79819823855E+02 0.  0.
          6    2    1    2  501    0  0.80783277729E+02 -0.48931217637E+02 -0.11716493698E+03  0.23107795035E+03  0.17535448286E+03 0.  0.
         24    2    5    5    0    0  0.79339762767E+01 -0.82994604553E+02 -0.93551308728E+02  0.14713136918E+03  0.77102140491E+02 0.  0.
          5    1    5    5  501    0  0.72849301453E+02  0.34063386916E+02 -0.23613628255E+02  0.83946581167E+02  0.47000000000E+01 0. -1.
        -11    1    6    6    0    0 -0.20045616446E+02 -0.10068141091E+02  0.33368308600E+01  0.22678814870E+02  0.00000000000E+00 0.  1.
         12    1    6    6    0    0  0.27979592723E+02 -0.72926463463E+02 -0.96888139588E+02  0.12445255431E+03  0.00000000000E+00 0. -1.
         -5    1    3    3    0  503 -0.64039548084E+02  0.89490461350E+02 -0.82799316123E+01  0.11045475843E+03  0.47000000000E+01 0.  1.
         13    1    4    4    0    0 -0.37525031912E+02 -0.50987304013E+02  0.20760474679E+02  0.66624548774E+02  0.00000000000E+00 0. -1.
        -14    1    4    4    0    0  0.20781302267E+02  0.10428060300E+02 -0.95751443428E+01  0.25145384362E+02  0.00000000000E+00 0.  1.
</event>
<event>
12    1  0.8356052E-002  0.2284279E+03  0.7818608E-02  0.1127900E+00
         21   -1    0    0  503  502  0.00000000000E+00  0.00000000000E+00  0.17320840889E+03  0.17320840889E+03  0.00000000000E+00 0.  1.
         21   -1    0    0  501  503 -0.00000000000E+00 -0.00000000000E+00 -0.62072739777E+03  0.62072739777E+03  0.00000000000E+00 0. -1.
          6    2    1    2  501    0 -0.21785000264E+02 -0.14800352527E+03 -0.50884087089E+03  0.55742007883E+03  0.17151817008E+03 0.  0.
         24    2    3    3    0    0 -0.66623440335E+02 -0.52879817086E+02 -0.33067734152E+03  0.35048207178E+03  0.79089952494E+02 0.  0.
         -6    2    1    2    0  502  0.21785000264E+02  0.14800352527E+03  0.61321882009E+02  0.23651572783E+03  0.17262585719E+03 0.  0.
        -24    2    5    5    0    0  0.33576312776E+01  0.19518830562E+02 -0.28050367780E+02  0.78853513801E+02  0.70984470639E+02 0.  0.
          5    1    3    3  501    0  0.44838440071E+02 -0.95123708182E+02 -0.17816352937E+03  0.20693800705E+03  0.47000000000E+01 0. -1.
        -11    1    4    4    0    0 -0.54368232963E+02 -0.57065380616E+00 -0.10208936586E+03  0.11566533198E+03  0.00000000000E+00 0.  1.
         12    1    4    4    0    0 -0.12255207372E+02 -0.52309163279E+02 -0.22858797566E+03  0.23481673979E+03  0.00000000000E+00 0. -1.
         -5    1    5    5    0  502  0.18427368986E+02  0.12848469471E+03  0.89372249790E+02  0.15766221403E+03  0.47000000000E+01 0.  1.
         13    1    6    6    0    0 -0.32631200124E+02  0.60909390434E+01 -0.37638343417E+01  0.33407502285E+02  0.00000000000E+00 0. -1.
        -14    1    6    6    0    0  0.35988831402E+02  0.13427891518E+02 -0.24286533439E+02  0.45446011516E+02  0.00000000000E+00 0.  1.
</event>
<event>
12    1  0.8356052E-002  0.2140993E+03  0.7818608E-02  0.1139213E+00
         21   -1    0    0  503  502  0.00000000000E+00  0.00000000000E+00  0.13591127924E+03  0.13591127924E+03  0.00000000000E+00 0. -1.
         21   -1    0    0  501  503 -0.00000000000E+00 -0.00000000000E+00 -0.34348852028E+03  0.34348852028E+03  0.00000000000E+00 0.  1.
          6    2    1    2  501    0 -0.28143658550E+02 -0.12408757701E+03 -0.14950967768E+03  0.25756574543E+03  0.16672485481E+03 0.  0.
         24    2    3    3    0    0 -0.45887315487E+02 -0.11218221108E+03 -0.45698373023E+02  0.15147403004E+03  0.78520992572E+02 0.  0.
         -6    2    1    2    0  502  0.28143658550E+02  0.12408757701E+03 -0.58067563352E+02  0.22183405409E+03  0.17218801745E+03 0.  0.
        -24    2    5    5    0    0  0.29258930690E+02  0.16255302810E+03 -0.56963884955E+02  0.18305077334E+03  0.54618032406E+02 0.  0.
          5    1    3    3  501    0  0.17743656937E+02 -0.11905365935E+02 -0.10381130466E+03  0.10609171539E+03  0.47000000000E+01 0. -1.
        -11    1    4    4    0    0 -0.18057655234E+02  0.80498270132E+01 -0.13473953328E+02  0.23925426763E+02  0.00000000000E+00 0.  1.
         12    1    4    4    0    0 -0.27829660253E+02 -0.12023203809E+03 -0.32224419695E+02  0.12754860328E+03  0.00000000000E+00 0. -1.
         -5    1    5    5    0  502 -0.11152721396E+01 -0.38465451086E+02 -0.11036783964E+01  0.38783280744E+02  0.47000000000E+01 0.  1.
         11    1    6    6    0    0 -0.87611138691E+01  0.89898928633E+02 -0.42340655790E+02  0.99756230975E+02  0.00000000000E+00 0. -1.
        -12    1    6    6    0    0  0.38020044559E+02  0.72654099465E+02 -0.14623229165E+02  0.83294542369E+02  0.00000000000E+00 0.  1.
</event>
<event>
12    1  0.8356052E-002  0.2364658E+03  0.7818608E-02  0.1122243E+00
         21   -1    0    0  503  502  0.00000000000E+00  0.00000000000E+00  0.54886998707E+03  0.54886998707E+03  0.00000000000E+00 0.  1.
         21   -1    0    0  501  503 -0.00000000000E+00 -0.00000000000E+00 -0.11181160045E+03  0.11181160045E+03  0.00000000000E+00 0.  1.
          6    2    1    2  501    0  0.95243302718E+02  0.13027478274E+03  0.11895825871E+03  0.26431838354E+03  0.17225079050E+03 0.  0.
         24    2    3    3    0    0  0.40137520306E+02  0.50936719888E+02 -0.93995752074E+01  0.10360435490E+03  0.80249239066E+02 0.  0.
         -6    2    1    2    0  502 -0.95243302718E+02 -0.13027478274E+03  0.31810012791E+03  0.39636320398E+03  0.17283892027E+03 0.  0.
        -24    2    5    5    0    0 -0.13014321991E+03 -0.79481064946E+02  0.25717324974E+03  0.30957506843E+03  0.80275433606E+02 0.  0.
          5    1    3    3  501    0  0.55105782412E+02  0.79338062855E+02  0.12835783392E+03  0.16071402864E+03  0.47000000000E+01 0. -1.
        -13    1    4    4    0    0  0.30416221188E+02  0.72707109121E+02 -0.11594914450E+02  0.79661234420E+02  0.00000000000E+00 0.  1.
         14    1    4    4    0    0  0.97212991171E+01 -0.21770389233E+02  0.21953392422E+01  0.23943120479E+02  0.00000000000E+00 0. -1.
         -5    1    5    5    0  502  0.34899917192E+02 -0.50793717797E+02  0.60926878173E+02  0.86788135546E+02  0.47000000000E+01 0.  1.
         11    1    6    6    0    0 -0.90271328311E+01 -0.21416712877E+01  0.84143078726E+02  0.84653018733E+02  0.00000000000E+00 0. -1.
        -12    1    6    6    0    0 -0.12111608708E+03 -0.77339393658E+02  0.17303017101E+03  0.22492204970E+03  0.00000000000E+00 0.  1.
</event>
<event>
12    1  0.8356052E-002  0.1781348E+03  0.7818608E-02  0.1169937E+00
         21   -1    0    0  503  502  0.00000000000E+00  0.00000000000E+00  0.90627542568E+03  0.90627542568E+03  0.00000000000E+00 0.  1.
         21   -1    0    0  501  503 -0.00000000000E+00 -0.00000000000E+00 -0.38562441066E+02  0.38562441066E+02  0.00000000000E+00 0.  1.
          6    2    1    2  501    0  0.32298177484E+01 -0.43474163996E+02  0.28695049473E+03  0.33774637029E+03  0.17271823749E+03 0.  0.
         24    2    3    3    0    0 -0.13538654284E+02 -0.29833285401E+02  0.29971364391E+03  0.31220731784E+03  0.81066768119E+02 0.  0.
         -6    2    1    2    0  502 -0.32298177484E+01  0.43474163996E+02  0.58076248988E+03  0.60709149645E+03  0.17139014194E+03 0.  0.
        -24    2    5    5    0    0  0.60954797580E+02  0.37267183654E+01  0.36568657899E+03  0.37910188764E+03  0.79134009023E+02 0.  0.
          5    1    3    3  501    0  0.16768472032E+02 -0.13640878595E+02 -0.12763149176E+02  0.25539052449E+02  0.47000000000E+01 0. -1.
        -13    1    4    4    0    0 -0.11139297340E+02 -0.46239436270E+02  0.89606916941E+02  0.10144737047E+03  0.00000000000E+00 0.  1.
         14    1    4    4    0    0 -0.23993569432E+01  0.16406150868E+02  0.21010672697E+03  0.21075994737E+03  0.00000000000E+00 0. -1.
         -5    1    5    5    0  502 -0.64184615328E+02  0.39747445631E+02  0.21507591089E+03  0.22798960881E+03  0.47000000000E+01 0.  1.
         13    1    6    6    0    0 -0.12049367874E+00 -0.23090050945E+02  0.36244043569E+02  0.42974360561E+02  0.00000000000E+00 0. -1.
        -14    1    6    6    0    0  0.61075291258E+02  0.26816769310E+02  0.32944253542E+03  0.33612752708E+03  0.00000000000E+00 0.  1.
</event>
<event>
12    1  0.8356052E-002  0.2057377E+03  0.7818608E-02  0.1144992E+00
         21   -1    0    0  501  502  0.00000000000E+00  0.00000000000E+00  0.21785002656E+03  0.21785002656E+03  0.00000000000E+00 0.  1.
         21   -1    0    0  502  503 -0.00000000000E+00 -0.00000000000E+00 -0.26765894718E+03  0.26765894718E+03  0.00000000000E+00 0.  1.
         -6    2    1    2    0  503  0.11387553819E+03 -0.12652954634E+02 -0.15201327540E+03  0.25578359269E+03  0.17084927549E+03 0.  0.
        -24    2    3    3    0    0  0.22717769756E+02 -0.61859876943E+02 -0.82302233332E+02  0.13083248491E+03  0.77464443840E+02 0.  0.
          6    2    1    2  501    0 -0.11387553819E+03  0.12652954634E+02  0.10220435477E+03  0.22972538105E+03  0.17088090914E+03 0.  0.
         24    2    5    5    0    0 -0.49944989377E+01  0.32713291871E+02  0.75540327867E+02  0.11574925123E+03  0.81218492611E+02 0.  0.
          5    1    5    5  501    0 -0.10888103925E+03 -0.20060337237E+02  0.26664026901E+02  0.11397612982E+03  0.47000000000E+01 0. -1.
        -13    1    6    6    0    0 -0.30523754049E+02  0.48415966190E+02  0.55280473314E+02  0.79572206663E+02  0.00000000000E+00 0.  1.
         14    1    6    6    0    0  0.25529255111E+02 -0.15702674319E+02  0.20259854553E+02  0.36177044570E+02  0.00000000000E+00 0. -1.
         -5    1    3    3    0  503  0.91157768431E+02  0.49206922309E+02 -0.69711042064E+02  0.12495110777E+03  0.47000000000E+01 0.  1.
         11    1    4    4    0    0  0.66611003271E+00  0.13387656771E+02  0.42320381860E+01  0.14056429262E+02  0.00000000000E+00 0. -1.
        -12    1    4    4    0    0  0.22051659723E+02 -0.75247533714E+02 -0.86534271518E+02  0.11677605565E+03  0.00000000000E+00 0.  1.
</event>
<event>
12    1  0.8356052E-002  0.1931103E+03  0.7818608E-02  0.1155845E+00
         21   -1    0    0  503  502  0.00000000000E+00  0.00000000000E+00  0.11612120653E+04  0.11612120653E+04  0.00000000000E+00 0. -1.
         21   -1    0    0  501  503 -0.00000000000E+00 -0.00000000000E+00 -0.38604745764E+03  0.38604745764E+03  0.00000000000E+00 0. -1.
          6    2    1    2  501    0  0.14083574456E+02  0.86292147651E+02 -0.35323568867E+03  0.40257552675E+03  0.17218281325E+03 0.  0.
         24    2    3    3    0    0 -0.15293421579E+02 -0.12588764098E+02 -0.21076608874E+03  0.22662064757E+03  0.80883916934E+02 0.  0.
         -6    2    1    2    0  502 -0.14083574456E+02 -0.86292147651E+02  0.11284002963E+04  0.11446839962E+04  0.17137543746E+03 0.  0.
        -24    2    5    5    0    0  0.29429086974E+02 -0.64408277688E+01  0.80735709871E+03  0.81097692445E+03  0.70360015143E+02 0.  0.
          5    1    3    3  501    0  0.29376996035E+02  0.98880911749E+02 -0.14246959993E+03  0.17595487918E+03  0.47000000000E+01 0. -1.
        -11    1    4    4    0    0  0.21653555047E+02  0.14305992430E+02 -0.27789420003E+02  0.38023541782E+02  0.00000000000E+00 0.  1.
         12    1    4    4    0    0 -0.36946976625E+02 -0.26894756528E+02 -0.18297666874E+03  0.18859710579E+03  0.00000000000E+00 0. -1.
         -5    1    5    5    0  502 -0.43512661430E+02 -0.79851319882E+02  0.32104319760E+03  0.33370707172E+03  0.47000000000E+01 0.  1.
         11    1    6    6    0    0  0.47580095269E+02 -0.21654735153E+02  0.50719439248E+03  0.50988130461E+03  0.00000000000E+00 0. -1.
        -12    1    6    6    0    0 -0.18151008295E+02  0.15213907384E+02  0.30016270623E+03  0.30109561984E+03  0.00000000000E+00 0.  1.
</event>
<event>
12    1  0.8356052E-002  0.2141094E+03  0.7818608E-02  0.1138363E+00
         21   -1    0    0  501  502  0.00000000000E+00  0.00000000000E+00  0.12302276995E+03  0.12302276995E+03  0.00000000000E+00 0. -1.
         21   -1    0    0  502  503 -0.00000000000E+00 -0.00000000000E+00 -0.38941945411E+03  0.38941945411E+03  0.00000000000E+00 0.  1.
         -6    2    1    2    0  503  0.49210553067E+02 -0.11423650674E+03 -0.79841576106E+02  0.22846042999E+03  0.17420629377E+03 0.  0.
        -24    2    3    3    0    0  0.53503030995E+02 -0.14633951449E+03 -0.87657988687E+02  0.19481203064E+03  0.77394938291E+02 0.  0.
          6    2    1    2  501    0 -0.49210553067E+02  0.11423650674E+03 -0.18655510806E+03  0.28398179407E+03  0.17427332846E+03 0.  0.
         24    2    5    5    0    0 -0.54467210332E+02  0.98555096781E+01 -0.13647216611E+03  0.16799293224E+03  0.80827996931E+02 0.  0.
          5    1    5    5  501    0  0.52566572652E+01  0.10438099707E+03 -0.50082941955E+02  0.11598886183E+03  0.47000000000E+01 0. -1.
        -13    1    6    6    0    0 -0.58886529785E+02  0.79183054565E+01 -0.40516432034E+02  0.71915952446E+02  0.00000000000E+00 0.  1.
         14    1    6    6    0    0  0.44193194532E+01  0.19372042216E+01 -0.95955734072E+02  0.96076979792E+02  0.00000000000E+00 0. -1.
         -5    1    3    3    0  503 -0.42924779277E+01  0.32103007749E+02  0.78164125808E+01  0.33648399351E+02  0.47000000000E+01 0.  1.
         11    1    4    4    0    0 -0.15589792476E+02 -0.24429785252E+02  0.99159166322E+00  0.28997229022E+02  0.00000000000E+00 0. -1.
        -12    1    4    4    0    0  0.69092823471E+02 -0.12190972924E+03 -0.88649580350E+02  0.16581480162E+03  0.00000000000E+00 0.  1.
</event>
<event>
12    1  0.8356052E-002  0.2967430E+03  0.7818608E-02  0.1087178E+00
         21   -1    0    0  503  502  0.00000000000E+00  0.00000000000E+00  0.30992399286E+03  0.30992399286E+03  0.00000000000E+00 0.  1.
         21   -1    0    0  501  503 -0.00000000000E+00 -0.00000000000E+00 -0.36419532063E+03  0.36419532063E+03  0.00000000000E+00 0.  1.
          6    2    1    2  501    0  0.79746030249E+02 -0.22793104104E+03 -0.18745108313E+03  0.35099046244E+03  0.17246567005E+03 0.  0.
         24    2    3    3    0    0 -0.35555958267E+01 -0.18136888649E+03 -0.10152365434E+03  0.22248829062E+03  0.79288535275E+02 0.  0.
         -6    2    1    2    0  502 -0.79746030249E+02  0.22793104104E+03  0.13317975535E+03  0.32312885105E+03  0.16841442436E+03 0.  0.
        -24    2    5    5    0    0 -0.28894582686E+02  0.19996194214E+03  0.14783917677E+03  0.26308612586E+03  0.80859212310E+02 0.  0.
          5    1    3    3  501    0  0.83301626076E+02 -0.46562154551E+02 -0.85927428784E+02  0.12850217181E+03  0.47000000000E+01 0. -1.
        -13    1    4    4    0    0 -0.29836279069E+02 -0.46863175435E+02 -0.53887070393E+02  0.77396234508E+02  0.00000000000E+00 0.  1.
         14    1    4    4    0    0  0.26280683242E+02 -0.13450571105E+03 -0.47636583952E+02  0.14509205612E+03  0.00000000000E+00 0. -1.
         -5    1    5    5    0  502 -0.50851447564E+02  0.27969098895E+02 -0.14659421416E+02  0.60042725193E+02  0.47000000000E+01 0.  1.
         13    1    6    6    0    0 -0.65352863042E+00  0.88578053573E+02  0.19272837622E+02  0.90652859550E+02  0.00000000000E+00 0. -1.
        -14    1    6    6    0    0 -0.28241054055E+02  0.11138388857E+03  0.12856633915E+03  0.17243326631E+03  0.00000000000E+00 0.  1.
</event>
<event>
12    1  0.8356052E-002  0.1781305E+03  0.7818608E-02  0.1169948E+00
         21   -1    0    0  503  502  0.00000000000E+00  0.00000000000E+00  0.12867880714E+03  0.12867880714E+03  0.00000000000E+00 0. -1.
         21   -1    0    0  501  503 -0.00000000000E+00 -0.00000000000E+00 -0.35543116384E+03  0.35543116384E+03  0.00000000000E+00 0. -1.
          6    2    1    2  501    0 -0.39807726401E+02  0.81645887959E+01 -0.24814636743E+03  0.30469933036E+03  0.17208645112E+03 0.  0.
         24    2    3    3    0    0 -0.26951381348E+02 -0.50575499883E+02 -0.21912041564E+03  0.23776444033E+03  0.72345797316E+02 0.  0.
         -6    2    1    2    0  502  0.39807726401E+02 -0.81645887959E+01  0.21394010731E+02  0.17941064063E+03  0.17343344165E+03 0.  0.
        -24    2    5    5    0    0  0.60509718116E+02 -0.33475973213E+01  0.72741451049E+02  0.12363945187E+03  0.79515803238E+02 0.  0.
          5    1    3    3  501    0 -0.12856345053E+02  0.58740088679E+02 -0.29025951795E+02  0.66934890033E+02  0.47000000000E+01 0. -1.
        -13    1    4    4    0    0  0.11570470395E+02 -0.28017256598E+02 -0.27220491940E+02  0.40740614059E+02  0.00000000000E+00 0.  1.
         14    1    4    4    0    0 -0.38521851743E+02 -0.22558243285E+02 -0.19189992370E+03  0.19702382627E+03  0.00000000000E+00 0. -1.
         -5    1    5    5    0  502 -0.20701991715E+02 -0.48169914746E+01 -0.51347440318E+02  0.55771188754E+02  0.47000000000E+01 0.  1.
         11    1    6    6    0    0  0.22922475676E+00  0.14073108439E+02  0.57322911538E+02  0.59025597094E+02  0.00000000000E+00 0. -1.
        -12    1    6    6    0    0  0.60280493359E+02 -0.17420705760E+02  0.15418539511E+02  0.64613854780E+02  0.00000000000E+00 0.  1.
</event>
<event>
12    1  0.8356052E-002  0.2229898E+03  0.7818608E-02  0.1132552E+00
         21   -1    0    0  501  502  0.00000000000E+00  0.00000000000E+00  0.33358456511E+02  0.33358456511E+02  0.00000000000E+00 0.  1.
         21   -1    0    0  502  503 -0.00000000000E+00 -0.00000000000E+00 -0.16652426332E+04  0.16652426332E+04  0.00000000000E+00 0. -1.
         -6    2    1    2    0  503  0.81853259894E+02 -0.89870499562E+02 -0.11070674539E+04  0.11283756760E+04  0.18126405001E+03 0.  0.
        -24    2    3    3    0    0  0.72551286933E+02 -0.95188796071E+02 -0.11072794240E+04  0.11166732869E+04  0.81036477656E+02 0.  0.
          6    2    1    2  501    0 -0.81853259894E+02  0.89870499562E+02 -0.52481672276E+03  0.57022541370E+03  0.18694321889E+03 0.  0.
         24    2    5    5    0    0 -0.40498850134E+02  0.70334914563E+02 -0.12941209644E+03  0.17215665732E+03  0.79393116113E+02 0.  0.
          5    1    5    5  501    0 -0.41354409760E+02  0.19535584999E+02 -0.39540462632E+03  0.39806875637E+03  0.47000000000E+01 0. -1.
        -13    1    6    6    0    0  0.18793711244E+02 -0.31911120414E+01 -0.20580146250E+02  0.28052258342E+02  0.00000000000E+00 0.  1.
         14    1    6    6    0    0 -0.59292561378E+02  0.73526026604E+02 -0.10883195019E+03  0.14410439898E+03  0.00000000000E+00 0. -1.
         -5    1    3    3    0  503  0.93019729611E+01  0.53182965092E+01  0.21197011911E+00  0.11702389075E+02  0.47000000000E+01 0.  1.
         11    1    4    4    0    0  0.54992313191E+02 -0.18250343144E+02 -0.65525053541E+03  0.65780733782E+03  0.00000000000E+00 0. -1.
        -12    1    4    4    0    0  0.17558973742E+02 -0.76938452927E+02 -0.45202888862E+03  0.45886594910E+03  0.00000000000E+00 0.  1.
</event>
<event>
12    1  0.8356052E-002  0.2042693E+03  0.7818608E-02  0.1146651E+00
         21   -1    0    0  503  502  0.00000000000E+00  0.00000000000E+00  0.14543924507E+04  0.14543924507E+04  0.00000000000E+00 0.  1.
         21   -1    0    0  501  503 -0.00000000000E+00 -0.00000000000E+00 -0.30825927099E+02  0.30825927099E+02  0.00000000000E+00 0. -1.
          6    2    1    2  501    0  0.34336135719E+02  0.10411377665E+03  0.49872899517E+03  0.53809093666E+03  0.16968381416E+03 0.  0.
         24    2    3    3    0    0  0.54239253589E+02  0.13394454163E+03  0.39457716641E+03  0.42783803614E+03  0.80443819199E+02 0.  0.
         -6    2    1    2    0  502 -0.34336135719E+02 -0.10411377665E+03  0.92483752840E+03  0.94712744110E+03  0.17235802000E+03 0.  0.
        -24    2    5    5    0    0 -0.46802631133E+02 -0.34658673886E+02  0.25933769276E+03  0.27788044183E+03  0.81054247934E+02 0.  0.
          5    1    3    3  501    0 -0.19903117870E+02 -0.29830764983E+02  0.10415182875E+03  0.11025290052E+03  0.47000000000E+01 0. -1.
        -13    1    4    4    0    0  0.32092512714E+02  0.40340261780E+02  0.24231977359E+03  0.24774208114E+03  0.00000000000E+00 0.  1.
         14    1    4    4    0    0  0.22146740876E+02  0.93604279852E+02  0.15225739282E+03  0.18009595500E+03  0.00000000000E+00 0. -1.
         -5    1    5    5    0  502  0.12466495414E+02 -0.69455102763E+02  0.66549983563E+03  0.66924699927E+03  0.47000000000E+01 0.  1.
         11    1    6    6    0    0 -0.61621912583E+02  0.49553711949E+00  0.15666643257E+03  0.16835045816E+03  0.00000000000E+00 0. -1.
        -12    1    6    6    0    0  0.14819281450E+02 -0.35154211005E+02  0.10267126019E+03  0.10952998367E+03  0.00000000000E+00 0.  1.
</event>
<event>
12    1  0.8356052E-002  0.1990698E+03  0.7818608E-02  0.1151300E+00
         21   -1    0    0  501  502  0.00000000000E+00  0.00000000000E+00  0.81133883725E+03  0.81133883725E+03  0.00000000000E+00 0.  1.
         21   -1    0    0  502  503 -0.00000000000E+00 -0.00000000000E+00 -0.75607990817E+02  0.75607990817E+02  0.00000000000E+00 0.  1.
         -6    2    1    2    0  503  0.53116710126E+02 -0.83832344623E+02  0.97572736920E+02  0.21846004720E+03  0.16838974533E+03 0.  0.
        -24    2    3    3    0    0  0.82276079071E+02 -0.91094606090E+02  0.24127680555E+02  0.13896617609E+03  0.60513409120E+02 0.  0.
          6    2    1    2  501    0 -0.53116710126E+02  0.83832344623E+02  0.63815810952E+03  0.66848678087E+03  0.17256754202E+03 0.  0.
         24    2    5    5    0    0  0.21967327767E+02  0.90321871599E+02  0.41635745029E+03  0.43418494746E+03  0.80761613473E+02 0.  0.
          5    1    5    5  501    0 -0.75084037893E+02 -0.64895269754E+01  0.22180065923E+03  0.23430183341E+03  0.47000000000E+01 0. -1.
        -11    1    6    6    0    0  0.24224613943E+02  0.60029019107E+02  0.12062693332E+03  0.13689840064E+03  0.00000000000E+00 0.  1.
         12    1    6    6    0    0 -0.22572861760E+01  0.30292852492E+02  0.29573051697E+03  0.29728654682E+03  0.00000000000E+00 0. -1.
         -5    1    3    3    0  503 -0.29159368945E+02  0.72622614665E+01  0.73445056365E+02  0.79493871105E+02  0.47000000000E+01 0.  1.
         13    1    4    4    0    0  0.42705843064E+02 -0.61850606578E+01  0.63307034794E+01  0.43613321516E+02  0.00000000000E+00 0. -1.
        -14    1    4    4    0    0  0.39570236007E+02 -0.84909545432E+02  0.17796977076E+02  0.95352854578E+02  0.00000000000E+00 0.  1.
</event>
<event>
12    1  0.8356052E-002  0.2074897E+03  0.7818608E-02  0.1143761E+00
         21   -1    0    0  503  502  0.00000000000E+00  0.00000000000E+00  0.61977654565E+02  0.61977654565E+02  0.00000000000E+00 0. -1.
         21   -1    0    0  501  503 -0.00000000000E+00 -0.00000000000E+00 -0.14981240177E+04  0.14981240177E+04  0.00000000000E+00 0.  1.
          6    2    1    2  501    0  0.11326426044E+03  0.22362907961E+02 -0.12897056842E+04  0.13061393514E+04  0.17126108986E+03 0.  0.
         24    2    3    3    0    0  0.82560591633E+02  0.29950730056E+02 -0.12476917336E+04  0.12533420752E+04  0.80114904114E+02 0.  0.
         -6    2    1    2    0  502 -0.11326426044E+03 -0.22362907961E+02 -0.14644067887E+03  0.25396232087E+03  0.17240387364E+03 0.  0.
        -24    2    5    5    0    0 -0.10412536250E+03 -0.41614636235E+02 -0.38684608277E+02  0.14401865690E+03  0.81676223907E+02 0.  0.
          5    1    3    3  501    0  0.30703668809E+02 -0.75878220951E+01 -0.42013950639E+02  0.52797276168E+02  0.47000000000E+01 0. -1.
        -11    1    4    4    0    0  0.11766064546E+02  0.24647790884E+02 -0.76199865096E+03  0.76248796577E+03  0.00000000000E+00 0.  1.
         12    1    4    4    0    0  0.70794527088E+02  0.53029391724E+01 -0.48569308262E+03  0.49085410942E+03  0.00000000000E+00 0. -1.
         -5    1    5    5    0  502 -0.91388979392E+01  0.19251728274E+02 -0.10775607059E+03  0.10994366397E+03  0.47000000000E+01 0.  1.
         11    1    6    6    0    0 -0.16715487362E+02 -0.34527035221E+02  0.15006615345E+02  0.41191287708E+02  0.00000000000E+00 0. -1.
        -12    1    6    6    0    0 -0.87409875142E+02 -0.70876010137E+01 -0.53691223623E+02  0.10282736919E+03  0.00000000000E+00 0.  1.
</event>
<event>
12    1  0.8356052E-002  0.2874121E+03  0.7818608E-02  0.1091836E+00
         21   -1    0    0  503  502  0.00000000000E+00  0.00000000000E+00  0.26487145363E+03  0.26487145363E+03  0.00000000000E+00 0.  1.
         21   -1    0    0  501  503 -0.00000000000E+00 -0.00000000000E+00 -0.31468248269E+03  0.31468248269E+03  0.00000000000E+00 0.  1.
          6    2    1    2  501    0  0.20682568473E+03  0.99111378628E+02 -0.56967016286E+02  0.29205277802E+03  0.17160901773E+03 0.  0.
         24    2    3    3    0    0  0.19610236816E+03  0.73649149900E+02  0.49938578198E+01  0.22404870072E+03  0.79325567117E+02 0.  0.
         -6    2    1    2    0  502 -0.20682568473E+03 -0.99111378628E+02  0.71559872228E+01  0.28750115830E+03  0.17322176142E+03 0.  0.
        -24    2    5    5    0    0 -0.13096804599E+03 -0.11969029806E+03  0.45781158478E+02  0.19979786797E+03  0.79654736536E+02 0.  0.
          5    1    3    3  501    0  0.10723316573E+02  0.25462228728E+02 -0.61960874106E+02  0.68004077305E+02  0.47000000000E+01 0. -1.
        -11    1    4    4    0    0  0.17119049096E+03  0.87907375062E+02 -0.78512206686E+01  0.19260200531E+03  0.00000000000E+00 0.  1.
         12    1    4    4    0    0  0.24911877203E+02 -0.14258225162E+02  0.12845078488E+02  0.31446695406E+02  0.00000000000E+00 0. -1.
         -5    1    5    5    0  502 -0.75857638739E+02  0.20578919430E+02 -0.38625171255E+02  0.87703290329E+02  0.47000000000E+01 0.  1.
         11    1    6    6    0    0 -0.22196615082E+02 -0.64451813624E+02 -0.34278807758E+01  0.68253031926E+02  0.00000000000E+00 0. -1.
        -12    1    6    6    0    0 -0.10877143091E+03 -0.55238484434E+02  0.49209039254E+02  0.13154483604E+03  0.00000000000E+00 0.  1.
</event>
<event>
12    1  0.8356052E-002  0.2446688E+03  0.7818608E-02  0.1117145E+00
         21   -1    0    0  501  502  0.00000000000E+00  0.00000000000E+00  0.16344158437E+03  0.16344158437E+03  0.00000000000E+00 0.  1.
         21   -1    0    0  502  503 -0.00000000000E+00 -0.00000000000E+00 -0.90150415649E+03  0.90150415649E+03  0.00000000000E+00 0.  1.
         -6    2    1    2    0  503 -0.17050456680E+03  0.38455153169E+02 -0.78000655728E+03  0.81670775450E+03  0.16748349394E+03 0.  0.
        -24    2    3    3    0    0 -0.12236794135E+03  0.86735450324E+02 -0.48690672565E+03  0.51574642291E+03  0.80120296140E+02 0.  0.
          6    2    1    2  501    0  0.17050456680E+03 -0.38455153169E+02  0.41943985162E+02  0.24823798636E+03  0.17120804268E+03 0.  0.
         24    2    5    5    0    0  0.27977662716E+02 -0.47831424320E+02 -0.53132367876E+01  0.97715005144E+02  0.80308137705E+02 0.  0.
          5    1    5    5  501    0  0.14252690408E+03  0.93762711509E+01  0.47257221950E+02  0.15052298122E+03  0.47000000000E+01 0. -1.
        -13    1    6    6    0    0  0.35118014983E+01 -0.17334941027E+02  0.36445177461E+02  0.40510293634E+02  0.00000000000E+00 0.  1.
         14    1    6    6    0    0  0.24465861218E+02 -0.30496483293E+02 -0.41758414249E+02  0.57204711510E+02  0.00000000000E+00 0. -1.
         -5    1    3    3    0  503 -0.48136625448E+02 -0.48280297155E+02 -0.29309983164E+03  0.30096133158E+03  0.47000000000E+01 0.  1.
         11    1    4    4    0    0 -0.14551460847E+02  0.23782386378E+02 -0.25627000601E+02  0.37869381753E+02  0.00000000000E+00 0. -1.
        -12    1    4    4    0    0 -0.10781648051E+03  0.62953063946E+02 -0.46127972504E+03  0.47787704116E+03  0.00000000000E+00 0.  1.
</event>
<event>
12    1  0.8356052E-002  0.2244163E+03  0.7818608E-02  0.1131218E+00
         21   -1    0    0  503  502  0.00000000000E+00  0.00000000000E+00  0.11612338446E+03  0.11612338446E+03  0.00000000000E+00 0. -1.
         21   -1    0    0  501  503 -0.00000000000E+00 -0.00000000000E+00 -0.45040304555E+03  0.45040304555E+03  0.00000000000E+00 0. -1.
          6    2    1    2  501    0 -0.80560459663E+02  0.12125839813E+03 -0.23209305531E+03  0.32284648642E+03  0.17078958016E+03 0.  0.
         24    2    3    3    0    0 -0.10281227507E+03  0.10536103443E+03 -0.24138217955E+03  0.29358478294E+03  0.79090812912E+02 0.  0.
         -6    2    1    2    0  502  0.80560459663E+02 -0.12125839813E+03 -0.10218660577E+03  0.24367994358E+03  0.16656598011E+03 0.  0.
        -24    2    5    5    0    0  0.59867849729E+02 -0.66812677808E+01 -0.22520624458E+02  0.10252449210E+03  0.79845439347E+02 0.  0.
          5    1    3    3  501    0  0.22251815412E+02  0.15897363694E+02  0.92891242354E+01  0.29261703481E+02  0.47000000000E+01 0. -1.
        -13    1    4    4    0    0 -0.32283274001E+02  0.21575469752E+02 -0.13660962138E+03  0.14202077076E+03  0.00000000000E+00 0.  1.
         14    1    4    4    0    0 -0.70529001074E+02  0.83785564679E+02 -0.10477255817E+03  0.15156401218E+03  0.00000000000E+00 0. -1.
         -5    1    5    5    0  502  0.20692609934E+02 -0.11457713035E+03 -0.79665981316E+02  0.14115545148E+03  0.47000000000E+01 0.  1.
         13    1    6    6    0    0  0.60760428433E+02 -0.35894473700E+02 -0.12790694144E+02  0.71720602077E+02  0.00000000000E+00 0. -1.
        -14    1    6    6    0    0 -0.89257870377E+00  0.29213205919E+02 -0.97299303138E+01  0.30803890026E+02  0.00000000000E+00 0.  1.
</event>
<event>
12    1  0.8356052E-002  0.1983181E+03  0.7818608E-02  0.1152720E+00
         21   -1    0    0  503  502  0.00000000000E+00  0.00000000000E+00  0.39111659175E+03  0.39111659175E+03  0.00000000000E+00 0.  1.
         21   -1    0    0  501  503 -0.00000000000E+00 -0.00000000000E+00 -0.10111466097E+03  0.10111466097E+03  0.00000000000E+00 0. -1.
          6    2    1    2  501    0  0.20683585740E+02 -0.82527138880E+02  0.97712018104E+02  0.22108304993E+03  0.17914110951E+03 0.  0.
         24    2    3    3    0    0  0.34416441810E+02 -0.28437731416E+02  0.12762927397E+03  0.15758984137E+03  0.80945231449E+02 0.  0.
         -6    2    1    2    0  502 -0.20683585740E+02  0.82527138880E+02  0.19228991267E+03  0.27114820279E+03  0.17119403608E+03 0.  0.
        -24    2    5    5    0    0 -0.35881526181E+02  0.12113330937E+03  0.14325698283E+03  0.20674531463E+03  0.79122054026E+02 0.  0.
          5    1    3    3  501    0 -0.13732856070E+02 -0.54089407463E+02 -0.29917255863E+02  0.63493208565E+02  0.47000000000E+01 0. -1.
        -13    1    4    4    0    0  0.57215261948E+02 -0.17482459504E+01  0.82595006650E+02  0.10049167969E+03  0.00000000000E+00 0.  1.
         14    1    4    4    0    0 -0.22798820138E+02 -0.26689485466E+02  0.45034267317E+02  0.57098161677E+02  0.00000000000E+00 0. -1.
         -5    1    5    5    0  502  0.15197940441E+02 -0.38606170491E+02  0.49032929843E+02  0.64402888155E+02  0.47000000000E+01 0.  1.
         11    1    6    6    0    0 -0.67385044366E+01 -0.10156992449E+02  0.24353322395E+02  0.27233366471E+02  0.00000000000E+00 0. -1.
        -12    1    6    6    0    0 -0.29143021744E+02  0.13129030182E+03  0.11890366043E+03  0.17951194816E+03  0.00000000000E+00 0.  1.
</event>
<event>
12    1  0.8356052E-002  0.2342849E+03  0.7818608E-02  0.1123898E+00
         21   -1    0    0  501  502  0.00000000000E+00  0.00000000000E+00  0.10987082440E+04  0.10987082440E+04  0.00000000000E+00 0.  1.
         21   -1    0    0  502  503 -0.00000000000E+00 -0.00000000000E+00 -0.56722504816E+02  0.56722504816E+02  0.00000000000E+00 0.  1.
         -6    2    1    2    0  503 -0.17962636326E+02  0.15705957071E+03  0.31854842695E+03  0.39542698785E+03  0.17291338107E+03 0.  0.
        -24    2    3    3    0    0 -0.76526373842E+02  0.86313640324E+02  0.22736759539E+03  0.26592512662E+03  0.75589808409E+02 0.  0.
          6    2    1    2  501    0  0.17962636326E+02 -0.15705957071E+03  0.72343731221E+03  0.76000376094E+03  0.17103744296E+03 0.  0.
         24    2    5    5    0    0  0.49750906242E+02 -0.13723859761E+03  0.38146569520E+03  0.41595428497E+03  0.78691201689E+02 0.  0.
          5    1    5    5  501    0 -0.31788269916E+02 -0.19820973099E+02  0.34197161700E+03  0.34404947597E+03  0.47000000000E+01 0. -1.
        -11    1    6    6    0    0 -0.55649665322E+01 -0.65453136198E+02  0.95030241221E+02  0.11552414742E+03  0.00000000000E+00 0.  1.
         12    1    6    6    0    0  0.55315872774E+02 -0.71785461411E+02  0.28643545398E+03  0.30043013755E+03  0.00000000000E+00 0. -1.
         -5    1    3    3    0  503  0.58563737516E+02  0.70745930384E+02  0.91180831566E+02  0.12950186123E+03  0.47000000000E+01 0.  1.
         13    1    4    4    0    0 -0.32714513217E+02  0.60894872343E+02  0.19222417294E+03  0.20427568997E+03  0.00000000000E+00 0. -1.
        -14    1    4    4    0    0 -0.43811860626E+02  0.25418767981E+02  0.35143422450E+02  0.61649436645E+02  0.00000000000E+00 0.  1.
</event>
<event>
12    1  0.8356052E-002  0.2283204E+03  0.7818608E-02  0.1127917E+00
         21   -1    0    0  501  502  0.00000000000E+00  0.00000000000E+00  0.45149044259E+03  0.45149044259E+03  0.00000000000E+00 0. -1.
         21   -1    0    0  502  503 -0.00000000000E+00 -0.00000000000E+00 -0.11899748784E+03  0.11899748784E+03  0.00000000000E+00 0. -1.
         -6    2    1    2    0  503 -0.13027282908E+03  0.74009634570E+02  0.11516301688E+03  0.25526976606E+03  0.17161496729E+03 0.  0.
        -24    2    3    3    0    0 -0.91806677741E+02  0.11055363921E+03  0.11809900831E+03  0.20192354670E+03  0.78582248182E+02 0.  0.
          6    2    1    2  501    0  0.13027282908E+03 -0.74009634570E+02  0.21732993786E+03  0.31521816437E+03  0.17228393207E+03 0.  0.
         24    2    5    5    0    0  0.12558108846E+03 -0.52925443822E+02  0.23703287559E+03  0.28560648956E+03  0.82551622568E+02 0.  0.
          5    1    5    5  501    0  0.46917406227E+01 -0.21084190748E+02 -0.19702937728E+02  0.29611674803E+02  0.47000000000E+01 0. -1.
        -11    1    6    6    0    0  0.99167639153E+01  0.20181148765E+02  0.32150258735E+02  0.39233405521E+02  0.00000000000E+00 0.  1.
         12    1    6    6    0    0  0.11566432454E+03 -0.73106592587E+02  0.20488261686E+03  0.24637308404E+03  0.00000000000E+00 0. -1.
         -5    1    3    3    0  503 -0.38466151338E+02 -0.36544004639E+02 -0.29359914227E+01  0.53346219355E+02  0.47000000000E+01 0.  1.
         13    1    4    4    0    0 -0.30387709563E+02  0.85430394748E+02  0.95828556155E+02  0.13192754608E+03  0.00000000000E+00 0. -1.
        -14    1    4    4    0    0 -0.61418968178E+02  0.25123244460E+02  0.22270452152E+02  0.69996000624E+02  0.00000000000E+00 0.  1.
</event>
<event>
12    1  0.8356052E-002  0.1728698E+03  0.7818608E-02  0.1175173E+00
         21   -1    0    0  501  502  0.00000000000E+00  0.00000000000E+00  0.27686800068E+03  0.27686800068E+03  0.00000000000E+00 0. -1.
         21   -1    0    0  502  503 -0.00000000000E+00 -0.00000000000E+00 -0.14547025138E+03  0.14547025138E+03  0.00000000000E+00 0. -1.
         -6    2    1    2    0  503  0.15783139442E+01  0.82191240622E+01 -0.42709911051E+02  0.17698657878E+03  0.17155193817E+03 0.  0.
        -24    2    3    3    0    0  0.61976244603E+02 -0.97724382503E+01 -0.49604821895E+01  0.10337465229E+03  0.82007054015E+02 0.  0.
          6    2    1    2  501    0 -0.15783139442E+01 -0.82191240622E+01  0.17410766035E+03  0.24535167329E+03  0.17266708174E+03 0.  0.
         24    2    5    5    0    0 -0.70606546948E+01 -0.31074115582E+02  0.19140650995E+03  0.21579246330E+03  0.94416532792E+02 0.  0.
          5    1    5    5  501    0  0.54823407506E+01  0.22854991520E+02 -0.17298849596E+02  0.29559209983E+02  0.47000000000E+01 0. -1.
        -13    1    6    6    0    0  0.21428371493E+02 -0.52782784669E+01  0.15919596325E+01  0.22126221184E+02  0.00000000000E+00 0.  1.
         14    1    6    6    0    0 -0.28489026187E+02 -0.25795837115E+02  0.18981455031E+03  0.19366624212E+03  0.00000000000E+00 0. -1.
         -5    1    3    3    0  503 -0.60397930659E+02  0.17991562312E+02 -0.37749428862E+02  0.73611926491E+02  0.47000000000E+01 0.  1.
         13    1    4    4    0    0  0.21319465647E+01 -0.10284216347E+02 -0.34907713574E+02  0.36453515180E+02  0.00000000000E+00 0. -1.
        -14    1    4    4    0    0  0.59844298039E+02  0.51177809689E+00  0.29947231384E+02  0.66921137110E+02  0.00000000000E+00 0.  1.
</event>
<event>
12    1  0.8356052E-002  0.3045212E+03  0.7818608E-02  0.1083043E+00
         21   -1    0    0  501  502  0.00000000000E+00  0.00000000000E+00  0.69643140490E+02  0.69643140490E+02  0.00000000000E+00 0. -1.
         21   -1    0    0  502  503 -0.00000000000E+00 -0.00000000000E+00 -0.13323193650E+04  0.13323193650E+04  0.00000000000E+00 0.  1.
         -6    2    1    2    0  503 -0.81461400137E+02  0.23686937103E+03 -0.66032336553E+03  0.72715893476E+03  0.17317653042E+03 0.  0.
        -24    2    3    3    0    0 -0.44030037104E+02  0.24737667090E+03 -0.55127122910E+03  0.61128845211E+03  0.81484613141E+02 0.  0.
          6    2    1    2  501    0  0.81461400137E+02 -0.23686937103E+03 -0.60235285897E+03  0.67480357072E+03  0.17259152269E+03 0.  0.
         24    2    5    5    0    0  0.78911491531E+02 -0.11339799918E+03 -0.21064208498E+03  0.26405900027E+03  0.79189253957E+02 0.  0.
          5    1    5    5  501    0  0.25499086068E+01 -0.12347137185E+03 -0.39171077399E+03  0.41074457045E+03  0.47000000000E+01 0. -1.
        -13    1    6    6    0    0  0.72001714065E+02 -0.53178333827E+02 -0.16663307285E+03  0.18915275040E+03  0.00000000000E+00 0.  1.
         14    1    6    6    0    0  0.69097774653E+01 -0.60219665354E+02 -0.44009012132E+02  0.74906249865E+02  0.00000000000E+00 0. -1.
         -5    1    3    3    0  503 -0.37431363034E+02 -0.10507299864E+02 -0.10905213643E+03  0.11587048265E+03  0.47000000000E+01 0.  1.
         13    1    4    4    0    0 -0.38478282030E+02  0.74329008225E+02 -0.11769181915E+03  0.14441864127E+03  0.00000000000E+00 0. -1.
        -14    1    4    4    0    0 -0.55517550735E+01  0.17304766267E+03 -0.43357940995E+03  0.46686981084E+03  0.00000000000E+00 0.  1.
</event>
<event>
12    1  0.8356052E-002  0.1751493E+03  0.7818608E-02  0.1172973E+00
         21   -1    0    0  503  502  0.00000000000E+00  0.00000000000E+00  0.29249550391E+04  0.29249550391E+04  0.00000000000E+00 0.  1.
         21   -1    0    0  501  503 -0.00000000000E+00 -0.00000000000E+00 -0.12243997944E+02  0.12243997944E+02  0.00000000000E+00 0.  1.
          6    2    1    2  501    0  0.10997091410E+02 -0.35475457974E+02  0.89121548472E+03  0.90826335568E+03  0.17116611501E+03 0.  0.
         24    2    3    3    0    0 -0.21338652918E+01 -0.68375210317E+02  0.83947030849E+03  0.84537878690E+03  0.72630377438E+02 0.  0.
         -6    2    1    2    0  502 -0.10997091410E+02  0.35475457974E+02  0.20214955565E+04  0.20289356814E+04  0.16957673864E+03 0.  0.
        -24    2    5    5    0    0 -0.13198007581E+02 -0.11217970268E+02  0.18286242998E+04  0.18304248960E+04  0.79299683406E+02 0.  0.
          5    1    3    3  501    0  0.13130956702E+02  0.32899752343E+02  0.51745176226E+02  0.62884568781E+02  0.47000000000E+01 0. -1.
        -11    1    4    4    0    0 -0.33020332956E+02 -0.19274502768E+02  0.23022689328E+03  0.23338010034E+03  0.00000000000E+00 0.  1.
         12    1    4    4    0    0  0.30886467664E+02 -0.49100707548E+02  0.60924341521E+03  0.61199868656E+03  0.00000000000E+00 0. -1.
         -5    1    5    5    0  502  0.22009161709E+01  0.46693428243E+02  0.19287125664E+03  0.19851078538E+03  0.47000000000E+01 0.  1.
         11    1    6    6    0    0 -0.18586854253E+02  0.31328792460E+02  0.10371545022E+04  0.10377940190E+04  0.00000000000E+00 0. -1.
        -12    1    6    6    0    0  0.53888466722E+01 -0.42546762729E+02  0.79146979765E+03  0.79263087707E+03  0.00000000000E+00 0.  1.
</event>
<event>
12    1  0.8356052E-002  0.1870613E+03  0.7818608E-02  0.1161300E+00
         21   -1    0    0  503  502  0.00000000000E+00  0.00000000000E+00  0.50277180212E+03  0.50277180212E+03  0.00000000000E+00 0. -1.
         21   -1    0    0  501  503 -0.00000000000E+00 -0.00000000000E+00 -0.87184430463E+02  0.87184430463E+02  0.00000000000E+00 0. -1.
          6    2    1    2  501    0  0.67375180927E+02 -0.29878242412E+02  0.74646603340E+02  0.20140514715E+03  0.17192961797E+03 0.  0.
         24    2    3    3    0    0 -0.18746168059E+02 -0.33334190493E+02  0.56884171041E+02  0.11327782829E+03  0.90185754942E+02 0.  0.
         -6    2    1    2    0  502 -0.67375180927E+02  0.29878242412E+02  0.34094076832E+03  0.38855108544E+03  0.17117013208E+03 0.  0.
        -24    2    5    5    0    0 -0.20288356185E+02  0.43039747941E+02  0.31749646965E+03  0.33412572892E+03  0.92584864761E+02 0.  0.
          5    1    3    3  501    0  0.86121348987E+02  0.34559480810E+01  0.17762432299E+02  0.88127318861E+02  0.47000000000E+01 0. -1.
        -11    1    4    4    0    0  0.67383692749E+01 -0.56444356366E+02  0.54567783295E+02  0.78797296653E+02  0.00000000000E+00 0.  1.
         12    1    4    4    0    0 -0.25484537334E+02  0.23110165873E+02  0.23163877459E+01  0.34480531638E+02  0.00000000000E+00 0. -1.
         -5    1    5    5    0  502 -0.47086824743E+02 -0.13161505530E+02  0.23444298671E+02  0.54425356520E+02  0.47000000000E+01 0.  1.
         11    1    6    6    0    0 -0.39386400333E+02 -0.11219677697E+00  0.56353009762E+02  0.68752911418E+02  0.00000000000E+00 0. -1.
        -12    1    6    6    0    0  0.19098044149E+02  0.43151944718E+02  0.26114345989E+03  0.26537281750E+03  0.00000000000E+00 0.  1.
</event>
<event>
12    1  0.8356052E-002  0.1745987E+03  0.7818608E-02  0.1173494E+00
         21   -1    0    0  501  502  0.00000000000E+00  0.00000000000E+00  0.31433207272E+04  0.31433207272E+04  0.00000000000E+00 0. -1.
         21   -1    0    0  502  503 -0.00000000000E+00 -0.00000000000E+00 -0.96711104320E+01  0.96711104320E+01  0.00000000000E+00 0. -1.
         -6    2    1    2    0  503 -0.17647238671E+02 -0.10522156668E+02  0.16754721084E+04  0.16843985095E+04  0.17195758791E+03 0.  0.
        -24    2    3    3    0    0  0.17343640513E+02 -0.18588274793E+02  0.43792455960E+03  0.44632118988E+03  0.82330788916E+02 0.  0.
          6    2    1    2  501    0  0.17647238671E+02  0.10522156668E+02  0.14581775084E+04  0.14685933282E+04  0.17338562987E+03 0.  0.
         24    2    5    5    0    0  0.15907291609E+02  0.46246143160E+02  0.47164817051E+03  0.48140466576E+03  0.83106604923E+02 0.  0.
          5    1    5    5  501    0  0.17399470617E+01 -0.35723986491E+02  0.98652933791E+03  0.98718866241E+03  0.47000000000E+01 0. -1.
        -13    1    6    6    0    0  0.11040376446E+02 -0.15819446387E+02  0.26197100327E+03  0.26268032159E+03  0.00000000000E+00 0.  1.
         14    1    6    6    0    0  0.48669151630E+01  0.62065589546E+02  0.20967716724E+03  0.21872434417E+03  0.00000000000E+00 0. -1.
         -5    1    3    3    0  503 -0.34990879184E+02  0.80661181244E+01  0.12375475488E+04  0.12380773196E+04  0.47000000000E+01 0.  1.
         11    1    4    4    0    0  0.20401017427E+02 -0.44244083794E+02  0.37712936557E+03  0.38026345977E+03  0.00000000000E+00 0. -1.
        -12    1    4    4    0    0 -0.30573769138E+01  0.25655809001E+02  0.60795194037E+02  0.66057730109E+02  0.00000000000E+00 0.  1.
</event>
<event>
12    1  0.8356052E-002  0.1938029E+03  0.7818608E-02  0.1155094E+00
         21   -1    0    0  501  502  0.00000000000E+00  0.00000000000E+00  0.15470290255E+04  0.15470290255E+04  0.00000000000E+00 0. -1.
         21   -1    0    0  502  503 -0.00000000000E+00 -0.00000000000E+00 -0.27705805732E+02  0.27705805732E+02  0.00000000000E+00 0. -1.
         -6    2    1    2    0  503  0.81613934615E+02 -0.33648022149E+02  0.48245513943E+03  0.51992550840E+03  0.17252984960E+03 0.  0.
        -24    2    3    3    0    0  0.89037276925E+02  0.34644455275E+02  0.26349579189E+03  0.29039499984E+03  0.75969392681E+02 0.  0.
          6    2    1    2  501    0 -0.81613934615E+02  0.33648022149E+02  0.10368680803E+04  0.10548093228E+04  0.17243627169E+03 0.  0.
         24    2    5    5    0    0 -0.88875938239E+02  0.10363331033E+01  0.39660231937E+03  0.41365521217E+03  0.76923523310E+02 0.  0.
          5    1    5    5  501    0  0.72620036232E+01  0.32611689046E+02  0.64026576096E+03  0.64115411066E+03  0.47000000000E+01 0. -1.
        -13    1    6    6    0    0 -0.96645110254E+02  0.97464300607E+01  0.38549004196E+03  0.39753973724E+03  0.00000000000E+00 0.  1.
         14    1    6    6    0    0  0.77691720159E+01 -0.87100969573E+01  0.11112277408E+02  0.16115474924E+02  0.00000000000E+00 0. -1.
         -5    1    3    3    0  503 -0.74233423096E+01 -0.68292477424E+02  0.21895934754E+03  0.22953050856E+03  0.47000000000E+01 0.  1.
         13    1    4    4    0    0  0.94278739853E+02  0.40328330118E+02  0.18498864966E+03  0.21150805068E+03  0.00000000000E+00 0. -1.
        -14    1    4    4    0    0 -0.52414629283E+01 -0.56838748426E+01  0.78507142232E+02  0.78886949163E+02  0.00000000000E+00 0.  1.
</event>
<event>
12    1  0.8356052E-002  0.2180913E+03  0.7818608E-02  0.1135443E+00
         21   -1    0    0  503  502  0.00000000000E+00  0.00000000000E+00  0.35638584984E+03  0.35638584984E+03  0.00000000000E+00 0. -1.
         21   -1    0    0  501  503 -0.00000000000E+00 -0.00000000000E+00 -0.49890117787E+03  0.49890117787E+03  0.00000000000E+00 0.  1.
          6    2    1    2  501    0  0.13210628200E+03 -0.23686824761E+02 -0.43749659978E+03  0.48884258037E+03  0.17190304869E+03 0.  0.
         24    2    3    3    0    0  0.15592673653E+03 -0.13449120697E+02 -0.42979168722E+03  0.46138934165E+03  0.60540929768E+02 0.  0.
         -6    2    1    2    0  502 -0.13210628200E+03  0.23686824761E+02  0.29498127176E+03  0.36644444733E+03  0.17103931385E+03 0.  0.
        -24    2    5    5    0    0 -0.38954206234E+02  0.44848502078E+02  0.22954510753E+03  0.25056042171E+03  0.80998458095E+02 0.  0.
          5    1    3    3  501    0 -0.23820454530E+02 -0.10237704064E+02 -0.77049125682E+01  0.27453238720E+02  0.47000000000E+01 0. -1.
        -11    1    4    4    0    0  0.12742114070E+03 -0.27491150551E+02 -0.38501519358E+03  0.40648322197E+03  0.00000000000E+00 0.  1.
         12    1    4    4    0    0  0.28505595833E+02  0.14042029854E+02 -0.44776493636E+02  0.54906119682E+02  0.00000000000E+00 0. -1.
         -5    1    5    5    0  502 -0.93152075767E+02 -0.21161677317E+02  0.65436164231E+02  0.11588402563E+03  0.47000000000E+01 0.  1.
         13    1    6    6    0    0 -0.15483516127E+02  0.10056614001E+02  0.19590682973E+03  0.19677489853E+03  0.00000000000E+00 0. -1.
        -14    1    6    6    0    0 -0.23470690106E+02  0.34791888077E+02  0.33638277797E+02  0.53785523175E+02  0.00000000000E+00 0.  1.
</event>
<event>
12    1  0.8356052E-002  0.1925264E+03  0.7818608E-02  0.1156253E+00
         21   -1    0    0  501  502  0.00000000000E+00  0.00000000000E+00  0.13779663335E+04  0.13779663335E+04  0.00000000000E+00 0.  1.
         21   -1    0    0  502  503 -0.00000000000E+00 -0.00000000000E+00 -0.28266629798E+02  0.28266629798E+02  0.00000000000E+00 0.  1.
         -6    2    1    2    0  503 -0.35082389005E+02  0.81317030418E+02  0.83167671452E+03  0.85367006578E+03  0.17094791686E+03 0.  0.
        -24    2    3    3    0    0  0.33762886964E+02  0.77592043959E+02  0.42675577003E+03  0.44289444719E+03  0.82912883617E+02 0.  0.
          6    2    1    2  501    0  0.35082389005E+02 -0.81317030418E+02  0.51802298914E+03  0.55256289748E+03  0.17068891275E+03 0.  0.
         24    2    5    5    0    0  0.30190378098E+00 -0.52074719328E+02  0.48962083673E+03  0.49877100987E+03  0.79574424226E+02 0.  0.
          5    1    5    5  501    0  0.34780485224E+02 -0.29242311090E+02  0.28402152411E+02  0.53791887603E+02  0.47000000000E+01 0. -1.
        -13    1    6    6    0    0 -0.12436415167E+02  0.17945221956E+02  0.76081335229E+02  0.79152163480E+02  0.00000000000E+00 0.  1.
         14    1    6    6    0    0  0.12738318948E+02 -0.70019941284E+02  0.41353950150E+03  0.41961884639E+03  0.00000000000E+00 0. -1.
         -5    1    3    3    0  503 -0.68845275969E+02  0.37249864597E+01  0.40492094449E+03  0.41077561860E+03  0.47000000000E+01 0.  1.
         13    1    4    4    0    0 -0.25716165463E+02  0.82765572504E+01  0.10592190089E+03  0.10931272412E+03  0.00000000000E+00 0. -1.
        -14    1    4    4    0    0  0.59479052427E+02  0.69315486708E+02  0.32083386914E+03  0.33358172307E+03  0.00000000000E+00 0.  1.
</event>
<event>
12    1  0.8356052E-002  0.2168617E+03  0.7818608E-02  0.1136264E+00
         21   -1    0    0  501  502  0.00000000000E+00  0.00000000000E+00  0.13779210087E+03  0.13779210087E+03  0.00000000000E+00 0. -1.
         21   -1    0    0  502  503 -0.00000000000E+00 -0.00000000000E+00 -0.53968239697E+03  0.53968239697E+03  0.00000000000E+00 0.  1.
         -6    2    1    2    0  503 -0.76918151981E+02  0.10714704453E+03 -0.40643138495E+03  0.46066852077E+03  0.17213983878E+03 0.  0.
        -24    2    3    3    0    0 -0.79689179591E+02  0.13216942875E+02 -0.28763614902E+03  0.30912664315E+03  0.79370487963E+02 0.  0.
          6    2    1    2  501    0  0.76918151981E+02 -0.10714704453E+03  0.45410888510E+01  0.21680597707E+03  0.17200964784E+03 0.  0.
         24    2    5    5    0    0  0.10484776190E+03 -0.12566758321E+03  0.10863808316E+02  0.18238011115E+03  0.79743889857E+02 0.  0.
          5    1    5    5  501    0 -0.27929609915E+02  0.18520538675E+02 -0.63227194646E+01  0.34425865918E+02  0.47000000000E+01 0. -1.
        -13    1    6    6    0    0  0.46594949071E+02 -0.55910757170E+02 -0.34798529049E+02  0.80672421993E+02  0.00000000000E+00 0.  1.
         14    1    6    6    0    0  0.58252812824E+02 -0.69756826037E+02  0.45662337365E+02  0.10170768916E+03  0.00000000000E+00 0. -1.
         -5    1    3    3    0  503  0.27710276102E+01  0.93930101657E+02 -0.11879523592E+03  0.15154187761E+03  0.47000000000E+01 0.  1.
         11    1    4    4    0    0 -0.85934482322E+02  0.28469036979E+02 -0.19439745084E+03  0.21444251027E+03  0.00000000000E+00 0. -1.
        -12    1    4    4    0    0  0.62453027308E+01 -0.15252094103E+02 -0.93238698181E+02  0.94684132880E+02  0.00000000000E+00 0.  1.
</event>
<event>
12    1  0.8356052E-002  0.2299228E+03  0.7818608E-02  0.1126697E+00
         21   -1    0    0  503  502  0.00000000000E+00  0.00000000000E+00  0.14447724066E+03  0.14447724066E+03  0.00000000000E+00 0.  1.
         21   -1    0    0  501  503 -0.00000000000E+00 -0.00000000000E+00 -0.41259465791E+03  0.41259465791E+03  0.00000000000E+00 0.  1.
          6    2    1    2  501    0  0.53390326882E+02  0.14298596711E+03 -0.22778386677E+03  0.32363822764E+03  0.17193225013E+03 0.  0.
         24    2    3    3    0    0 -0.29751510116E+02  0.95554843836E+02 -0.14052976563E+03  0.19403249984E+03  0.88792541519E+02 0.  0.
         -6    2    1    2    0  502 -0.53390326882E+02 -0.14298596711E+03 -0.40333550476E+02  0.23343367093E+03  0.17195630153E+03 0.  0.
        -24    2    5    5    0    0 -0.86513398178E+02 -0.65030955872E+02 -0.70351159180E+02  0.14344884742E+03  0.62567507085E+02 0.  0.
          5    1    3    3  501    0  0.83141836998E+02  0.47431123276E+02 -0.87254101136E+02  0.12960572780E+03  0.47000000000E+01 0. -1.
        -11    1    4    4    0    0  0.78825042510E+01  0.51951179643E+02 -0.13046538780E+02  0.54141214557E+02  0.00000000000E+00 0.  1.
         12    1    4    4    0    0 -0.37634014367E+02  0.43603664193E+02 -0.12748322685E+03  0.13989128528E+03  0.00000000000E+00 0. -1.
         -5    1    5    5    0  502  0.33123071296E+02 -0.77955011239E+02  0.30017608704E+02  0.89984823508E+02  0.47000000000E+01 0.  1.
         13    1    6    6    0    0 -0.82148976574E+02 -0.39792382695E+02 -0.30813484902E+02  0.96339809656E+02  0.00000000000E+00 0. -1.
        -14    1    6    6    0    0 -0.43644216043E+01 -0.25238573178E+02 -0.39537674278E+02  0.47109037767E+02  0.00000000000E+00 0.  1.
</event>
<event>
12    1  0.8356052E-002  0.2011919E+03  0.7818608E-02  0.1149136E+00
         21   -1    0    0  503  502  0.00000000000E+00  0.00000000000E+00  0.67591022573E+02  0.67591022573E+02  0.00000000000E+00 0.  1.
         21   -1    0    0  501  503 -0.00000000000E+00 -0.00000000000E+00 -0.73920713993E+03  0.73920713993E+03  0.00000000000E+00 0. -1.
          6    2    1    2  501    0  0.48837777860E+02 -0.92829646969E+02 -0.51379002686E+03  0.55108880765E+03  0.16945857993E+03 0.  0.
         24    2    3    3    0    0  0.21633790916E+02 -0.12100163931E+03 -0.30217552612E+03  0.33582964994E+03  0.79762695312E+02 0.  0.
         -6    2    1    2    0  502 -0.48837777860E+02  0.92829646969E+02 -0.15782609050E+03  0.25570935486E+03  0.17168496561E+03 0.  0.
        -24    2    5    5    0    0 -0.61261007910E+02  0.24841880569E+02 -0.24856704810E+02  0.10577730173E+03  0.78746121594E+02 0.  0.
          5    1    3    3  501    0  0.27203986944E+02  0.28171992338E+02 -0.21161450073E+03  0.21525915771E+03  0.47000000000E+01 0. -1.
        -13    1    4    4    0    0 -0.98844720688E+01 -0.45736495519E+02 -0.19825402593E+03  0.20370122387E+03  0.00000000000E+00 0.  1.
         14    1    4    4    0    0  0.31518262985E+02 -0.75265143789E+02 -0.10392150020E+03  0.13212842606E+03  0.00000000000E+00 0. -1.
         -5    1    5    5    0  502  0.12423230050E+02  0.67987766400E+02 -0.13296938569E+03  0.14993205313E+03  0.47000000000E+01 0.  1.
         13    1    6    6    0    0 -0.17110451101E+02 -0.52645015624E+01  0.26290196212E+02  0.31806554835E+02  0.00000000000E+00 0. -1.
        -14    1    6    6    0    0 -0.44150556809E+02  0.30106382131E+02 -0.51146901022E+02  0.73970746892E+02  0.00000000000E+00 0.  1.
</event>
<event>
12    1  0.8356052E-002  0.2124163E+03  0.7818608E-02  0.1139677E+00
         21   -1    0    0  503  502  0.00000000000E+00  0.00000000000E+00  0.84149843113E+03  0.84149843113E+03  0.00000000000E+00 0.  1.
         21   -1    0    0  501  503 -0.00000000000E+00 -0.00000000000E+00 -0.92025958707E+02  0.92025958707E+02  0.00000000000E+00 0.  1.
          6    2    1    2  501    0  0.95222253335E+02 -0.80345445143E+02  0.73172244425E+02  0.22466609599E+03  0.17204071974E+03 0.  0.
         24    2    3    3    0    0  0.32965570762E+02 -0.99690397035E+02  0.82181200339E+02  0.15868600069E+03  0.86038322919E+02 0.  0.
         -6    2    1    2    0  502 -0.95222253335E+02  0.80345445143E+02  0.67630022799E+03  0.70885829384E+03  0.17197503969E+03 0.  0.
        -24    2    5    5    0    0 -0.34651312699E+02  0.23561221582E+02  0.13935210789E+03  0.16550881093E+03  0.78856273614E+02 0.  0.
          5    1    3    3  501    0  0.62256682573E+02  0.19344951892E+02 -0.90089559141E+01  0.65980095297E+02  0.47000000000E+01 0. -1.
        -11    1    4    4    0    0  0.61792058576E+02 -0.55959035936E+02  0.51181787321E+02  0.97822530939E+02  0.00000000000E+00 0.  1.
         12    1    4    4    0    0 -0.28826487814E+02 -0.43731361099E+02  0.30999413019E+02  0.60863469756E+02  0.00000000000E+00 0. -1.
         -5    1    5    5    0  502 -0.60570940635E+02  0.56784223561E+02  0.53694812011E+03  0.54334948291E+03  0.47000000000E+01 0.  1.
         11    1    6    6    0    0 -0.48715319607E+02  0.32527308764E+02  0.13656651117E+03  0.14859885650E+03  0.00000000000E+00 0. -1.
        -12    1    6    6    0    0  0.14064006908E+02 -0.89660871820E+01  0.27855967147E+01  0.16909954427E+02  0.00000000000E+00 0.  1.
</event>
<event>
12    1  0.8356052E-002  0.1993159E+03  0.7818608E-02  0.1150978E+00
         21   -1    0    0  501  502  0.00000000000E+00  0.00000000000E+00  0.19008237897E+03  0.19008237897E+03  0.00000000000E+00 0. -1.
         21   -1    0    0  502  503 -0.00000000000E+00 -0.00000000000E+00 -0.22730089650E+03  0.22730089650E+03  0.00000000000E+00 0. -1.
         -6    2    1    2    0  503 -0.24033453073E+02  0.87615032679E+02 -0.82707034164E+02  0.21294250004E+03  0.17392542656E+03 0.  0.
        -24    2    3    3    0    0  0.76369324613E+01  0.59229481460E+02 -0.12066836886E+03  0.15574192513E+03  0.78283061960E+02 0.  0.
          6    2    1    2  501    0  0.24033453073E+02 -0.87615032679E+02  0.45488516628E+02  0.20444077543E+03  0.17740581922E+03 0.  0.
         24    2    5    5    0    0  0.70284187934E+02 -0.62350301956E+01  0.32434472816E+02  0.10981343615E+03  0.77641825431E+02 0.  0.
          5    1    5    5  501    0 -0.46250734861E+02 -0.81380002484E+02  0.13054043811E+02  0.94627339281E+02  0.47000000000E+01 0. -1.
        -11    1    6    6    0    0  0.34404720519E+02  0.29781983987E+02 -0.62482722740E+01  0.45931386552E+02  0.00000000000E+00 0.  1.
         12    1    6    6    0    0  0.35879467416E+02 -0.36017014182E+02  0.38682745090E+02  0.63882049595E+02  0.00000000000E+00 0. -1.
         -5    1    3    3    0  503 -0.31670385534E+02  0.28385551219E+02  0.37961334694E+02  0.57200574907E+02  0.47000000000E+01 0.  1.
         13    1    4    4    0    0 -0.24688360880E+02  0.26344368999E+02 -0.97838200496E+02  0.10428736461E+03  0.00000000000E+00 0. -1.
        -14    1    4    4    0    0  0.32325293342E+02  0.32885112461E+02 -0.22830168362E+02  0.51454560523E+02  0.00000000000E+00 0.  1.
</event>
<event>
12    1  0.8356052E-002  0.2573270E+03  0.7818608E-02  0.1109300E+00
         21   -1    0    0  503  502  0.00000000000E+00  0.00000000000E+00  0.26121178083E+03  0.26121178083E+03  0.00000000000E+00 0.  1.
         21   -1    0    0  501  503 -0.00000000000E+00 -0.00000000000E+00 -0.44422004474E+03  0.44422004474E+03  0.00000000000E+00 0. -1.
          6    2    1    2  501    0 -0.69365147942E+01  0.19034645416E+03 -0.32434367073E+03  0.41184558806E+03  0.16774410216E+03 0.  0.
         24    2    3    3    0    0  0.12893152151E+01  0.16457971758E+03 -0.15717172682E+03  0.24243443782E+03  0.83566495420E+02 0.  0.
         -6    2    1    2    0  502  0.69365147942E+01 -0.19034645416E+03  0.14133540682E+03  0.29358623752E+03  0.17302396883E+03 0.  0.
        -24    2    5    5    0    0 -0.28902249394E+02 -0.18867460891E+03  0.15084961814E+03  0.25617203831E+03  0.80218812339E+02 0.  0.
          5    1    3    3  501    0 -0.82258300093E+01  0.25766736581E+02 -0.16717194392E+03  0.16941115024E+03  0.47000000000E+01 0. -1.
        -13    1    4    4    0    0  0.36505881007E+02  0.95646259620E+02 -0.61727230727E+02  0.11954554505E+03  0.00000000000E+00 0.  1.
         14    1    4    4    0    0 -0.35216565792E+02  0.68933457961E+02 -0.95444496090E+02  0.12288889277E+03  0.00000000000E+00 0. -1.
         -5    1    5    5    0  502  0.35838764188E+02 -0.16718452488E+01 -0.95142113185E+01  0.37414199204E+02  0.47000000000E+01 0.  1.
         11    1    6    6    0    0 -0.16384063818E+02 -0.15262818548E+03  0.74087260719E+02  0.17044859270E+03  0.00000000000E+00 0. -1.
        -12    1    6    6    0    0 -0.12518185576E+02 -0.36046423429E+02  0.76762357417E+02  0.85723445616E+02  0.00000000000E+00 0.  1.
</event>
<event>
12    1  0.8356052E-002  0.2061329E+03  0.7818608E-02  0.1144785E+00
         21   -1    0    0  501  502  0.00000000000E+00  0.00000000000E+00  0.23096531265E+03  0.23096531265E+03  0.00000000000E+00 0.  1.
         21   -1    0    0  502  503 -0.00000000000E+00 -0.00000000000E+00 -0.39737949715E+03  0.39737949715E+03  0.00000000000E+00 0.  1.
         -6    2    1    2    0  503 -0.61065159994E+02 -0.95105942830E+02 -0.31378154101E+03  0.37543259227E+03  0.17238527122E+03 0.  0.
        -24    2    3    3    0    0  0.31409219297E+02 -0.20855660058E+02 -0.14147904244E+03  0.16620817608E+03  0.78659651233E+02 0.  0.
          6    2    1    2  501    0  0.61065159994E+02  0.95105942830E+02  0.14736735651E+03  0.25291221752E+03  0.17167806465E+03 0.  0.
         24    2    5    5    0    0  0.73748173925E+02  0.13776143544E+02  0.38674326582E+02  0.11648766017E+03  0.80281356163E+02 0.  0.
          5    1    5    5  501    0 -0.12683013931E+02  0.81329799285E+02  0.10869302993E+03  0.13642455735E+03  0.47000000000E+01 0. -1.
        -11    1    6    6    0    0  0.78737143868E+02 -0.22532274670E+01  0.52565228309E+02  0.94698036335E+02  0.00000000000E+00 0.  1.
         12    1    6    6    0    0 -0.49889699431E+01  0.16029371012E+02 -0.13890901728E+02  0.21789623836E+02  0.00000000000E+00 0. -1.
         -5    1    3    3    0  503 -0.92474379290E+02 -0.74250282772E+02 -0.17230249857E+03  0.20922441619E+03  0.47000000000E+01 0.  1.
         13    1    4    4    0    0  0.19921253993E+02 -0.41128734414E+02 -0.35971736639E+02  0.58158361325E+02  0.00000000000E+00 0. -1.
        -14    1    4    4    0    0  0.11487965303E+02  0.20273074356E+02 -0.10550730580E+03  0.10804981475E+03  0.00000000000E+00 0.  1.
</event>
<event>
12    1  0.8356052E-002  0.2054439E+03  0.7818608E-02  0.1146701E+00
         21   -1    0    0  503  502  0.00000000000E+00  0.00000000000E+00  0.72503785377E+03  0.72503785377E+03  0.00000000000E+00 0.  1.
         21   -1    0    0  501  503 -0.00000000000E+00 -0.00000000000E+00 -0.18704859418E+03  0.18704859418E+03  0.00000000000E+00 0.  1.
          6    2    1    2  501    0  0.10240944990E+02  0.10449485281E+03 -0.11381462717E+03  0.22867184526E+03  0.16826464941E+03 0.  0.
         24    2    3    3    0    0  0.49209050014E+02  0.55054735529E+02 -0.97852929471E+01  0.10698770174E+03  0.76798840216E+02 0.  0.
         -6    2    1    2    0  502 -0.10240944990E+02 -0.10449485281E+03  0.65180388675E+03  0.68341460269E+03  0.17658754533E+03 0.  0.
        -24    2    5    5    0    0 -0.29334729532E+02 -0.12651739816E+03  0.37513783535E+03  0.40517772679E+03  0.81076608102E+02 0.  0.
          5    1    3    3  501    0 -0.38968105024E+02  0.49440117284E+02 -0.10402933422E+03  0.12168414352E+03  0.47000000000E+01 0. -1.
        -13    1    4    4    0    0 -0.14757141397E+02  0.35963884402E+02  0.31147128347E+01  0.38998405602E+02  0.00000000000E+00 0.  1.
         14    1    4    4    0    0  0.63966191411E+02  0.19090851127E+02 -0.12900005782E+02  0.67989296139E+02  0.00000000000E+00 0. -1.
         -5    1    5    5    0  502  0.19093784543E+02  0.22022545349E+02  0.27666605140E+03  0.27823687590E+03  0.47000000000E+01 0.  1.
         13    1    6    6    0    0  0.13371521811E+02 -0.23651937351E+02  0.22211003839E+02  0.35093310296E+02  0.00000000000E+00 0. -1.
        -14    1    6    6    0    0 -0.42706251343E+02 -0.10286546081E+03  0.35292683151E+03  0.37008441649E+03  0.00000000000E+00 0.  1.
</event>
<event>
12    1  0.8356052E-002  0.1923892E+03  0.7818608E-02  0.1156892E+00
         21   -1    0    0  501  502  0.00000000000E+00  0.00000000000E+00  0.15323235988E+03  0.15323235988E+03  0.00000000000E+00 0. -1.
         21   -1    0    0  502  503 -0.00000000000E+00 -0.00000000000E+00 -0.29950949274E+03  0.29950949274E+03  0.00000000000E+00 0.  1.
         -6    2    1    2    0  503 -0.79340140225E+02 -0.24430742534E+02 -0.17580063125E+03  0.26061364661E+03  0.17355659545E+03 0.  0.
        -24    2    3    3    0    0 -0.76573360735E+02 -0.79210506116E+02 -0.11967280671E+03  0.18199494493E+03  0.81625948457E+02 0.  0.
          6    2    1    2  501    0  0.79340140225E+02  0.24430742534E+02  0.29523498388E+02  0.19212820600E+03  0.17073339320E+03 0.  0.
         24    2    5    5    0    0  0.58029644753E+01  0.65896308881E+02  0.36659865305E+01  0.10370982370E+03  0.79789035293E+02 0.  0.
          5    1    5    5  501    0  0.73537175749E+02 -0.41465566347E+02  0.25857511857E+02  0.88418382303E+02  0.47000000000E+01 0. -1.
        -13    1    6    6    0    0 -0.10534040629E+02  0.52463621151E+02  0.36414167720E+02  0.64725490860E+02  0.00000000000E+00 0.  1.
         14    1    6    6    0    0  0.16337005105E+02  0.13432687730E+02 -0.32748181190E+02  0.38984332836E+02  0.00000000000E+00 0. -1.
         -5    1    3    3    0  503 -0.27667794897E+01  0.54779763582E+02 -0.56127824534E+02  0.78618701680E+02  0.47000000000E+01 0.  1.
         13    1    4    4    0    0 -0.25473104712E+02 -0.21442767881E+02  0.66829342007E+01  0.33960756287E+02  0.00000000000E+00 0. -1.
        -14    1    4    4    0    0 -0.51100256023E+02 -0.57767738236E+02 -0.12635574091E+03  0.14803418865E+03  0.00000000000E+00 0.  1.
</event>
<event>
12    1  0.8356052E-002  0.2153043E+03  0.7818608E-02  0.1137711E+00
         21   -1    0    0  503  502  0.00000000000E+00  0.00000000000E+00  0.19815754074E+04  0.19815754074E+04  0.00000000000E+00 0.  1.
         21   -1    0    0  501  503 -0.00000000000E+00 -0.00000000000E+00 -0.27636246733E+02  0.27636246733E+02  0.00000000000E+00 0.  1.
          6    2    1    2  501    0  0.12493033384E+03 -0.33421192480E+02  0.57338554419E+03  0.61197000472E+03  0.17032832992E+03 0.  0.
         24    2    3    3    0    0  0.14230055932E+03 -0.17621598442E+02  0.56142151826E+03  0.58520099612E+03  0.81890871165E+02 0.  0.
         -6    2    1    2    0  502 -0.12493033384E+03  0.33421192480E+02  0.13805536165E+04  0.13972416494E+04  0.17213766136E+03 0.  0.
        -24    2    5    5    0    0 -0.18181962206E+02  0.39679247934E+02  0.37040055024E+03  0.38143375156E+03  0.79938180774E+02 0.  0.
          5    1    3    3  501    0 -0.17370225482E+02 -0.15799594038E+02  0.11964025930E+02  0.26769008601E+02  0.47000000000E+01 0. -1.
        -13    1    4    4    0    0  0.65457309599E+02 -0.10295461164E+02  0.11998171247E+03  0.13706300459E+03  0.00000000000E+00 0.  1.
         14    1    4    4    0    0  0.76843249724E+02 -0.73261372780E+01  0.44143980579E+03  0.44813799153E+03  0.00000000000E+00 0. -1.
         -5    1    5    5    0  502 -0.10674837164E+03 -0.62580554540E+01  0.10101530662E+04  0.10158078979E+04  0.47000000000E+01 0.  1.
         11    1    6    6    0    0  0.24867439301E+02  0.40546386909E+02  0.17530523586E+03  0.18164339996E+03  0.00000000000E+00 0. -1.
        -12    1    6    6    0    0 -0.43049401507E+02 -0.86713897502E+00  0.19509531438E+03  0.19979035160E+03  0.00000000000E+00 0.  1.
</event>
<event>
12    1  0.8356052E-002  0.2052557E+03  0.7818608E-02  0.1146221E+00
         21   -1    0    0  503  502  0.00000000000E+00  0.00000000000E+00  0.50885597895E+02  0.50885597895E+02  0.00000000000E+00 0.  1.
         21   -1    0    0  501  503 -0.00000000000E+00 -0.00000000000E+00 -0.13553470317E+04  0.13553470317E+04  0.00000000000E+00 0.  1.
          6    2    1    2  501    0  0.85140936046E+01 -0.10875888650E+03 -0.10936646307E+04  0.11120129800E+04  0.16902531824E+03 0.  0.
         24    2    3    3    0    0 -0.24321639997E+02 -0.74883418461E+02 -0.10073864965E+04  0.10135663490E+04  0.79310288420E+02 0.  0.
         -6    2    1    2    0  502 -0.85140936046E+01  0.10875888650E+03 -0.21079680315E+03  0.29421964957E+03  0.17386467379E+03 0.  0.
        -24    2    5    5    0    0 -0.39906733219E+02 -0.17392948440E+01 -0.10494469110E+03  0.13794391400E+03  0.80122173689E+02 0.  0.
          5    1    3    3  501    0  0.32835733601E+02 -0.33875468044E+02 -0.86278134119E+02  0.98446631041E+02  0.47000000000E+01 0. -1.
        -11    1    4    4    0    0 -0.31245735516E+02 -0.84588180655E+02 -0.67876665864E+03  0.68473033610E+03  0.00000000000E+00 0.  1.
         12    1    4    4    0    0  0.69240955192E+01  0.97047621939E+01 -0.32861983791E+03  0.32883601289E+03  0.00000000000E+00 0. -1.
         -5    1    5    5    0  502  0.31392639614E+02  0.11049818135E+03 -0.10585211204E+03  0.15627573557E+03  0.47000000000E+01 0.  1.
         13    1    6    6    0    0 -0.52249303856E+02  0.24044389075E+02 -0.50897746692E+02  0.76803014380E+02  0.00000000000E+00 0. -1.
        -14    1    6    6    0    0  0.12342570637E+02 -0.25783683919E+02 -0.54046944412E+02  0.61140899623E+02  0.00000000000E+00 0.  1.
</event>
<event>
12    1  0.8356052E-002  0.1971637E+03  0.7818608E-02  0.1153239E+00
         21   -1    0    0  501  502  0.00000000000E+00  0.00000000000E+00  0.82774264326E+02  0.82774264326E+02  0.00000000000E+00 0.  1.
         21   -1    0    0  502  503 -0.00000000000E+00 -0.00000000000E+00 -0.45895564309E+03  0.45895564309E+03  0.00000000000E+00 0.  1.
         -6    2    1    2    0  503 -0.93849194519E+02  0.23378146291E+02 -0.20376651668E+03  0.28353894118E+03  0.17181189950E+03 0.  0.
        -24    2    3    3    0    0 -0.50335623946E+02 -0.48431495972E+01 -0.21074832566E+03  0.23099650098E+03  0.79921183425E+02 0.  0.
          6    2    1    2  501    0  0.93849194519E+02 -0.23378146291E+02 -0.17241486209E+03  0.25819096624E+03  0.16607673330E+03 0.  0.
         24    2    5    5    0    0  0.13078662202E+03 -0.18380352581E+02 -0.14638663025E+03  0.21248636751E+03  0.79236563523E+02 0.  0.
          5    1    5    5  501    0 -0.36937427504E+02 -0.49977937105E+01 -0.26028231833E+02  0.45704598728E+02  0.47000000000E+01 0. -1.
        -13    1    6    6    0    0  0.20006848499E+02  0.58571261062E+01  0.67690878231E+01  0.21918039672E+02  0.00000000000E+00 0.  1.
         14    1    6    6    0    0  0.11077977352E+03 -0.24237478687E+02 -0.15315571808E+03  0.19056832784E+03  0.00000000000E+00 0. -1.
         -5    1    3    3    0  503 -0.43513570572E+02  0.28221295888E+02  0.69818089831E+01  0.52542440201E+02  0.47000000000E+01 0.  1.
         11    1    4    4    0    0  0.19384324585E+02  0.94414811005E+01 -0.31848767005E+02  0.38460857566E+02  0.00000000000E+00 0. -1.
        -12    1    4    4    0    0 -0.69719948532E+02 -0.14284630698E+02 -0.17889955865E+03  0.19253564341E+03  0.00000000000E+00 0.  1.
</event>
<event>
12    1  0.8356052E-002  0.2037079E+03  0.7818608E-02  0.1146679E+00
         21   -1    0    0  503  502  0.00000000000E+00  0.00000000000E+00  0.26336461195E+04  0.26336461195E+04  0.00000000000E+00 0.  1.
         21   -1    0    0  501  503 -0.00000000000E+00 -0.00000000000E+00 -0.15768760987E+02  0.15768760987E+02  0.00000000000E+00 0.  1.
          6    2    1    2  501    0 -0.10896660518E+03  0.21630286291E+01  0.12567450316E+04  0.12731234451E+04  0.17192100602E+03 0.  0.
         24    2    3    3    0    0 -0.10288527630E+03 -0.58141563502E+02  0.88302227467E+03  0.89448850821E+03  0.80097017923E+02 0.  0.
         -6    2    1    2    0  502  0.10896660518E+03 -0.21630286291E+01  0.13611323269E+04  0.13762914354E+04  0.17210027301E+03 0.  0.
        -24    2    5    5    0    0  0.75846658455E+02 -0.37738736690E+02  0.12205370341E+04  0.12274570031E+04  0.98808476094E+02 0.  0.
          5    1    3    3  501    0 -0.60813288804E+01  0.60304592132E+02  0.37372275694E+03  0.37863493691E+03  0.47000000000E+01 0. -1.
        -11    1    4    4    0    0 -0.64857761547E+02 -0.22331794020E+02  0.24769571328E+03  0.25701829630E+03  0.00000000000E+00 0.  1.
         12    1    4    4    0    0 -0.38027514757E+02 -0.35809769483E+02  0.63532656139E+03  0.63747021191E+03  0.00000000000E+00 0. -1.
         -5    1    5    5    0  502  0.33119946729E+02  0.35575708061E+02  0.14059529282E+03  0.14883443230E+03  0.47000000000E+01 0.  1.
         13    1    6    6    0    0  0.13748206232E+02  0.31288980139E+02  0.46115640218E+03  0.46242106432E+03  0.00000000000E+00 0. -1.
        -14    1    6    6    0    0  0.62098452223E+02 -0.69027716829E+02  0.75938063192E+03  0.76503593876E+03  0.00000000000E+00 0.  1.
</event>
<event>
12    1  0.8356052E-002  0.1985073E+03  0.7818608E-02  0.1151107E+00
         21   -1    0    0  503  502  0.00000000000E+00  0.00000000000E+00  0.90339463220E+02  0.90339463220E+02  0.00000000000E+00 0. -1.
         21   -1    0    0  501  503 -0.00000000000E+00 -0.00000000000E+00 -0.49735568109E+03  0.49735568109E+03  0.00000000000E+00 0. -1.
          6    2    1    2  501    0 -0.95629960590E+02  0.16825432151E+02 -0.30765450017E+03  0.36613720180E+03  0.17313859921E+03 0.  0.
         24    2    3    3    0    0 -0.12463210518E+02 -0.31687502415E+02 -0.21692605057E+03  0.23375912693E+03  0.80168501192E+02 0.  0.
         -6    2    1    2    0  502  0.95629960590E+02 -0.16825432151E+02 -0.99361717698E+02  0.22155794251E+03  0.17258906807E+03 0.  0.
        -24    2    5    5    0    0  0.50172778666E+02  0.57444822110E+02 -0.45456846881E+02  0.11903842654E+03  0.79288124957E+02 0.  0.
          5    1    3    3  501    0 -0.83166750072E+02  0.48512934566E+02 -0.90728449601E+02  0.13237807486E+03  0.47000000000E+01 0. -1.
        -11    1    4    4    0    0 -0.57863173169E+01 -0.11716610528E+02  0.25172830884E+01  0.13307785109E+02  0.00000000000E+00 0.  1.
         12    1    4    4    0    0 -0.66768932008E+01 -0.19970891887E+02 -0.21944333366E+03  0.22045134182E+03  0.00000000000E+00 0. -1.
         -5    1    5    5    0  502  0.45457181924E+02 -0.74270254261E+02 -0.53904870817E+02  0.10251951597E+03  0.47000000000E+01 0.  1.
         11    1    6    6    0    0  0.14476302751E+02 -0.85487617705E+01  0.15117182213E+02  0.22609154500E+02  0.00000000000E+00 0. -1.
        -12    1    6    6    0    0  0.35696475915E+02  0.65993583880E+02 -0.60574029094E+02  0.96429272043E+02  0.00000000000E+00 0.  1.
</event>
<event>
12    1  0.8356052E-002  0.2166948E+03  0.7818608E-02  0.1136411E+00
         21   -1    0    0  503  502  0.00000000000E+00  0.00000000000E+00  0.64383462872E+02  0.64383462872E+02  0.00000000000E+00 0.  1.
         21   -1    0    0  501  503 -0.00000000000E+00 -0.00000000000E+00 -0.72981214794E+03  0.72981214794E+03  0.00000000000E+00 0. -1.
          6    2    1    2  501    0 -0.42512777100E+02 -0.12367086781E+03 -0.31655377545E+03  0.38350066948E+03  0.17252434895E+03 0.  0.
         24    2    3    3    0    0  0.17830410384E+02 -0.95350677566E+02 -0.28153398194E+03  0.30805658828E+03  0.78916432690E+02 0.  0.
         -6    2    1    2    0  502  0.42512777100E+02  0.12367086781E+03 -0.34887490962E+03  0.41069494134E+03  0.17278545226E+03 0.  0.
        -24    2    5    5    0    0  0.55000018938E+02  0.23269013500E+02 -0.87607747634E+02  0.13048237293E+03  0.76053159882E+02 0.  0.
          5    1    3    3  501    0 -0.60343187484E+02 -0.28320190240E+02 -0.35019793506E+02  0.75444081200E+02  0.47000000000E+01 0. -1.
        -13    1    4    4    0    0  0.19990375982E+02 -0.59325820161E+01 -0.11976192582E+02  0.24046618267E+02  0.00000000000E+00 0.  1.
         14    1    4    4    0    0 -0.21599655988E+01 -0.89418095550E+02 -0.26955778936E+03  0.28400997001E+03  0.00000000000E+00 0. -1.
         -5    1    5    5    0  502 -0.12487241838E+02  0.10040185431E+03 -0.26126716199E+03  0.28021256840E+03  0.47000000000E+01 0.  1.
         13    1    6    6    0    0  0.46235642441E+02  0.50184104917E+02 -0.65234845174E+02  0.94402140035E+02  0.00000000000E+00 0. -1.
        -14    1    6    6    0    0  0.87643764976E+01 -0.26915091418E+02 -0.22372902460E+02  0.36080232897E+02  0.00000000000E+00 0.  1.
</event>
<event>
12    1  0.8356052E-002  0.1814499E+03  0.7818608E-02  0.1166784E+00
         21   -1    0    0  503  502  0.00000000000E+00  0.00000000000E+00  0.16632863320E+03  0.16632863320E+03  0.00000000000E+00 0.  1.
         21   -1    0    0  501  503 -0.00000000000E+00 -0.00000000000E+00 -0.20947762845E+03  0.20947762845E+03  0.00000000000E+00 0. -1.
          6    2    1    2  501    0 -0.35197525040E+02 -0.44619104488E+02 -0.68894091429E+02  0.19408877477E+03  0.17232041784E+03 0.  0.
         24    2    3    3    0    0 -0.86090764758E+02 -0.42646371111E+02 -0.24829519988E+02  0.12657736846E+03  0.78581119856E+02 0.  0.
         -6    2    1    2    0  502  0.35197525040E+02  0.44619104488E+02  0.25745096178E+02  0.18171748687E+03  0.17067133562E+03 0.  0.
        -24    2    5    5    0    0  0.25729335175E+02 -0.41074356675E+02  0.12778193322E+02  0.94406282122E+02  0.80001015085E+02 0.  0.
          5    1    3    3  501    0  0.50893239718E+02 -0.19727333769E+01 -0.44064571442E+02  0.67511406312E+02  0.47000000000E+01 0. -1.
        -11    1    4    4    0    0 -0.71228215411E+02 -0.57830063748E+02  0.27170697071E+01  0.91788656224E+02  0.00000000000E+00 0.  1.
         12    1    4    4    0    0 -0.14862549347E+02  0.15183692637E+02 -0.27546589695E+02  0.34788712236E+02  0.00000000000E+00 0. -1.
         -5    1    5    5    0  502  0.94681898650E+01  0.85693461163E+02  0.12966902856E+02  0.87311204751E+02  0.47000000000E+01 0.  1.
         13    1    6    6    0    0  0.53664029017E+02 -0.36347322044E+02  0.49011500185E+01  0.64999823858E+02  0.00000000000E+00 0. -1.
        -14    1    6    6    0    0 -0.27934693841E+02 -0.47270346312E+01  0.78770433035E+01  0.29406458264E+02  0.00000000000E+00 0.  1.
</event>
<event>
12    1  0.8356052E-002  0.1785348E+03  0.7818608E-02  0.1169778E+00
         21   -1    0    0  501  502  0.00000000000E+00  0.00000000000E+00  0.54295089079E+03  0.54295089079E+03  0.00000000000E+00 0. -1.
         21   -1    0    0  502  503 -0.00000000000E+00 -0.00000000000E+00 -0.13748054375E+03  0.13748054375E+03  0.00000000000E+00 0. -1.
         -6    2    1    2    0  503  0.16712152068E+02  0.32790171575E+02 -0.55446798511E+02  0.18694659787E+03  0.17470029082E+03 0.  0.
        -24    2    3    3    0    0  0.39312396189E+02  0.34337627999E+02  0.25769265799E+02  0.10249954488E+03  0.84365659192E+02 0.  0.
          6    2    1    2  501    0 -0.16712152068E+02 -0.32790171575E+02  0.46091714556E+03  0.49348483667E+03  0.17241861146E+03 0.  0.
         24    2    5    5    0    0  0.46274316452E+02 -0.58953989122E+01  0.35476110579E+03  0.36706561823E+03  0.81888081014E+02 0.  0.
          5    1    5    5  501    0 -0.62986468520E+02 -0.26894772663E+02  0.10615603976E+03  0.12641921844E+03  0.47000000000E+01 0. -1.
        -13    1    6    6    0    0 -0.96090690317E+01  0.22290536503E+02  0.45863689801E+02  0.51891042265E+02  0.00000000000E+00 0.  1.
         14    1    6    6    0    0  0.55883385484E+02 -0.28185935415E+02  0.30889741599E+03  0.31517457596E+03  0.00000000000E+00 0. -1.
         -5    1    3    3    0  503 -0.22600244121E+02 -0.15474564240E+01 -0.81216064310E+02  0.84447052985E+02  0.47000000000E+01 0.  1.
         13    1    4    4    0    0 -0.25560122266E+02  0.20542543957E+01  0.15148491298E+00  0.25642986547E+02  0.00000000000E+00 0. -1.
        -14    1    4    4    0    0  0.64872518455E+02  0.32283373603E+02  0.25617780886E+02  0.76856558337E+02  0.00000000000E+00 0.  1.
</event>
<event>
12    1  0.8356052E-002  0.1934522E+03  0.7818608E-02  0.1156088E+00
         21   -1    0    0  501  502  0.00000000000E+00  0.00000000000E+00  0.74497599351E+02  0.74497599351E+02  0.00000000000E+00 0.  1.
         21   -1    0    0  502  503 -0.00000000000E+00 -0.00000000000E+00 -0.63913894587E+03  0.63913894587E+03  0.00000000000E+00 0.  1.
         -6    2    1    2    0  503  0.10936050365E+02 -0.88539305759E+02 -0.11058244729E+03  0.22008486920E+03  0.16807755990E+03 0.  0.
        -24    2    3    3    0    0 -0.17395236173E+02 -0.14646755176E+02  0.47914593054E+00  0.83631440090E+02  0.80478981803E+02 0.  0.
          6    2    1    2  501    0 -0.10936050365E+02  0.88539305759E+02 -0.45405889923E+03  0.49355167602E+03  0.17165362527E+03 0.  0.
         24    2    5    5    0    0  0.35525426481E+02  0.10957391396E+03 -0.30728353327E+03  0.33809678987E+03  0.81349683201E+02 0.  0.
          5    1    5    5  501    0 -0.46461476846E+02 -0.21034608204E+02 -0.14677536597E+03  0.15545488615E+03  0.47000000000E+01 0. -1.
        -11    1    6    6    0    0  0.36671936212E+01  0.94832545859E+02 -0.27301613406E+03  0.28904060185E+03  0.00000000000E+00 0.  1.
         12    1    6    6    0    0  0.31858232860E+02  0.14741368105E+02 -0.34267399212E+02  0.49056188023E+02  0.00000000000E+00 0. -1.
         -5    1    3    3    0  503  0.28331286538E+02 -0.73892550583E+02 -0.11106159322E+03  0.13645342911E+03  0.47000000000E+01 0.  1.
         11    1    4    4    0    0  0.31109991425E+02  0.42116932770E+01 -0.25779299622E+01  0.31499454751E+02  0.00000000000E+00 0. -1.
        -12    1    4    4    0    0 -0.48505227598E+02 -0.18858448453E+02  0.30570758928E+01  0.52131985339E+02  0.00000000000E+00 0.  1.
</event>
<event>
12    1  0.8356052E-002  0.1835474E+03  0.7818608E-02  0.1164444E+00
         21   -1    0    0  503  502  0.00000000000E+00  0.00000000000E+00  0.16172197266E+03  0.16172197266E+03  0.00000000000E+00 0. -1.
         21   -1    0    0  501  503 -0.00000000000E+00 -0.00000000000E+00 -0.26147290780E+03  0.26147290780E+03  0.00000000000E+00 0. -1.
          6    2    1    2  501    0 -0.44882825745E+02 -0.49426243696E+02 -0.14539870263E+03  0.23405643835E+03  0.17083387250E+03 0.  0.
         24    2    3    3    0    0 -0.54713430217E+02  0.29030388610E+02 -0.59410821716E+02  0.11714583318E+03  0.79731910709E+02 0.  0.
         -6    2    1    2    0  502  0.44882825745E+02  0.49426243696E+02  0.45647767492E+02  0.18913844212E+03  0.17097429630E+03 0.  0.
        -24    2    5    5    0    0  0.25002575847E+02 -0.38748533682E+02  0.15913513279E+02  0.93869183827E+02  0.80197294879E+02 0.  0.
          5    1    3    3  501    0  0.98306044720E+01 -0.78456632305E+02 -0.85987880910E+02  0.11691060517E+03  0.47000000000E+01 0. -1.
        -13    1    4    4    0    0 -0.12377336294E+00  0.27067799065E+02  0.99665441789E+01  0.28844636745E+02  0.00000000000E+00 0.  1.
         14    1    4    4    0    0 -0.54589656854E+02  0.19625895443E+01 -0.69377365895E+02  0.88301196434E+02  0.00000000000E+00 0. -1.
         -5    1    5    5    0  502  0.19880249899E+02  0.88174777378E+02  0.29734254213E+02  0.95269258291E+02  0.47000000000E+01 0.  1.
         11    1    6    6    0    0  0.45126745969E+02 -0.15099482951E+02  0.33488157057E+02  0.58188265571E+02  0.00000000000E+00 0. -1.
        -12    1    6    6    0    0 -0.20124170122E+02 -0.23649050731E+02 -0.17574643778E+02  0.35680918255E+02  0.00000000000E+00 0.  1.
</event>
<event>
12    1  0.8356052E-002  0.2063106E+03  0.7818608E-02  0.1145065E+00
         21   -1    0    0  503  502  0.00000000000E+00  0.00000000000E+00  0.62183142137E+03  0.62183142137E+03  0.00000000000E+00 0.  1.
         21   -1    0    0  501  503 -0.00000000000E+00 -0.00000000000E+00 -0.68652554637E+02  0.68652554637E+02  0.00000000000E+00 0.  1.
          6    2    1    2  501    0 -0.52163317758E+02  0.94619209158E+02  0.31820730911E+03  0.37779294626E+03  0.17262042812E+03 0.  0.
         24    2    3    3    0    0  0.36764858508E+02  0.50210756409E+02  0.13265599521E+03  0.16724197547E+03  0.80619417088E+02 0.  0.
         -6    2    1    2    0  502  0.52163317758E+02 -0.94619209158E+02  0.23497155762E+03  0.31269102975E+03  0.17575619687E+03 0.  0.
        -24    2    5    5    0    0 -0.26764815145E+02 -0.38870772589E+02  0.17684329288E+03  0.19982596206E+03  0.80184615640E+02 0.  0.
          5    1    3    3  501    0 -0.88928176266E+02  0.44408452750E+02  0.18555131390E+03  0.21055097079E+03  0.47000000000E+01 0. -1.
        -11    1    4    4    0    0 -0.13065297035E+02  0.35355290067E+02  0.18899732308E+02  0.42165132558E+02  0.00000000000E+00 0.  1.
         12    1    4    4    0    0  0.49830155543E+02  0.14855466342E+02  0.11375626291E+03  0.12507684291E+03  0.00000000000E+00 0. -1.
         -5    1    5    5    0  502  0.78928132903E+02 -0.55748436569E+02  0.58128264738E+02  0.11286506769E+03  0.47000000000E+01 0.  1.
         11    1    6    6    0    0  0.10173125547E+02  0.50876081916E+01  0.11452784535E+03  0.11509128377E+03  0.00000000000E+00 0. -1.
        -12    1    6    6    0    0 -0.36937940692E+02 -0.43958380781E+02  0.62315447535E+02  0.84734678290E+02  0.00000000000E+00 0.  1.
</event>
<event>
12    1  0.8356052E-002  0.1870899E+03  0.7818608E-02  0.1161311E+00
         21   -1    0    0  501  502  0.00000000000E+00  0.00000000000E+00  0.70701754423E+03  0.70701754423E+03  0.00000000000E+00 0.  1.
         21   -1    0    0  502  503 -0.00000000000E+00 -0.00000000000E+00 -0.50920596218E+02  0.50920596218E+02  0.00000000000E+00 0.  1.
         -6    2    1    2    0  503 -0.71923376251E+02  0.88902737711E+01  0.39678946173E+03  0.43868495836E+03  0.17248364193E+03 0.  0.
        -24    2    3    3    0    0 -0.20542242315E+02  0.40314096953E+01  0.71825705997E+02  0.10961481078E+03  0.80113910889E+02 0.  0.
          6    2    1    2  501    0  0.71923376251E+02 -0.88902737711E+01  0.25930748627E+03  0.31925318208E+03  0.17155236172E+03 0.  0.
         24    2    5    5    0    0  0.34071825660E+02  0.60545442507E+02  0.17909839581E+03  0.20651611289E+03  0.75802569803E+02 0.  0.
          5    1    5    5  501    0  0.37851550591E+02 -0.69435716278E+02  0.80209090466E+02  0.11273706919E+03  0.47000000000E+01 0. -1.
        -13    1    6    6    0    0  0.58285861018E+02  0.41685529641E+02  0.11599051380E+03  0.13634047186E+03  0.00000000000E+00 0.  1.
         14    1    6    6    0    0 -0.24214035358E+02  0.18859912865E+02  0.63107882007E+02  0.70175641024E+02  0.00000000000E+00 0. -1.
         -5    1    3    3    0  503 -0.51381133937E+02  0.48588640758E+01  0.32496375574E+03  0.32907014758E+03  0.47000000000E+01 0.  1.
         13    1    4    4    0    0  0.15581394217E+02 -0.27957455676E+02  0.15859221793E+02  0.35719939662E+02  0.00000000000E+00 0. -1.
        -14    1    4    4    0    0 -0.36123636532E+02  0.31988865371E+02  0.55966484204E+02  0.73894871122E+02  0.00000000000E+00 0.  1.
</event>
<event>
12    1  0.8356052E-002  0.2682022E+03  0.7818608E-02  0.1102342E+00
         21   -1    0    0  501  502  0.00000000000E+00  0.00000000000E+00  0.14725540963E+03  0.14725540963E+03  0.00000000000E+00 0.  1.
         21   -1    0    0  502  503 -0.00000000000E+00 -0.00000000000E+00 -0.52266532063E+03  0.52266532063E+03  0.00000000000E+00 0. -1.
         -6    2    1    2    0  503 -0.15337948886E+03 -0.13707508351E+03 -0.10153518328E+03  0.28659349747E+03  0.17178938624E+03 0.  0.
        -24    2    3    3    0    0 -0.16215477403E+03 -0.78845839915E+02 -0.40788142339E+02  0.20185895066E+03  0.81071118133E+02 0.  0.
          6    2    1    2  501    0  0.15337948886E+03  0.13707508351E+03 -0.27387472772E+03  0.38332723280E+03  0.17209751538E+03 0.  0.
         24    2    5    5    0    0  0.34782242193E+02  0.11565113845E+03 -0.17778929944E+03  0.22912349787E+03  0.79394912196E+02 0.  0.
          5    1    5    5  501    0  0.11859724667E+03  0.21423945054E+02 -0.96085428283E+02  0.15420373493E+03  0.47000000000E+01 0. -1.
        -13    1    6    6    0    0  0.33317740944E+02  0.33050835325E+02 -0.19996757053E+02  0.51012742231E+02  0.00000000000E+00 0.  1.
         14    1    6    6    0    0  0.14645012483E+01  0.82600303129E+02 -0.15779254239E+03  0.17811075564E+03  0.00000000000E+00 0. -1.
         -5    1    3    3    0  503  0.87752851692E+01 -0.58229243594E+02 -0.60747040940E+02  0.84734546805E+02  0.47000000000E+01 0.  1.
         11    1    4    4    0    0 -0.25425340972E+02  0.12933405795E+02 -0.22180569046E+02  0.36134451597E+02  0.00000000000E+00 0. -1.
        -12    1    4    4    0    0 -0.13672943306E+03 -0.91779245710E+02 -0.18607573292E+02  0.16572449907E+03  0.00000000000E+00 0.  1.
</event>
<event>
12    1  0.8356052E-002  0.2519483E+03  0.7818608E-02  0.1112183E+00
         21   -1    0    0  501  502  0.00000000000E+00  0.00000000000E+00  0.21899595944E+03  0.21899595944E+03  0.00000000000E+00 0. -1.
         21   -1    0    0  502  503 -0.00000000000E+00 -0.00000000000E+00 -0.30871750031E+03  0.30871750031E+03  0.00000000000E+00 0. -1.
         -6    2    1    2    0  503 -0.71013759209E+02  0.16482900248E+03  0.21590258162E+02  0.25287162972E+03  0.17682298441E+03 0.  0.
        -24    2    3    3    0    0 -0.45609221365E+02  0.17477705198E+03 -0.24932606546E+02  0.19873457058E+03  0.79035281378E+02 0.  0.
          6    2    1    2  501    0  0.71013759209E+02 -0.16482900248E+03 -0.11131179904E+03  0.27484183002E+03  0.17588678423E+03 0.  0.
         24    2    5    5    0    0  0.61303226189E+01 -0.30785533685E+02 -0.90898349335E+02  0.12445462711E+03  0.79000723777E+02 0.  0.
          5    1    5    5  501    0  0.64883436590E+02 -0.13404346880E+03 -0.20413449701E+02  0.15038720291E+03  0.47000000000E+01 0. -1.
        -11    1    6    6    0    0 -0.11461828262E+02 -0.41252058407E+02 -0.94429171194E+02  0.10368208236E+03  0.00000000000E+00 0.  1.
         12    1    6    6    0    0  0.17592150880E+02  0.10466524722E+02  0.35308218591E+01  0.20772544749E+02  0.00000000000E+00 0. -1.
         -5    1    3    3    0  503 -0.25404537845E+02 -0.99480494960E+01  0.46522864708E+02  0.54137059142E+02  0.47000000000E+01 0.  1.
         13    1    4    4    0    0 -0.51331293246E+02  0.18085489489E+03 -0.27504599357E+02  0.18999973068E+03  0.00000000000E+00 0. -1.
        -14    1    4    4    0    0  0.57220718810E+01 -0.60778429121E+01  0.25719928109E+01  0.87348399009E+01  0.00000000000E+00 0.  1.
</event>
<event>
12    1  0.8356052E-002  0.2196150E+03  0.7818608E-02  0.1134656E+00
         21   -1    0    0  501  502  0.00000000000E+00  0.00000000000E+00  0.62922357604E+02  0.62922357604E+02  0.00000000000E+00 0. -1.
         21   -1    0    0  502  503 -0.00000000000E+00 -0.00000000000E+00 -0.11656393074E+04  0.11656393074E+04  0.00000000000E+00 0.  1.
         -6    2    1    2    0  503  0.39208660268E+02 -0.12532257273E+03 -0.91695214495E+03  0.94288492187E+03  0.17603316020E+03 0.  0.
        -24    2    3    3    0    0  0.48238117892E+02 -0.53792080610E+02 -0.24299258030E+03  0.26506361269E+03  0.77413311092E+02 0.  0.
          6    2    1    2  501    0 -0.39208660268E+02  0.12532257273E+03 -0.18576480481E+03  0.28567674310E+03  0.17279922617E+03 0.  0.
         24    2    5    5    0    0  0.41620556806E+02  0.95053338968E+02 -0.12103312887E+03  0.17768661060E+03  0.78460852064E+02 0.  0.
          5    1    5    5  501    0 -0.80829217074E+02  0.30269233762E+02 -0.64731675947E+02  0.10799013250E+03  0.47000000000E+01 0. -1.
        -13    1    6    6    0    0  0.74808547189E+01  0.92510447939E+02 -0.10418805464E+03  0.13953242238E+03  0.00000000000E+00 0.  1.
         14    1    6    6    0    0  0.34139702087E+02  0.25428910291E+01 -0.16845074227E+02  0.38154188225E+02  0.00000000000E+00 0. -1.
         -5    1    3    3    0  503 -0.90294576237E+01 -0.71530492120E+02 -0.67395956465E+03  0.67782130918E+03  0.47000000000E+01 0.  1.
         11    1    4    4    0    0 -0.14975301691E+02 -0.24043632968E+01 -0.98176365513E+01  0.18067280124E+02  0.00000000000E+00 0. -1.
        -12    1    4    4    0    0  0.63213419583E+02 -0.51387717313E+02 -0.23317494375E+03  0.24699633256E+03  0.00000000000E+00 0.  1.
</event>
<event>
12    1  0.8356052E-002  0.2090139E+03  0.7818608E-02  0.1142858E+00
         21   -1    0    0  501  502  0.00000000000E+00  0.00000000000E+00  0.62181111602E+02  0.62181111602E+02  0.00000000000E+00 0. -1.
         21   -1    0    0  502  503 -0.00000000000E+00 -0.00000000000E+00 -0.70205223622E+03  0.70205223622E+03  0.00000000000E+00 0. -1.
         -6    2    1    2    0  503  0.66435536781E+02  0.92276623224E+02 -0.36262351183E+03  0.41854825172E+03  0.17538007853E+03 0.  0.
        -24    2    3    3    0    0  0.56629585090E+02  0.11923359715E+02 -0.30233410969E+03  0.31750516361E+03  0.77810915818E+02 0.  0.
          6    2    1    2  501    0 -0.66435536781E+02 -0.92276623224E+02 -0.27724761279E+03  0.34568509610E+03  0.17234642766E+03 0.  0.
         24    2    5    5    0    0 -0.39020296302E+02 -0.11248256456E+01 -0.21107560851E+03  0.22966324573E+03  0.81660548470E+02 0.  0.
          5    1    5    5  501    0 -0.27415240480E+02 -0.91151797578E+02 -0.66172004276E+02  0.11602185037E+03  0.47000000000E+01 0. -1.
        -11    1    6    6    0    0  0.15572985187E+02  0.13259127468E+02 -0.14318845430E+02  0.24967011501E+02  0.00000000000E+00 0.  1.
         12    1    6    6    0    0 -0.54593281489E+02 -0.14383953114E+02 -0.19675676308E+03  0.20469623423E+03  0.00000000000E+00 0. -1.
         -5    1    3    3    0  503  0.98059516910E+01  0.80353263509E+02 -0.60289402135E+02  0.10104308811E+03  0.47000000000E+01 0.  1.
         11    1    4    4    0    0  0.17023034938E+01  0.31160847317E+02 -0.53326651856E+02  0.61786956883E+02  0.00000000000E+00 0. -1.
        -12    1    4    4    0    0  0.54927281597E+02 -0.19237487602E+02 -0.24900745784E+03  0.25571820673E+03  0.00000000000E+00 0.  1.
</event>
<event>
12    1  0.8356052E-002  0.1932033E+03  0.7818608E-02  0.1156517E+00
         21   -1    0    0  503  502  0.00000000000E+00  0.00000000000E+00  0.10095415906E+03  0.10095415906E+03  0.00000000000E+00 0.  1.
         21   -1    0    0  501  503 -0.00000000000E+00 -0.00000000000E+00 -0.42869053304E+03  0.42869053304E+03  0.00000000000E+00 0.  1.
          6    2    1    2  501    0 -0.47283939725E+02  0.61747845673E+02 -0.26686643820E+03  0.32707950854E+03  0.17237964402E+03 0.  0.
         24    2    3    3    0    0  0.38335281784E+02  0.51832691873E+02 -0.15657371253E+03  0.18702403132E+03  0.79413091223E+02 0.  0.
         -6    2    1    2    0  502  0.47283939725E+02 -0.61747845673E+02 -0.60869935785E+02  0.20256518356E+03  0.17685852286E+03 0.  0.
        -24    2    5    5    0    0  0.11772569358E+02  0.36470967689E+01 -0.86372358096E+02  0.12376150683E+03  0.87777170304E+02 0.  0.
          5    1    3    3  501    0 -0.85619221509E+02  0.99151537991E+01 -0.11029272566E+03  0.14005547722E+03  0.47000000000E+01 0. -1.
        -11    1    4    4    0    0 -0.29294439827E+01 -0.18509229288E+02 -0.16643745382E+02  0.25063668351E+02  0.00000000000E+00 0.  1.
         12    1    4    4    0    0  0.41264725767E+02  0.70341921161E+02 -0.13992996715E+03  0.16196036297E+03  0.00000000000E+00 0. -1.
         -5    1    5    5    0  502  0.35511370367E+02 -0.65394942441E+02  0.25502422311E+02  0.78803676729E+02  0.47000000000E+01 0.  1.
         11    1    6    6    0    0  0.48086706248E+01 -0.30209173961E+02  0.15053425287E+00  0.30589870303E+02  0.00000000000E+00 0. -1.
        -12    1    6    6    0    0  0.69638987329E+01  0.33856270730E+02 -0.86522892349E+02  0.93171636530E+02  0.00000000000E+00 0.  1.
</event>
<event>
12    1  0.8356052E-002  0.1827539E+03  0.7818608E-02  0.1165270E+00
         21   -1    0    0  503  502  0.00000000000E+00  0.00000000000E+00  0.73935143851E+02  0.73935143851E+02  0.00000000000E+00 0.  1.
         21   -1    0    0  501  503 -0.00000000000E+00 -0.00000000000E+00 -0.69956914373E+03  0.69956914373E+03  0.00000000000E+00 0.  1.
          6    2    1    2  501    0  0.44706477247E+02 -0.43181322042E+02 -0.54327814451E+03  0.57305111487E+03  0.17138594538E+03 0.  0.
         24    2    3    3    0    0  0.93893057158E+02 -0.25538720744E+02 -0.28584211832E+03  0.31032315936E+03  0.71600378444E+02 0.  0.
         -6    2    1    2    0  502 -0.44706477247E+02  0.43181322042E+02 -0.82355855369E+02  0.20045317271E+03  0.17185951197E+03 0.  0.
        -24    2    5    5    0    0  0.13094753004E+02 -0.34065116674E+02 -0.49892632669E+02  0.98551527281E+02  0.76754309354E+02 0.  0.
          5    1    3    3  501    0 -0.49186579911E+02 -0.17642601298E+02 -0.25743602619E+03  0.26272795551E+03  0.47000000000E+01 0. -1.
        -13    1    4    4    0    0  0.74650672125E+02  0.32640886207E+01 -0.12365415522E+03  0.14447742809E+03  0.00000000000E+00 0.  1.
         14    1    4    4    0    0  0.19242385033E+02 -0.28802809365E+02 -0.16218796310E+03  0.16584573128E+03  0.00000000000E+00 0. -1.
         -5    1    5    5    0  502 -0.57801230250E+02  0.77246438716E+02 -0.32463222700E+02  0.10190164543E+03  0.47000000000E+01 0.  1.
         11    1    6    6    0    0  0.12743143275E+01  0.16723900674E+02  0.96916549145E+01  0.19371135892E+02  0.00000000000E+00 0. -1.
        -12    1    6    6    0    0  0.11820438676E+02 -0.50789017348E+02 -0.59584287584E+02  0.79180391389E+02  0.00000000000E+00 0.  1.
</event>
<event>
12    1  0.8356052E-002  0.1887761E+03  0.7818608E-02  0.1159795E+00
         21   -1    0    0  501  502  0.00000000000E+00  0.00000000000E+00  0.14504086567E+03  0.14504086567E+03  0.00000000000E+00 0. -1.
         21   -1    0    0  502  503 -0.00000000000E+00 -0.00000000000E+00 -0.32421355858E+03  0.32421355858E+03  0.00000000000E+00 0. -1.
         -6    2    1    2    0  503  0.53738705885E+02  0.56248651634E+02 -0.20581199992E+03  0.27860792882E+03  0.17091529882E+03 0.  0.
        -24    2    3    3    0    0  0.24779897009E+02  0.37109003915E+02 -0.25668481778E+02  0.95090311537E+02  0.79951078318E+02 0.  0.
          6    2    1    2  501    0 -0.53738705885E+02 -0.56248651634E+02  0.26639307006E+02  0.19064649542E+03  0.17200195993E+03 0.  0.
         24    2    5    5    0    0 -0.27696621564E+02 -0.10069422900E+03  0.34444216912E+00  0.13261969627E+03  0.81740042807E+02 0.  0.
          5    1    5    5  501    0 -0.26042084321E+02  0.44445577367E+02  0.26294864837E+02  0.58026799154E+02  0.47000000000E+01 0. -1.
        -13    1    6    6    0    0  0.10475847025E+02 -0.54055274648E+02  0.32878392598E+02  0.64130373366E+02  0.00000000000E+00 0.  1.
         14    1    6    6    0    0 -0.38172468590E+02 -0.46638954353E+02 -0.32533950429E+02  0.68489322904E+02  0.00000000000E+00 0. -1.
         -5    1    3    3    0  503  0.28958808876E+02  0.19139647719E+02 -0.18014351814E+03  0.18351761729E+03  0.47000000000E+01 0.  1.
         11    1    4    4    0    0  0.72684398461E+01 -0.77935426523E+01  0.23768063455E+02  0.26047847613E+02  0.00000000000E+00 0. -1.
        -12    1    4    4    0    0  0.17511457163E+02  0.44902546568E+02 -0.49436545233E+02  0.69042463925E+02  0.00000000000E+00 0.  1.
</event>
<event>
12    1  0.8356052E-002  0.1943349E+03  0.7818608E-02  0.1154906E+00
         21   -1    0    0  501  502  0.00000000000E+00  0.00000000000E+00  0.40292307569E+02  0.40292307569E+02  0.00000000000E+00 0. -1.
         21   -1    0    0  502  503 -0.00000000000E+00 -0.00000000000E+00 -0.95898444542E+03  0.95898444542E+03  0.00000000000E+00 0. -1.
         -6    2    1    2    0  503  0.84404970149E+02  0.24455699647E+02 -0.54657486436E+03  0.58009493749E+03  0.17333139912E+03 0.  0.
        -24    2    3    3    0    0  0.42877313477E+02  0.82862514328E+02 -0.36630798593E+03  0.38604819124E+03  0.78402838691E+02 0.  0.
          6    2    1    2  501    0 -0.84404970149E+02 -0.24455699647E+02 -0.37211727349E+03  0.41918181550E+03  0.17181341328E+03 0.  0.
         24    2    5    5    0    0 -0.44218946233E+02 -0.72809953500E+02 -0.28475536698E+03  0.31144489939E+03  0.93036024187E+02 0.  0.
          5    1    5    5  501    0 -0.40186023916E+02  0.48354253853E+02 -0.87361906513E+02  0.10773691611E+03  0.47000000000E+01 0. -1.
        -11    1    6    6    0    0 -0.33442299834E+02 -0.15168796630E+02 -0.23290063288E+02  0.43484558838E+02  0.00000000000E+00 0.  1.
         12    1    6    6    0    0 -0.10776646399E+02 -0.57641156869E+02 -0.26146530369E+03  0.26796034055E+03  0.00000000000E+00 0. -1.
         -5    1    3    3    0  503  0.41527656672E+02 -0.58406814681E+02 -0.18026687843E+03  0.19404674625E+03  0.47000000000E+01 0.  1.
         11    1    4    4    0    0  0.58180937756E+02  0.80262582118E+02 -0.25377668218E+03  0.27245129477E+03  0.00000000000E+00 0. -1.
        -12    1    4    4    0    0 -0.15303624279E+02  0.25999322096E+01 -0.11253130375E+03  0.11359689647E+03  0.00000000000E+00 0.  1.
</event>
<event>
12    1  0.8356052E-002  0.2084540E+03  0.7818608E-02  0.1143441E+00
         21   -1    0    0  503  502  0.00000000000E+00  0.00000000000E+00  0.70732805440E+02  0.70732805440E+02  0.00000000000E+00 0. -1.
         21   -1    0    0  501  503 -0.00000000000E+00 -0.00000000000E+00 -0.76273345819E+03  0.76273345819E+03  0.00000000000E+00 0. -1.
          6    2    1    2  501    0 -0.10973699955E+03 -0.47751444648E+02 -0.53766452900E+03  0.57665952473E+03  0.17067704056E+03 0.  0.
         24    2    3    3    0    0 -0.76225464511E+02  0.21384496889E+02 -0.42405004712E+03  0.43942562991E+03  0.83718717215E+02 0.  0.
         -6    2    1    2    0  502  0.10973699955E+03  0.47751444648E+02 -0.15433612375E+03  0.25680673891E+03  0.16675626680E+03 0.  0.
        -24    2    5    5    0    0  0.12821656088E+03  0.65744842475E+01 -0.83794445457E+02  0.17293031414E+03  0.80004213216E+02 0.  0.
          5    1    3    3  501    0 -0.33511535042E+02 -0.69135941537E+02 -0.11361448188E+03  0.13723389482E+03  0.47000000000E+01 0. -1.
        -11    1    4    4    0    0 -0.46714847093E+02 -0.20765352721E+02 -0.11140264735E+03  0.12257253628E+03  0.00000000000E+00 0.  1.
         12    1    4    4    0    0 -0.29510617417E+02  0.42149849610E+02 -0.31264739977E+03  0.31685309363E+03  0.00000000000E+00 0. -1.
         -5    1    5    5    0  502 -0.18479561330E+02  0.41176960400E+02 -0.70541678292E+02  0.83876424763E+02  0.47000000000E+01 0.  1.
         13    1    6    6    0    0  0.76962920598E+02  0.32486637803E+02 -0.79528514072E+02  0.11534061441E+03  0.00000000000E+00 0. -1.
        -14    1    6    6    0    0  0.51253640284E+02 -0.25912153556E+02 -0.42659313847E+01  0.57589699729E+02  0.00000000000E+00 0.  1.
</event>
<event>
12    1  0.8356052E-002  0.2169446E+03  0.7818608E-02  0.1136370E+00
         21   -1    0    0  503  502  0.00000000000E+00  0.00000000000E+00  0.23796560287E+03  0.23796560287E+03  0.00000000000E+00 0. -1.
         21   -1    0    0  501  503 -0.00000000000E+00 -0.00000000000E+00 -0.71520540628E+03  0.71520540628E+03  0.00000000000E+00 0.  1.
          6    2    1    2  501    0 -0.61801977831E+02 -0.11563997111E+03 -0.64448968550E+03  0.68002348138E+03  0.17283776533E+03 0.  0.
         24    2    3    3    0    0  0.11862610228E+02 -0.55904574409E+02 -0.48285224715E+03  0.49255737610E+03  0.78742829558E+02 0.  0.
         -6    2    1    2    0  502  0.61801977831E+02  0.11563997111E+03  0.16724988208E+03  0.27314752777E+03  0.17159534226E+03 0.  0.
        -24    2    5    5    0    0 -0.23840815152E+02  0.73272294165E+02  0.47723782231E+02  0.12005184989E+03  0.78725305410E+02 0.  0.
          5    1    3    3  501    0 -0.73664588059E+02 -0.59735396702E+02 -0.16163743835E+03  0.18746610528E+03  0.47000000000E+01 0. -1.
        -11    1    4    4    0    0 -0.66832301444E+01 -0.53356328523E+02 -0.45946356221E+03  0.46259953346E+03  0.00000000000E+00 0.  1.
         12    1    4    4    0    0  0.18545840372E+02 -0.25482458868E+01 -0.23388684946E+02  0.29957842641E+02  0.00000000000E+00 0. -1.
         -5    1    5    5    0  502  0.85642792983E+02  0.42367676946E+02  0.11952609985E+03  0.15309567788E+03  0.47000000000E+01 0.  1.
         11    1    6    6    0    0 -0.11407226298E+02  0.79396713746E+02  0.61067240940E+02  0.10081255319E+03  0.00000000000E+00 0. -1.
        -12    1    6    6    0    0 -0.12433588854E+02 -0.61244195806E+01 -0.13343458709E+02  0.19239296695E+02  0.00000000000E+00 0.  1.
</event>
<event>
12    1  0.8356052E-002  0.1915867E+03  0.7818608E-02  0.1157083E+00
         21   -1    0    0  503  502  0.00000000000E+00  0.00000000000E+00  0.24189397971E+03  0.24189397971E+03  0.00000000000E+00 0. -1.
         21   -1    0    0  501  503 -0.00000000000E+00 -0.00000000000E+00 -0.15668310172E+03  0.15668310172E+03  0.00000000000E+00 0.  1.
          6    2    1    2  501    0  0.17963163683E+02 -0.89518585373E+02  0.66715032953E+01  0.19170280728E+03  0.16843160328E+03 0.  0.
         24    2    3    3    0    0 -0.13158762781E+02 -0.22942517017E+02  0.57758857252E+02  0.10207605391E+03  0.79899455980E+02 0.  0.
         -6    2    1    2    0  502 -0.17963163683E+02  0.89518585373E+02  0.78539374690E+02  0.20687427415E+03  0.16820309020E+03 0.  0.
        -24    2    5    5    0    0  0.52227103932E+02  0.31127422263E+02  0.40185000836E+02  0.10773119779E+03  0.79338451480E+02 0.  0.
          5    1    3    3  501    0  0.31121926463E+02 -0.66576068357E+02 -0.51087353957E+02  0.89626753366E+02  0.47000000000E+01 0. -1.
        -13    1    4    4    0    0  0.23519134396E+02 -0.36807035022E+02  0.21559957340E+02  0.48710771605E+02  0.00000000000E+00 0.  1.
         14    1    4    4    0    0 -0.36677897177E+02  0.13864518005E+02  0.36198899912E+02  0.53365282306E+02  0.00000000000E+00 0. -1.
         -5    1    5    5    0  502 -0.70190267614E+02  0.58391163110E+02  0.38354373854E+02  0.99143076364E+02  0.47000000000E+01 0.  1.
         13    1    6    6    0    0  0.53452661437E+02  0.31634549914E+02  0.60892202847E+02  0.86981562015E+02  0.00000000000E+00 0. -1.
        -14    1    6    6    0    0 -0.12255575057E+01 -0.50712765086E+00 -0.20707202011E+02  0.20749635775E+02  0.00000000000E+00 0.  1.
</event>
<event>
12    1  0.8356052E-002  0.2005839E+03  0.7818608E-02  0.1150331E+00
         21   -1    0    0  503  502  0.00000000000E+00  0.00000000000E+00  0.11267420978E+03  0.11267420978E+03  0.00000000000E+00 0. -1.
         21   -1    0    0  501  503 -0.00000000000E+00 -0.00000000000E+00 -0.35074216177E+03  0.35074216177E+03  0.00000000000E+00 0. -1.
          6    2    1    2  501    0 -0.35690328318E+02 -0.83777619198E+02 -0.10038038509E+03  0.22429918369E+03  0.17872160776E+03 0.  0.
         24    2    3    3    0    0 -0.34971100662E+02 -0.25905079328E+02  0.18458684191E+02  0.92032171376E+02  0.78962944028E+02 0.  0.
         -6    2    1    2    0  502  0.35690328318E+02  0.83777619198E+02 -0.13768756690E+03  0.23911718786E+03  0.17299327860E+03 0.  0.
        -24    2    5    5    0    0 -0.21633427350E+02  0.91708081966E+02 -0.47609676017E+02  0.13194899469E+03  0.79154775418E+02 0.  0.
          5    1    3    3  501    0 -0.71922765599E+00 -0.57872539870E+02 -0.11883906928E+03  0.13226701231E+03  0.47000000000E+01 0. -1.
        -11    1    4    4    0    0 -0.51568319149E+01  0.27308314220E+02  0.13324514442E+02  0.30820117229E+02  0.00000000000E+00 0.  1.
         12    1    4    4    0    0 -0.29814268747E+02 -0.53213393548E+02  0.51341697494E+01  0.61212054146E+02  0.00000000000E+00 0. -1.
         -5    1    5    5    0  502  0.57323755668E+02 -0.79304627682E+01 -0.90077890879E+02  0.10716819318E+03  0.47000000000E+01 0.  1.
         13    1    6    6    0    0  0.21315863443E+02  0.69935205413E+02 -0.17565575375E+02  0.75192076901E+02  0.00000000000E+00 0. -1.
        -14    1    6    6    0    0 -0.42949290793E+02  0.21772876553E+02 -0.30044100642E+02  0.56756917785E+02  0.00000000000E+00 0.  1.
</event>
<event>
12    1  0.8356052E-002  0.2238013E+03  0.7818608E-02  0.1131511E+00
         21   -1    0    0  503  502  0.00000000000E+00  0.00000000000E+00  0.71043613135E+02  0.71043613135E+02  0.00000000000E+00 0.  1.
         21   -1    0    0  501  503 -0.00000000000E+00 -0.00000000000E+00 -0.13416170442E+04  0.13416170442E+04  0.00000000000E+00 0. -1.
          6    2    1    2  501    0 -0.31366754400E+02  0.13547810972E+03 -0.11263892109E+04  0.11484074560E+04  0.17535346881E+03 0.  0.
         24    2    3    3    0    0 -0.47610338545E+02  0.10413217074E+03 -0.44410195601E+03  0.46519123098E+03  0.77885048187E+02 0.  0.
         -6    2    1    2    0  502  0.31366754400E+02 -0.13547810972E+03 -0.14418422013E+03  0.26425320132E+03  0.17234405583E+03 0.  0.
        -24    2    5    5    0    0 -0.36518016011E+02 -0.72106133751E+02 -0.13432572421E+03  0.17074582550E+03  0.67660008303E+02 0.  0.
          5    1    3    3  501    0  0.16243584145E+02  0.31345938979E+02 -0.68228725489E+03  0.68321622500E+03  0.47000000000E+01 0. -1.
        -11    1    4    4    0    0  0.62162667247E+01  0.38829103793E+02 -0.59023603361E+02  0.70923388434E+02  0.00000000000E+00 0.  1.
         12    1    4    4    0    0 -0.53826605270E+02  0.65303066943E+02 -0.38507835265E+03  0.39426784255E+03  0.00000000000E+00 0. -1.
         -5    1    5    5    0  502  0.67884770411E+02 -0.63371975964E+02 -0.98584959247E+01  0.93507375823E+02  0.47000000000E+01 0.  1.
         13    1    6    6    0    0 -0.28048655906E+02 -0.15899429094E+01 -0.14908596937E+02  0.31804422322E+02  0.00000000000E+00 0. -1.
        -14    1    6    6    0    0 -0.84693601052E+01 -0.70516190842E+02 -0.11941712727E+03  0.13894140318E+03  0.00000000000E+00 0.  1.
</event>
<event>
12    1  0.8356052E-002  0.2000358E+03  0.7818608E-02  0.1150915E+00
         21   -1    0    0  501  502  0.00000000000E+00  0.00000000000E+00  0.22840282146E+03  0.22840282146E+03  0.00000000000E+00 0.  1.
         21   -1    0    0  502  503 -0.00000000000E+00 -0.00000000000E+00 -0.26209339725E+03  0.26209339725E+03  0.00000000000E+00 0.  1.
         -6    2    1    2    0  503  0.10116223593E+03 -0.13049207901E+02 -0.16213592796E+03  0.25749251213E+03  0.17207630535E+03 0.  0.
        -24    2    3    3    0    0  0.11308500713E+03 -0.20793501015E+02 -0.55746301203E+02  0.15005430091E+03  0.78664188810E+02 0.  0.
          6    2    1    2  501    0 -0.10116223593E+03  0.13049207901E+02  0.12844535218E+03  0.23300370658E+03  0.16549452854E+03 0.  0.
         24    2    5    5    0    0 -0.91807583866E+02 -0.33980610587E+02  0.13434216726E+03  0.18446325159E+03  0.79972238510E+02 0.  0.
          5    1    5    5  501    0 -0.93546520605E+01  0.47029818488E+02 -0.58968150814E+01  0.48540454986E+02  0.47000000000E+01 0. -1.
        -11    1    6    6    0    0 -0.16780353615E+02 -0.22983001626E+02  0.94728472836E+02  0.98910475669E+02  0.00000000000E+00 0.  1.
         12    1    6    6    0    0 -0.75027230252E+02 -0.10997608961E+02  0.39613694423E+02  0.85552775922E+02  0.00000000000E+00 0. -1.
         -5    1    3    3    0  503 -0.11922771207E+02  0.77442931139E+01 -0.10638962676E+03  0.10743821122E+03  0.47000000000E+01 0.  1.
         11    1    4    4    0    0  0.81813839100E+02  0.15151964430E+02 -0.96535106870E+01  0.83763217243E+02  0.00000000000E+00 0. -1.
        -12    1    4    4    0    0  0.31271168034E+02 -0.35945465445E+02 -0.46092790515E+02  0.66291083667E+02  0.00000000000E+00 0.  1.
</event>
<event>
12    1  0.8356052E-002  0.2245290E+03  0.7818608E-02  0.1131045E+00
         21   -1    0    0  501  502  0.00000000000E+00  0.00000000000E+00  0.26580185091E+03  0.26580185091E+03  0.00000000000E+00 0.  1.
         21   -1    0    0  502  503 -0.00000000000E+00 -0.00000000000E+00 -0.19005531501E+03  0.19005531501E+03  0.00000000000E+00 0. -1.
         -6    2    1    2    0  503  0.94343281188E+02 -0.10325728600E+03  0.11094747739E+02  0.22480292521E+03  0.17564321774E+03 0.  0.
        -24    2    3    3    0    0  0.32848397034E+02 -0.10784297308E+03  0.56082245174E+02  0.14832669211E+03  0.78399396284E+02 0.  0.
          6    2    1    2  501    0 -0.94343281188E+02  0.10325728600E+03  0.64651788164E+02  0.23105424071E+03  0.17217283939E+03 0.  0.
         24    2    5    5    0    0 -0.28000544624E+02  0.93950636383E+02 -0.15851909766E+02  0.12621671021E+03  0.77901362744E+02 0.  0.
          5    1    5    5  501    0 -0.66342736563E+02  0.93066496141E+01  0.80503697930E+02  0.10483753050E+03  0.47000000000E+01 0. -1.
        -13    1    6    6    0    0 -0.37764068414E+02  0.85703503670E+01  0.55244526099E+00  0.38728296688E+02  0.00000000000E+00 0.  1.
         14    1    6    6    0    0  0.97635237896E+01  0.85380286016E+02 -0.16404355027E+02  0.87488413523E+02  0.00000000000E+00 0. -1.
         -5    1    3    3    0  503  0.61494884154E+02  0.45856870853E+01 -0.44987497435E+02  0.76476233096E+02  0.47000000000E+01 0.  1.
         11    1    4    4    0    0 -0.19950960358E+02 -0.35618244397E+02 -0.32817391461E+01  0.40956928168E+02  0.00000000000E+00 0. -1.
        -12    1    4    4    0    0  0.52799357392E+02 -0.72224728685E+02  0.59363984320E+02  0.10736976394E+03  0.00000000000E+00 0.  1.
</event>
<event>
12    1  0.8356052E-002  0.2599150E+03  0.7818608E-02  0.1107485E+00
         21   -1    0    0  503  502  0.00000000000E+00  0.00000000000E+00  0.50708398155E+02  0.50708398155E+02  0.00000000000E+00 0.  1.
         21   -1    0    0  501  503 -0.00000000000E+00 -0.00000000000E+00 -0.13666523307E+04  0.13666523307E+04  0.00000000000E+00 0. -1.
          6    2    1    2  501    0 -0.15014029166E+03 -0.11936872574E+03 -0.52804771559E+03  0.58770040928E+03  0.17252936348E+03 0.  0.
         24    2    3    3    0    0 -0.16646597593E+03 -0.80113385039E+02 -0.49311145214E+03  0.53247231639E+03  0.78985998014E+02 0.  0.
         -6    2    1    2    0  502  0.15014029166E+03  0.11936872574E+03 -0.78789621699E+03  0.82966031961E+03  0.17539896615E+03 0.  0.
        -24    2    5    5    0    0  0.20255595118E+01  0.33005443609E+02 -0.28295984985E+03  0.29638795465E+03  0.81768458655E+02 0.  0.
          5    1    3    3  501    0  0.16325684275E+02 -0.39255340701E+02 -0.34936263450E+02  0.55228092891E+02  0.47000000000E+01 0. -1.
        -11    1    4    4    0    0 -0.11767419413E+03 -0.92879915411E+02 -0.35086892070E+03  0.38155326518E+03  0.00000000000E+00 0.  1.
         12    1    4    4    0    0 -0.48791781797E+02  0.12766530372E+02 -0.14224253144E+03  0.15091905121E+03  0.00000000000E+00 0. -1.
         -5    1    5    5    0  502  0.14811473215E+03  0.86363282131E+02 -0.50493636714E+03  0.53327236496E+03  0.47000000000E+01 0.  1.
         11    1    6    6    0    0  0.32980262505E+02  0.37538618084E+02 -0.22543319575E+03  0.23090468013E+03  0.00000000000E+00 0. -1.
        -12    1    6    6    0    0 -0.30954702993E+02 -0.45331744756E+01 -0.57526654106E+02  0.65483274513E+02  0.00000000000E+00 0.  1.
</event>
<event>
12    1  0.8356052E-002  0.2412207E+03  0.7818608E-02  0.1119060E+00
         21   -1    0    0  501  502  0.00000000000E+00  0.00000000000E+00  0.36484233992E+03  0.36484233992E+03  0.00000000000E+00 0. -1.
         21   -1    0    0  502  503 -0.00000000000E+00 -0.00000000000E+00 -0.16142834846E+03  0.16142834846E+03  0.00000000000E+00 0. -1.
         -6    2    1    2    0  503  0.27494081847E+02  0.16708621506E+03  0.13269762681E+03  0.27489795707E+03  0.17113298582E+03 0.  0.
        -24    2    3    3    0    0  0.16480364684E+02  0.19878813008E+02  0.18110683753E+02  0.87965940801E+02  0.82117234783E+02 0.  0.
          6    2    1    2  501    0 -0.27494081847E+02 -0.16708621506E+03  0.70716364643E+02  0.25137273132E+03  0.17179557044E+03 0.  0.
         24    2    5    5    0    0 -0.52693012550E+02 -0.65395785936E+02 -0.13884993237E+02  0.11663072139E+03  0.79729353095E+02 0.  0.
          5    1    5    5  501    0  0.25198930703E+02 -0.10169042912E+03  0.84601357880E+02  0.13474200993E+03  0.47000000000E+01 0. -1.
        -13    1    6    6    0    0 -0.37570039681E+02 -0.10889362486E+02  0.26395310595E+02  0.47188966066E+02  0.00000000000E+00 0.  1.
         14    1    6    6    0    0 -0.15122972869E+02 -0.54506423450E+02 -0.40280303832E+02  0.69441755324E+02  0.00000000000E+00 0. -1.
         -5    1    3    3    0  503  0.11013717163E+02  0.14720740205E+03  0.11458694306E+03  0.18693201626E+03  0.47000000000E+01 0.  1.
         11    1    4    4    0    0  0.38245154014E+02  0.35673095024E+02  0.27987890262E+02  0.59317649275E+02  0.00000000000E+00 0. -1.
        -12    1    4    4    0    0 -0.21764789330E+02 -0.15794282016E+02 -0.98772065090E+01  0.28648291527E+02  0.00000000000E+00 0.  1.
</event>
<event>
12    1  0.8356052E-002  0.2400394E+03  0.7818608E-02  0.1120121E+00
         21   -1    0    0  501  502  0.00000000000E+00  0.00000000000E+00  0.14139950816E+03  0.14139950816E+03  0.00000000000E+00 0. -1.
         21   -1    0    0  502  503 -0.00000000000E+00 -0.00000000000E+00 -0.11028437916E+04  0.11028437916E+04  0.00000000000E+00 0. -1.
         -6    2    1    2    0  503  0.16641901674E+03 -0.36858067930E+01 -0.97520644437E+03  0.10038097603E+04  0.16999279826E+03 0.  0.
        -24    2    3    3    0    0  0.18890038925E+03  0.17134932489E+02 -0.80549750083E+03  0.83129271532E+03  0.79021463813E+02 0.  0.
          6    2    1    2  501    0 -0.16641901674E+03  0.36858067930E+01  0.13762160898E+02  0.24043353948E+03  0.17294512288E+03 0.  0.
         24    2    5    5    0    0 -0.15015245168E+03 -0.49153086801E+02  0.35323116401E+02  0.18090611204E+03  0.80731122465E+02 0.  0.
          5    1    5    5  501    0 -0.16266565060E+02  0.52838893594E+02 -0.21560955503E+02  0.59527427437E+02  0.47000000000E+01 0. -1.
        -13    1    6    6    0    0 -0.10445762636E+03  0.73688392094E+01  0.22323974377E+02  0.10707032888E+03  0.00000000000E+00 0.  1.
         14    1    6    6    0    0 -0.45694825324E+02 -0.56521926010E+02  0.12999142024E+02  0.73835783159E+02  0.00000000000E+00 0. -1.
         -5    1    3    3    0  503 -0.22481372510E+02 -0.20820739282E+02 -0.16970894354E+03  0.17251704499E+03  0.47000000000E+01 0.  1.
         11    1    4    4    0    0  0.11234548567E+03 -0.66946392666E+01 -0.60461662254E+03  0.61500210292E+03  0.00000000000E+00 0. -1.
        -12    1    4    4    0    0  0.76554903587E+02  0.23829571756E+02 -0.20088087829E+03  0.21629061240E+03  0.00000000000E+00 0.  1.
</event>
<event>
12    1  0.8356052E-002  0.2035147E+03  0.7818608E-02  0.1147260E+00
         21   -1    0    0  503  502  0.00000000000E+00  0.00000000000E+00  0.66910191928E+03  0.66910191928E+03  0.00000000000E+00 0.  1.
         21   -1    0    0  501  503 -0.00000000000E+00 -0.00000000000E+00 -0.72209963369E+02  0.72209963369E+02  0.00000000000E+00 0.  1.
          6    2    1    2  501    0 -0.57662725281E+02 -0.82280750553E+02  0.15533458507E+03  0.25602161399E+03  0.17698339389E+03 0.  0.
         24    2    3    3    0    0 -0.13565286260E+02 -0.12195902021E+03  0.11797399329E+03  0.18575887117E+03  0.74367166966E+02 0.  0.
         -6    2    1    2    0  502  0.57662725281E+02  0.82280750553E+02  0.44155737084E+03  0.48529026865E+03  0.17446667679E+03 0.  0.
        -24    2    5    5    0    0  0.21817038985E+02  0.15818726056E+02  0.37517812519E+03  0.38464033979E+03  0.80394963108E+02 0.  0.
          5    1    3    3  501    0 -0.44097439021E+02  0.39678269657E+02  0.37360591777E+02  0.70262742824E+02  0.47000000000E+01 0. -1.
        -11    1    4    4    0    0 -0.33435255306E+02 -0.67135379014E+02  0.99476786768E+02  0.12458212760E+03  0.00000000000E+00 0.  1.
         12    1    4    4    0    0  0.19869969046E+02 -0.54823641196E+02  0.18497206523E+02  0.61176743563E+02  0.00000000000E+00 0. -1.
         -5    1    5    5    0  502  0.35845686297E+02  0.66462024497E+02  0.66379245654E+02  0.10064992886E+03  0.47000000000E+01 0.  1.
         11    1    6    6    0    0  0.28637208650E+02 -0.10643964614E+02  0.52013681502E+02  0.60322522870E+02  0.00000000000E+00 0. -1.
        -12    1    6    6    0    0 -0.68201696655E+01  0.26462690670E+02  0.32316444368E+03  0.32431781692E+03  0.00000000000E+00 0.  1.
</event>
<event>
12    1  0.8356052E-002  0.2649056E+03  0.7818608E-02  0.1104351E+00
         21   -1    0    0  503  502  0.00000000000E+00  0.00000000000E+00  0.84226298021E+03  0.84226298021E+03  0.00000000000E+00 0.  1.
         21   -1    0    0  501  503 -0.00000000000E+00 -0.00000000000E+00 -0.17398067335E+03  0.17398067335E+03  0.00000000000E+00 0. -1.
          6    2    1    2  501    0 -0.20110536861E+03 -0.20732975795E+00 -0.32933660707E+02  0.26694495687E+03  0.17242845392E+03 0.  0.
         24    2    3    3    0    0 -0.15488793794E+03 -0.24379237623E+02  0.42924331382E+02  0.17476655923E+03  0.64157863540E+02 0.  0.
         -6    2    1    2    0  502  0.20110536861E+03  0.20732975795E+00  0.70121596757E+03  0.74929869669E+03  0.17117619991E+03 0.  0.
        -24    2    5    5    0    0  0.22439296511E+03 -0.22907817069E+01  0.59633949219E+03  0.64173607400E+03  0.76465340237E+02 0.  0.
          5    1    3    3  501    0 -0.46217430676E+02  0.24171907865E+02 -0.75857992089E+02  0.92178397642E+02  0.47000000000E+01 0. -1.
        -13    1    4    4    0    0 -0.10478576836E+03  0.13104829591E+02  0.16670589334E+02  0.10690978608E+03  0.00000000000E+00 0.  1.
         14    1    4    4    0    0 -0.50102169575E+02 -0.37484067215E+02  0.26253742048E+02  0.67856773152E+02  0.00000000000E+00 0. -1.
         -5    1    5    5    0  502 -0.23287596499E+02  0.24981114649E+01  0.10487647538E+03  0.10756262268E+03  0.47000000000E+01 0.  1.
         13    1    6    6    0    0  0.14120627672E+03  0.12120443874E+02  0.27349397224E+03  0.30803420362E+03  0.00000000000E+00 0. -1.
        -14    1    6    6    0    0  0.83186688392E+02 -0.14411225581E+02  0.32284551995E+03  0.33370187039E+03  0.00000000000E+00 0.  1.
</event>
<event>
12    1  0.8356052E-002  0.2299779E+03  0.7818608E-02  0.1126904E+00
         21   -1    0    0  501  502  0.00000000000E+00  0.00000000000E+00  0.10540644348E+04  0.10540644348E+04  0.00000000000E+00 0. -1.
         21   -1    0    0  502  503 -0.00000000000E+00 -0.00000000000E+00 -0.22058344758E+03  0.22058344758E+03  0.00000000000E+00 0.  1.
         -6    2    1    2    0  503 -0.70723283372E+02  0.13447516218E+03 -0.14363924051E+03  0.27114956217E+03  0.17263980304E+03 0.  0.
        -24    2    3    3    0    0 -0.35219887105E+02  0.10047263347E+03 -0.16964163696E+03  0.21533847252E+03  0.79102352895E+02 0.  0.
          6    2    1    2  501    0  0.70723283372E+02 -0.13447516218E+03  0.97712022774E+03  0.10034983202E+04  0.17076178490E+03 0.  0.
         24    2    5    5    0    0  0.47927198014E+02 -0.28123906819E+01  0.43385589664E+03  0.44402269935E+03  0.81365180754E+02 0.  0.
          5    1    5    5  501    0  0.22796085358E+02 -0.13166277150E+03  0.54326433110E+03  0.55947562088E+03  0.47000000000E+01 0. -1.
        -11    1    6    6    0    0  0.16676110445E+02  0.36944330800E+02  0.13626539041E+03  0.14216621561E+03  0.00000000000E+00 0.  1.
         12    1    6    6    0    0  0.31251087570E+02 -0.39756721482E+02  0.29759050623E+03  0.30185648373E+03  0.00000000000E+00 0. -1.
         -5    1    3    3    0  503 -0.35503396267E+02  0.34002528716E+02  0.26002396459E+02  0.55811089643E+02  0.47000000000E+01 0.  1.
         13    1    4    4    0    0  0.17178348085E+02  0.31881358884E+02 -0.93391122199E+02  0.10016695260E+03  0.00000000000E+00 0. -1.
        -14    1    4    4    0    0 -0.52398235190E+02  0.68591274585E+02 -0.76250514766E+02  0.11517151993E+03  0.00000000000E+00 0.  1.
</event>
<event>
12    1  0.8356052E-002  0.1917765E+03  0.7818608E-02  0.1156911E+00
         21   -1    0    0  503  502  0.00000000000E+00  0.00000000000E+00  0.13035266294E+03  0.13035266294E+03  0.00000000000E+00 0. -1.
         21   -1    0    0  501  503 -0.00000000000E+00 -0.00000000000E+00 -0.28889850606E+03  0.28889850606E+03  0.00000000000E+00 0. -1.
          6    2    1    2  501    0 -0.21885066465E+02  0.81278932040E+02 -0.11201443407E+03  0.22209333493E+03  0.17231655479E+03 0.  0.
         24    2    3    3    0    0 -0.25642325103E+01  0.13377915240E+02  0.82039203001E+01  0.82600018124E+02  0.81055010833E+02 0.  0.
         -6    2    1    2    0  502  0.21885066465E+02 -0.81278932040E+02 -0.46531409045E+02  0.19715783407E+03  0.17210699747E+03 0.  0.
        -24    2    5    5    0    0  0.32940008399E+02 -0.75923293601E+01 -0.49851767703E+02  0.12242469592E+03  0.10658292457E+03 0.  0.
          5    1    3    3  501    0 -0.19320833955E+02  0.67901016800E+02 -0.12021835437E+03  0.13949331681E+03  0.47000000000E+01 0. -1.
        -11    1    4    4    0    0 -0.19649200730E+02  0.15248990905E+00 -0.31657318037E+02  0.37259899729E+02  0.00000000000E+00 0.  1.
         12    1    4    4    0    0  0.17084968220E+02  0.13225425331E+02  0.39861238337E+02  0.45340118395E+02  0.00000000000E+00 0. -1.
         -5    1    5    5    0  502 -0.11054941934E+02 -0.73686602680E+02  0.33203586583E+01  0.74733138147E+02  0.47000000000E+01 0.  1.
         11    1    6    6    0    0 -0.11062003758E+02 -0.22657753764E+01 -0.71997035705E+02  0.72877121345E+02  0.00000000000E+00 0. -1.
        -12    1    6    6    0    0  0.44002012157E+02 -0.53265539837E+01  0.22145268002E+02  0.49547574573E+02  0.00000000000E+00 0.  1.
</event>
<event>
12    1  0.8356052E-002  0.1856041E+03  0.7818608E-02  0.1162661E+00
         21   -1    0    0  503  502  0.00000000000E+00  0.00000000000E+00  0.18713110201E+03  0.18713110201E+03  0.00000000000E+00 0.  1.
         21   -1    0    0  501  503 -0.00000000000E+00 -0.00000000000E+00 -0.34618765529E+03  0.34618765529E+03  0.00000000000E+00 0.  1.
          6    2    1    2  501    0  0.19794034610E+02 -0.66176953036E+02 -0.26249778428E+03  0.32148713928E+03  0.17227217143E+03 0.  0.
         24    2    3    3    0    0 -0.29316863475E+02 -0.90512488974E+02 -0.21135552311E+03  0.24637575867E+03  0.83533634928E+02 0.  0.
         -6    2    1    2    0  502 -0.19794034610E+02  0.66176953036E+02  0.10344123100E+03  0.21183161803E+03  0.17146822798E+03 0.  0.
        -24    2    5    5    0    0 -0.68972664949E+02  0.78603380510E+02  0.63216444920E+02  0.14692339669E+03  0.81574785628E+02 0.  0.
          5    1    3    3  501    0  0.49110898085E+02  0.24335535937E+02 -0.51142261165E+02  0.75111380610E+02  0.47000000000E+01 0. -1.
        -11    1    4    4    0    0 -0.40790461945E+02 -0.44436711926E+02 -0.50531935399E+02  0.78689005888E+02  0.00000000000E+00 0.  1.
         12    1    4    4    0    0  0.11473598470E+02 -0.46075777048E+02 -0.16082358771E+03  0.16768675278E+03  0.00000000000E+00 0. -1.
         -5    1    5    5    0  502  0.49178630340E+02 -0.12426427474E+02  0.40224786078E+02  0.64908221335E+02  0.47000000000E+01 0.  1.
         11    1    6    6    0    0 -0.38827423761E+02  0.20284558237E+02 -0.13606296837E+02  0.45871161446E+02  0.00000000000E+00 0. -1.
        -12    1    6    6    0    0 -0.30145241188E+02  0.58318822273E+02  0.76822741758E+02  0.10105223525E+03  0.00000000000E+00 0.  1.
</event>
<event>
12    1  0.8356052E-002  0.1751342E+03  0.7818608E-02  0.1172882E+00
         21   -1    0    0  501  502  0.00000000000E+00  0.00000000000E+00  0.14110925730E+03  0.14110925730E+03  0.00000000000E+00 0.  1.
         21   -1    0    0  502  503 -0.00000000000E+00 -0.00000000000E+00 -0.22090935153E+03  0.22090935153E+03  0.00000000000E+00 0.  1.
         -6    2    1    2    0  503 -0.55012347757E+01  0.29298493123E+02 -0.66864700111E+02  0.18640730615E+03  0.17142966599E+03 0.  0.
        -24    2    3    3    0    0  0.27366002968E+02  0.61301691931E+02  0.10152389940E+01  0.10434491413E+03  0.79875120298E+02 0.  0.
          6    2    1    2  501    0  0.55012347757E+01 -0.29298493123E+02 -0.12935394121E+02  0.17561130269E+03  0.17257850366E+03 0.  0.
         24    2    5    5    0    0  0.25077291707E+01 -0.86327805566E+02 -0.17046335175E+02  0.11816312265E+03  0.78823646776E+02 0.  0.
          5    1    5    5  501    0  0.29935056050E+01  0.57029312443E+02  0.41109410536E+01  0.57448180039E+02  0.47000000000E+01 0. -1.
        -11    1    6    6    0    0 -0.16296481137E+02 -0.69720702889E+02  0.19155517182E+02  0.74118051426E+02  0.00000000000E+00 0.  1.
         12    1    6    6    0    0  0.18804210308E+02 -0.16607102677E+02 -0.36201852357E+02  0.44045071219E+02  0.00000000000E+00 0. -1.
         -5    1    3    3    0  503 -0.32867237743E+02 -0.32003198808E+02 -0.67879939105E+02  0.82062392018E+02  0.47000000000E+01 0.  1.
         11    1    4    4    0    0  0.24977010475E+02  0.17207655151E+02  0.36670399405E+02  0.47588576787E+02  0.00000000000E+00 0. -1.
        -12    1    4    4    0    0  0.23889924930E+01  0.44094036780E+02 -0.35655160411E+02  0.56756337343E+02  0.00000000000E+00 0.  1.
</event>
<event>
12    1  0.8356052E-002  0.2357880E+03  0.7818608E-02  0.1122888E+00
         21   -1    0    0  501  502  0.00000000000E+00  0.00000000000E+00  0.64146726709E+03  0.64146726709E+03  0.00000000000E+00 0.  1.
         21   -1    0    0  502  503 -0.00000000000E+00 -0.00000000000E+00 -0.86154077961E+02  0.86154077961E+02  0.00000000000E+00 0. -1.
         -6    2    1    2    0  503  0.35591391842E+02  0.15493887462E+03  0.27108261961E+03  0.35927952083E+03  0.17413553743E+03 0.  0.
        -24    2    3    3    0    0  0.61328530513E+02  0.34823054468E+02  0.88913312894E+02  0.13951155941E+03  0.81142246846E+02 0.  0.
          6    2    1    2  501    0 -0.35591391842E+02 -0.15493887462E+03  0.28423056952E+03  0.36834182422E+03  0.17209265172E+03 0.  0.
         24    2    5    5    0    0  0.21726756465E+02 -0.15690533410E+03  0.21971851526E+03  0.28189454414E+03  0.78083111188E+02 0.  0.
          5    1    5    5  501    0 -0.57318148307E+02  0.19664594784E+01  0.64512054256E+02  0.86447280076E+02  0.47000000000E+01 0. -1.
        -11    1    6    6    0    0 -0.22184836512E+02 -0.16704145394E+02  0.51823476763E+02  0.58795137454E+02  0.00000000000E+00 0.  1.
         12    1    6    6    0    0  0.43911592977E+02 -0.14020118870E+03  0.16789503850E+03  0.22309940669E+03  0.00000000000E+00 0. -1.
         -5    1    3    3    0  503 -0.25737138671E+02  0.12011582015E+03  0.18216930671E+03  0.21976796142E+03  0.47000000000E+01 0.  1.
         13    1    4    4    0    0  0.34664246193E+02  0.40318847000E+02  0.75384774790E+01  0.53703333511E+02  0.00000000000E+00 0. -1.
        -14    1    4    4    0    0  0.26664284320E+02 -0.54957925322E+01  0.81374835415E+02  0.85808225903E+02  0.00000000000E+00 0.  1.
</event>
<event>
12    1  0.8356052E-002  0.2764466E+03  0.7818608E-02  0.1097679E+00
         21   -1    0    0  501  502  0.00000000000E+00  0.00000000000E+00  0.70786029923E+02  0.70786029923E+02  0.00000000000E+00 0.  1.
         21   -1    0    0  502  503 -0.00000000000E+00 -0.00000000000E+00 -0.10787279217E+04  0.10787279217E+04  0.00000000000E+00 0. -1.
         -6    2    1    2    0  503  0.15394285857E+02 -0.21642868155E+03 -0.50020027040E+03  0.57139259424E+03  0.17091175501E+03 0.  0.
        -24    2    3    3    0    0 -0.59190423752E+01 -0.12543775930E+03 -0.42739484301E+03  0.45283321607E+03  0.81375077419E+02 0.  0.
          6    2    1    2  501    0 -0.15394285857E+02  0.21642868155E+03 -0.50774162141E+03  0.57812135742E+03  0.17130204775E+03 0.  0.
         24    2    5    5    0    0  0.21131603274E+01  0.34685511263E+02 -0.10850983266E+03  0.13909379364E+03  0.79781887077E+02 0.  0.
          5    1    5    5  501    0 -0.17507446184E+02  0.18174317029E+03 -0.39923178875E+03  0.43902756379E+03  0.47000000000E+01 0. -1.
        -13    1    6    6    0    0  0.11951356180E+02  0.52190577179E+02 -0.37676335685E+02  0.65469057817E+02  0.00000000000E+00 0.  1.
         14    1    6    6    0    0 -0.98381958528E+01 -0.17505065916E+02 -0.70833496978E+02  0.73624735820E+02  0.00000000000E+00 0. -1.
         -5    1    3    3    0  503  0.21313328232E+02 -0.90990922256E+02 -0.72805427396E+02  0.11855937817E+03  0.47000000000E+01 0.  1.
         11    1    4    4    0    0  0.12583530165E+02 -0.12968606481E+03 -0.36180371230E+03  0.38455005769E+03  0.00000000000E+00 0. -1.
        -12    1    4    4    0    0 -0.18502572541E+02  0.42483055109E+01 -0.65591130710E+02  0.68283158378E+02  0.00000000000E+00 0.  1.
</event>
<event>
12    1  0.8356052E-002  0.2046203E+03  0.7818608E-02  0.1146053E+00
         21   -1    0    0  501  502  0.00000000000E+00  0.00000000000E+00  0.56434535532E+03  0.56434535532E+03  0.00000000000E+00 0.  1.
         21   -1    0    0  502  503 -0.00000000000E+00 -0.00000000000E+00 -0.19964045339E+03  0.19964045339E+03  0.00000000000E+00 0. -1.
         -6    2    1    2    0  503 -0.10142133305E+03  0.40881790157E+02 -0.12065879199E+03  0.23754576713E+03  0.17295039703E+03 0.  0.
        -24    2    3    3    0    0 -0.99918942610E+01 -0.31622116822E+02 -0.59426167041E+02  0.10568340266E+03  0.80856144147E+02 0.  0.
          6    2    1    2  501    0  0.10142133305E+03 -0.40881790157E+02  0.48536369392E+03  0.52644004157E+03  0.17205695114E+03 0.  0.
         24    2    5    5    0    0 -0.41533309432E+01 -0.10826977694E+02  0.11050399754E+03  0.13581082685E+03  0.78095925716E+02 0.  0.
          5    1    5    5  501    0  0.10557466399E+03 -0.30054812463E+02  0.37485969637E+03  0.39062921472E+03  0.47000000000E+01 0. -1.
        -11    1    6    6    0    0  0.86587306652E+01  0.22722911217E+02  0.92489892703E+02  0.95633072538E+02  0.00000000000E+00 0.  1.
         12    1    6    6    0    0 -0.12812061608E+02 -0.33549888911E+02  0.18014104841E+02  0.40177754315E+02  0.00000000000E+00 0. -1.
         -5    1    3    3    0  503 -0.91429438788E+02  0.72503906979E+02 -0.61232624950E+02  0.13186236447E+03  0.47000000000E+01 0.  1.
         11    1    4    4    0    0 -0.32794375857E+01 -0.40874780244E+02 -0.75524946486E+02  0.85939047659E+02  0.00000000000E+00 0. -1.
        -12    1    4    4    0    0 -0.67124566753E+01  0.92526634214E+01  0.16098779444E+02  0.19744355006E+02  0.00000000000E+00 0.  1.
</event>
<event>
12    1  0.8356052E-002  0.2633671E+03  0.7818608E-02  0.1105207E+00
         21   -1    0    0  501  502  0.00000000000E+00  0.00000000000E+00  0.10705195730E+04  0.10705195730E+04  0.00000000000E+00 0.  1.
         21   -1    0    0  502  503 -0.00000000000E+00 -0.00000000000E+00 -0.66897924475E+02  0.66897924475E+02  0.00000000000E+00 0.  1.
         -6    2    1    2    0  503  0.24628094129E+02 -0.19746660494E+03  0.39862078491E+03  0.47776640889E+03  0.17251842862E+03 0.  0.
        -24    2    3    3    0    0 -0.26169685790E+02 -0.43151530537E+02  0.20020879401E+03  0.22128450940E+03  0.79601293080E+02 0.  0.
          6    2    1    2  501    0 -0.24628094129E+02  0.19746660494E+03  0.60500086357E+03  0.65965108854E+03  0.17179613095E+03 0.  0.
         24    2    5    5    0    0 -0.75462309485E+02  0.90192422044E+02  0.28304880304E+03  0.31647899317E+03  0.78823188625E+02 0.  0.
          5    1    5    5  501    0  0.50834215356E+02  0.10727418289E+03  0.32195206053E+03  0.34317209537E+03  0.47000000000E+01 0. -1.
        -11    1    6    6    0    0 -0.28871756362E+02  0.65420377682E+02  0.23309660914E+03  0.24381844336E+03  0.00000000000E+00 0.  1.
         12    1    6    6    0    0 -0.46590553123E+02  0.24772044362E+02  0.49952193905E+02  0.72660549806E+02  0.00000000000E+00 0. -1.
         -5    1    3    3    0  503  0.50797779919E+02 -0.15431507440E+03  0.19841199090E+03  0.25648189949E+03  0.47000000000E+01 0.  1.
         11    1    4    4    0    0 -0.50559165094E+02 -0.11367584142E+02  0.13672449467E+03  0.14621572620E+03  0.00000000000E+00 0. -1.
        -12    1    4    4    0    0  0.24389479304E+02 -0.31783946395E+02  0.63484299333E+02  0.75068783199E+02  0.00000000000E+00 0.  1.
</event>
<event>
12    1  0.8356052E-002  0.2083207E+03  0.7818608E-02  0.1142906E+00
         21   -1    0    0  501  502  0.00000000000E+00  0.00000000000E+00  0.72312081981E+02  0.72312081981E+02  0.00000000000E+00 0.  1.
         21   -1    0    0  502  503 -0.00000000000E+00 -0.00000000000E+00 -0.73586888672E+03  0.73586888672E+03  0.00000000000E+00 0.  1.
         -6    2    1    2    0  503  0.78792211569E+02  0.85003093754E+02 -0.50534074750E+03  0.54658998607E+03  0.17308264859E+03 0.  0.
        -24    2    3    3    0    0  0.36587784688E+02  0.15640955208E+02 -0.10376862168E+03  0.13686497811E+03  0.79879846776E+02 0.  0.
          6    2    1    2  501    0 -0.78792211569E+02 -0.85003093754E+02 -0.15821605725E+03  0.26159098263E+03  0.17310049934E+03 0.  0.
         24    2    5    5    0    0 -0.48055727443E+02  0.13729940829E+02 -0.75180049938E+02  0.12888826192E+03  0.91990651356E+02 0.  0.
          5    1    5    5  501    0 -0.30736484126E+02 -0.98733034583E+02 -0.83036007308E+02  0.13270272071E+03  0.47000000000E+01 0. -1.
        -13    1    6    6    0    0 -0.73419677280E+02  0.20478412534E+02 -0.66758779018E+02  0.10132398022E+03  0.00000000000E+00 0.  1.
         14    1    6    6    0    0  0.25363949837E+02 -0.67484717045E+01 -0.84212709197E+01  0.27564281699E+02  0.00000000000E+00 0. -1.
         -5    1    3    3    0  503  0.42204426882E+02  0.69362138545E+02 -0.40157212582E+03  0.40972500796E+03  0.47000000000E+01 0.  1.
         13    1    4    4    0    0 -0.90028549672E+01  0.50295181531E+00 -0.84703147483E+02  0.85181732500E+02  0.00000000000E+00 0. -1.
        -14    1    4    4    0    0  0.45590639655E+02  0.15138003393E+02 -0.19065474192E+02  0.51683245613E+02  0.00000000000E+00 0.  1.
</event>
<event>
12    1  0.8356052E-002  0.2016607E+03  0.7818608E-02  0.1150805E+00
         21   -1    0    0  501  502  0.00000000000E+00  0.00000000000E+00  0.20966416828E+02  0.20966416828E+02  0.00000000000E+00 0.  1.
         21   -1    0    0  502  503 -0.00000000000E+00 -0.00000000000E+00 -0.20646109053E+04  0.20646109053E+04  0.00000000000E+00 0.  1.
         -6    2    1    2    0  503 -0.26429082664E+02  0.78541849263E+02 -0.13458087945E+04  0.13591878214E+04  0.17123931779E+03 0.  0.
        -24    2    3    3    0    0 -0.69677657390E+02  0.84189909881E+02 -0.77667993865E+03  0.78837078908E+03  0.79711085277E+02 0.  0.
          6    2    1    2  501    0  0.26429082664E+02 -0.78541849263E+02 -0.69783569395E+03  0.72638950072E+03  0.18384703563E+03 0.  0.
         24    2    5    5    0    0  0.61599212160E+02  0.12939858801E+02 -0.39760438581E+03  0.41053072008E+03  0.80525285659E+02 0.  0.
          5    1    5    5  501    0 -0.35170129497E+02 -0.91481708064E+02 -0.30023130814E+03  0.31585878064E+03  0.47000000000E+01 0. -1.
        -11    1    6    6    0    0  0.58250686327E+02 -0.22852089098E+02 -0.30146212005E+03  0.30788759355E+03  0.00000000000E+00 0.  1.
         12    1    6    6    0    0  0.33485258333E+01  0.35791947899E+02 -0.96142265757E+02  0.10264312653E+03  0.00000000000E+00 0. -1.
         -5    1    3    3    0  503  0.43248574727E+02 -0.56480606175E+01 -0.56912885587E+03  0.57081703232E+03  0.47000000000E+01 0.  1.
         13    1    4    4    0    0 -0.82555440456E+01  0.19150832752E+02 -0.42432210581E+03  0.42483427108E+03  0.00000000000E+00 0. -1.
        -14    1    4    4    0    0 -0.61422113345E+02  0.65039077129E+02 -0.35235783283E+03  0.36353651800E+03  0.00000000000E+00 0.  1.
</event>
<event>
12    1  0.8356052E-002  0.1763416E+03  0.7818608E-02  0.1171745E+00
         21   -1    0    0  501  502  0.00000000000E+00  0.00000000000E+00  0.13314715155E+03  0.13314715155E+03  0.00000000000E+00 0. -1.
         21   -1    0    0  502  503 -0.00000000000E+00 -0.00000000000E+00 -0.38958746216E+03  0.38958746216E+03  0.00000000000E+00 0. -1.
         -6    2    1    2    0  503  0.41007449595E+02 -0.27161481619E+01 -0.29431203202E+03  0.34237208323E+03  0.17002965271E+03 0.  0.
        -24    2    3    3    0    0  0.28703551773E+01  0.40988141305E+02 -0.25331477480E+03  0.27118663536E+03  0.87667265275E+02 0.  0.
          6    2    1    2  501    0 -0.41007449595E+02  0.27161481619E+01  0.37871721408E+02  0.18036253048E+03  0.17148582080E+03 0.  0.
         24    2    5    5    0    0  0.11774733859E+02 -0.17172412607E+02 -0.32558299398E+02  0.90007721139E+02  0.81288442553E+02 0.  0.
          5    1    5    5  501    0 -0.52782183454E+02  0.19888560769E+02  0.70430020807E+02  0.90354809338E+02  0.47000000000E+01 0. -1.
        -13    1    6    6    0    0 -0.46854455956E+01  0.31269606434E+02 -0.53745780098E+01  0.32072227484E+02  0.00000000000E+00 0.  1.
         14    1    6    6    0    0  0.16460179454E+02 -0.48442019042E+02 -0.27183721388E+02  0.57935493655E+02  0.00000000000E+00 0. -1.
         -5    1    3    3    0  503  0.38137094418E+02 -0.43704289467E+02 -0.40997257222E+02  0.71185447868E+02  0.47000000000E+01 0.  1.
         13    1    4    4    0    0  0.44197389616E+02  0.12237657728E+02 -0.10559674555E+03  0.11512533252E+03  0.00000000000E+00 0. -1.
        -14    1    4    4    0    0 -0.41327034439E+02  0.28750483577E+02 -0.14771802925E+03  0.15606130285E+03  0.00000000000E+00 0.  1.
</event>
<event>
12    1  0.8356052E-002  0.2042837E+03  0.7818608E-02  0.1146348E+00
         21   -1    0    0  501  502  0.00000000000E+00  0.00000000000E+00  0.55840764461E+03  0.55840764461E+03  0.00000000000E+00 0.  1.
         21   -1    0    0  502  503 -0.00000000000E+00 -0.00000000000E+00 -0.17995798433E+03  0.17995798433E+03  0.00000000000E+00 0.  1.
         -6    2    1    2    0  503 -0.69560133831E+02 -0.84731855323E+02 -0.93652807787E+02  0.22396058336E+03  0.17137501267E+03 0.  0.
        -24    2    3    3    0    0 -0.49398095995E+02  0.18174314294E+02 -0.36664213444E+02  0.10452031628E+03  0.82521235929E+02 0.  0.
          6    2    1    2  501    0  0.69560133831E+02  0.84731855323E+02  0.47210246807E+03  0.51440504559E+03  0.17237665459E+03 0.  0.
         24    2    5    5    0    0  0.56229825328E+02  0.91351855177E+02  0.19381363015E+03  0.23567885587E+03  0.80460208636E+02 0.  0.
          5    1    5    5  501    0  0.13330308504E+02 -0.66199998541E+01  0.27828883792E+03  0.27872618971E+03  0.47000000000E+01 0. -1.
        -11    1    6    6    0    0  0.49677883453E+02  0.88887557185E+01  0.87002086819E+02  0.10057964602E+03  0.00000000000E+00 0.  1.
         12    1    6    6    0    0  0.65519418747E+01  0.82463099459E+02  0.10681154333E+03  0.13509920985E+03  0.00000000000E+00 0. -1.
         -5    1    3    3    0  503 -0.20162037836E+02 -0.10290616962E+03 -0.56988594343E+02  0.11944026708E+03  0.47000000000E+01 0.  1.
         13    1    4    4    0    0 -0.11667432408E+02  0.20840860165E+02  0.23465627900E+02  0.33482922874E+02  0.00000000000E+00 0. -1.
        -14    1    4    4    0    0 -0.37730663587E+02 -0.26665458710E+01 -0.60129841343E+02  0.71037393404E+02  0.00000000000E+00 0.  1.
</event>
<event>
12    1  0.8356052E-002  0.2440214E+03  0.7818608E-02  0.1117750E+00
         21   -1    0    0  503  502  0.00000000000E+00  0.00000000000E+00  0.40367123615E+03  0.40367123615E+03  0.00000000000E+00 0.  1.
         21   -1    0    0  501  503 -0.00000000000E+00 -0.00000000000E+00 -0.15729811285E+03  0.15729811285E+03  0.00000000000E+00 0. -1.
          6    2    1    2  501    0 -0.87524125462E+02 -0.14663603697E+03  0.44812306872E+02  0.24446787394E+03  0.16909700962E+03 0.  0.
         24    2    3    3    0    0 -0.21894932946E+01 -0.36530224236E+02  0.53302284569E+02  0.10482741001E+03  0.82513036455E+02 0.  0.
         -6    2    1    2    0  502  0.87524125462E+02  0.14663603697E+03  0.20156081643E+03  0.31650147507E+03  0.17430955546E+03 0.  0.
        -24    2    5    5    0    0 -0.16390706450E+02  0.77513034483E+02  0.60663237753E+02  0.12821844492E+03  0.80517174757E+02 0.  0.
          5    1    3    3  501    0 -0.85334632167E+02 -0.11010581273E+03 -0.84899776971E+01  0.13964046393E+03  0.47000000000E+01 0. -1.
        -13    1    4    4    0    0  0.29771778228E+01  0.19920579275E+02  0.42624405630E+02  0.47143748490E+02  0.00000000000E+00 0.  1.
         14    1    4    4    0    0 -0.51666711174E+01 -0.56450803510E+02  0.10677878940E+02  0.57683661517E+02  0.00000000000E+00 0. -1.
         -5    1    5    5    0  502  0.10391483191E+03  0.69123002487E+02  0.14089757867E+03  0.18828303014E+03  0.47000000000E+01 0.  1.
         13    1    6    6    0    0 -0.61350953570E+01 -0.77903975320E+01  0.38125404470E+02  0.39393859353E+02  0.00000000000E+00 0. -1.
        -14    1    6    6    0    0 -0.10255611093E+02  0.85303432015E+02  0.22537833283E+02  0.88824585569E+02  0.00000000000E+00 0.  1.
</event>
<event>
12    1  0.8356052E-002  0.1844378E+03  0.7818608E-02  0.1163646E+00
         21   -1    0    0  503  502  0.00000000000E+00  0.00000000000E+00  0.12436153644E+03  0.12436153644E+03  0.00000000000E+00 0.  1.
         21   -1    0    0  501  503 -0.00000000000E+00 -0.00000000000E+00 -0.35691910434E+03  0.35691910434E+03  0.00000000000E+00 0.  1.
          6    2    1    2  501    0 -0.58344519399E+02  0.29785802625E+02 -0.23296947937E+03  0.29713982772E+03  0.17241236010E+03 0.  0.
         24    2    3    3    0    0 -0.49450618736E+02 -0.38408838648E+02 -0.19223878852E+03  0.21707304469E+03  0.79021214488E+02 0.  0.
         -6    2    1    2    0  502  0.58344519399E+02 -0.29785802625E+02  0.41191147020E+00  0.18414081306E+03  0.17209413813E+03 0.  0.
        -24    2    5    5    0    0 -0.30495333562E+02 -0.39791265122E+02  0.52506437143E+01  0.94485182539E+02  0.79916020365E+02 0.  0.
          5    1    3    3  501    0 -0.88939006629E+01  0.68194641273E+02 -0.40730690856E+02  0.80066783031E+02  0.47000000000E+01 0. -1.
        -13    1    4    4    0    0  0.21219862061E+02 -0.23819593808E+01 -0.45685003900E+02  0.50428918863E+02  0.00000000000E+00 0.  1.
         14    1    4    4    0    0 -0.70670480796E+02 -0.36026879267E+02 -0.14655378462E+03  0.16664412582E+03  0.00000000000E+00 0. -1.
         -5    1    5    5    0  502  0.88839852960E+02  0.10005462496E+02 -0.48387322441E+01  0.89655630518E+02  0.47000000000E+01 0.  1.
         13    1    6    6    0    0 -0.14945674726E+02 -0.63903765991E+02  0.27713136599E+01  0.65686716163E+02  0.00000000000E+00 0. -1.
        -14    1    6    6    0    0 -0.15549658836E+02  0.24112500869E+02  0.24793300544E+01  0.28798466376E+02  0.00000000000E+00 0.  1.
</event>
<event>
12    1  0.8356052E-002  0.1921221E+03  0.7818608E-02  0.1157039E+00
         21   -1    0    0  503  502  0.00000000000E+00  0.00000000000E+00  0.22946732538E+03  0.22946732538E+03  0.00000000000E+00 0.  1.
         21   -1    0    0  501  503 -0.00000000000E+00 -0.00000000000E+00 -0.17100359424E+03  0.17100359424E+03  0.00000000000E+00 0.  1.
          6    2    1    2  501    0 -0.50935973623E+01 -0.83900550017E+02 -0.23819002248E+02  0.19147005177E+03  0.17037660881E+03 0.  0.
         24    2    3    3    0    0  0.50612364051E+02 -0.83747879464E+02 -0.27813907504E+02  0.13542340412E+03  0.89389967126E+02 0.  0.
         -6    2    1    2    0  502  0.50935973623E+01  0.83900550017E+02  0.82282733392E+02  0.20900086785E+03  0.17275898680E+03 0.  0.
        -24    2    5    5    0    0  0.16607352758E+02 -0.17529721597E+02  0.92759197987E+01  0.83411252853E+02  0.79298796394E+02 0.  0.
          5    1    3    3  501    0 -0.55705961414E+02 -0.15267055371E+00  0.39949052566E+01  0.56046647655E+02  0.47000000000E+01 0. -1.
        -13    1    4    4    0    0 -0.17349069998E+02 -0.56510145523E+02 -0.86720735783E+01  0.59746059594E+02  0.00000000000E+00 0.  1.
         14    1    4    4    0    0  0.67961434049E+02 -0.27237733941E+02 -0.19141833926E+02  0.75677344525E+02  0.00000000000E+00 0. -1.
         -5    1    5    5    0  502 -0.11513755395E+02  0.10143027161E+03  0.73006813594E+02  0.12558961499E+03  0.47000000000E+01 0.  1.
         13    1    6    6    0    0 -0.18134167148E+02 -0.37113070559E+02 -0.37016307998E+01  0.41472039919E+02  0.00000000000E+00 0. -1.
        -14    1    6    6    0    0  0.34741519906E+02  0.19583348963E+02  0.12977550598E+02  0.41939212934E+02  0.00000000000E+00 0.  1.
</event>
<event>
12    1  0.8356052E-002  0.1898779E+03  0.7818608E-02  0.1158767E+00
         21   -1    0    0  503  502  0.00000000000E+00  0.00000000000E+00  0.50465882796E+03  0.50465882796E+03  0.00000000000E+00 0.  1.
         21   -1    0    0  501  503 -0.00000000000E+00 -0.00000000000E+00 -0.93147923651E+02  0.93147923651E+02  0.00000000000E+00 0.  1.
          6    2    1    2  501    0 -0.68659257228E+02  0.34870087457E+02  0.60747375228E+02  0.19935860396E+03  0.17356149565E+03 0.  0.
         24    2    3    3    0    0 -0.10563205871E+03  0.38447435246E+02  0.12200929798E+02  0.13805091414E+03  0.79201357959E+02 0.  0.
         -6    2    1    2    0  502  0.68659257228E+02 -0.34870087457E+02  0.35076352908E+03  0.39844814765E+03  0.17261476307E+03 0.  0.
        -24    2    5    5    0    0  0.59577240184E+02  0.51061828985E+02  0.20704145347E+03  0.23068372260E+03  0.64746107891E+02 0.  0.
          5    1    3    3  501    0  0.36972801486E+02 -0.35773477895E+01  0.48546445430E+02  0.61307689818E+02  0.47000000000E+01 0. -1.
        -13    1    4    4    0    0 -0.14253529088E+02 -0.31230205824E+01 -0.26668017495E+02  0.30399005018E+02  0.00000000000E+00 0.  1.
         14    1    4    4    0    0 -0.91378529626E+02  0.41570455829E+02  0.38868947293E+02  0.10765190912E+03  0.00000000000E+00 0. -1.
         -5    1    5    5    0  502  0.90820170441E+01 -0.85931916442E+02  0.14372207561E+03  0.16776442506E+03  0.47000000000E+01 0.  1.
         13    1    6    6    0    0 -0.49313645377E+01 -0.11066985430E+02  0.27122525152E+02  0.29705687896E+02  0.00000000000E+00 0. -1.
        -14    1    6    6    0    0  0.64508604722E+02  0.62128814415E+02  0.17991892832E+03  0.20097803470E+03  0.00000000000E+00 0.  1.
</event>
<event>
12    1  0.8356052E-002  0.4023173E+03  0.7818608E-02  0.1043037E+00
         21   -1    0    0  503  502  0.00000000000E+00  0.00000000000E+00  0.90256086125E+03  0.90256086125E+03  0.00000000000E+00 0.  1.
         21   -1    0    0  501  503 -0.00000000000E+00 -0.00000000000E+00 -0.39187997267E+03  0.39187997267E+03  0.00000000000E+00 0. -1.
          6    2    1    2  501    0  0.29309344622E+03 -0.21611736638E+03 -0.22173596028E+03  0.45880116009E+03  0.16947325497E+03 0.  0.
         24    2    3    3    0    0  0.19351599337E+03 -0.72825032900E+02 -0.85929941448E+02  0.23763668125E+03  0.79594675255E+02 0.  0.
         -6    2    1    2    0  502 -0.29309344622E+03  0.21611736638E+03  0.73241684886E+03  0.83563967383E+03  0.17102262925E+03 0.  0.
        -24    2    5    5    0    0 -0.29624925833E+03  0.18312053648E+03  0.71150006733E+03  0.79616371047E+03  0.79671538875E+02 0.  0.
          5    1    3    3  501    0  0.99577452842E+02 -0.14329233348E+03 -0.13580601883E+03  0.22116447884E+03  0.47000000000E+01 0. -1.
        -11    1    4    4    0    0 -0.70870823613E+01 -0.70836633574E+01 -0.71736305348E+01  0.12323392309E+02  0.00000000000E+00 0.  1.
         12    1    4    4    0    0  0.20060307574E+03 -0.65741369542E+02 -0.78756310913E+02  0.22531328894E+03  0.00000000000E+00 0. -1.
         -5    1    5    5    0  502  0.31558121177E+01  0.32996829906E+02  0.20916781529E+02  0.39475963364E+02  0.47000000000E+01 0.  1.
         13    1    6    6    0    0 -0.12721018377E+03  0.37261993347E+02  0.30043817372E+03  0.32838085089E+03  0.00000000000E+00 0. -1.
        -14    1    6    6    0    0 -0.16903907456E+03  0.14585854313E+03  0.41106189361E+03  0.46778285958E+03  0.00000000000E+00 0.  1.
</event>
<event>
12    1  0.8356052E-002  0.1979878E+03  0.7818608E-02  0.1151630E+00
         21   -1    0    0  501  502  0.00000000000E+00  0.00000000000E+00  0.28343166985E+02  0.28343166985E+02  0.00000000000E+00 0.  1.
         21   -1    0    0  502  503 -0.00000000000E+00 -0.00000000000E+00 -0.20122690785E+04  0.20122690785E+04  0.00000000000E+00 0. -1.
         -6    2    1    2    0  503  0.94963735080E+02 -0.53684486495E+01 -0.15666681706E+04  0.15791289829E+04  0.17364405132E+03 0.  0.
        -24    2    3    3    0    0  0.10515823782E+03  0.47128309951E+02 -0.12657592606E+04  0.12734688780E+04  0.79354552771E+02 0.  0.
          6    2    1    2  501    0 -0.94963735080E+02  0.53684486495E+01 -0.41725774090E+03  0.46148326259E+03  0.17267266169E+03 0.  0.
         24    2    5    5    0    0 -0.13087525923E+02 -0.38913946780E+02 -0.11766145719E+03  0.14772433064E+03  0.79326419090E+02 0.  0.
          5    1    5    5  501    0 -0.81876209157E+02  0.44282395429E+02 -0.29959628370E+03  0.31375893195E+03  0.47000000000E+01 0. -1.
        -11    1    6    6    0    0 -0.44545779442E+02 -0.11301484668E+02 -0.47991740800E+02  0.66447401807E+02  0.00000000000E+00 0.  1.
         12    1    6    6    0    0  0.31458253520E+02 -0.27612462111E+02 -0.69669716393E+02  0.81276928834E+02  0.00000000000E+00 0. -1.
         -5    1    3    3    0  503 -0.10194502737E+02 -0.52496758600E+02 -0.30090891004E+03  0.30566010484E+03  0.47000000000E+01 0.  1.
         11    1    4    4    0    0  0.72179062503E+01 -0.15435578348E+02 -0.34252256672E+03  0.34294615315E+03  0.00000000000E+00 0. -1.
        -12    1    4    4    0    0  0.97940331567E+02  0.62563888299E+02 -0.92323669384E+03  0.93052272488E+03  0.00000000000E+00 0.  1.
</event>
<event>
12    1  0.8356052E-002  0.1779578E+03  0.7818608E-02  0.1170247E+00
         21   -1    0    0  503  502  0.00000000000E+00  0.00000000000E+00  0.45139873701E+03  0.45139873701E+03  0.00000000000E+00 0.  1.
         21   -1    0    0  501  503 -0.00000000000E+00 -0.00000000000E+00 -0.10020646869E+03  0.10020646869E+03  0.00000000000E+00 0.  1.
          6    2    1    2  501    0  0.29736883660E+02  0.27007629282E+02  0.22135291267E+02  0.17750966210E+03  0.17148182040E+03 0.  0.
         24    2    3    3    0    0 -0.67820807074E+01 -0.31036860863E+02 -0.29717732218E+02  0.91407260043E+02  0.80391916444E+02 0.  0.
         -6    2    1    2    0  502 -0.29736883660E+02 -0.27007629282E+02  0.32905697705E+03  0.37409554361E+03  0.17336460802E+03 0.  0.
        -24    2    5    5    0    0  0.84525275302E+00 -0.26595528350E+02  0.59083846324E+02  0.10235482489E+03  0.79231134675E+02 0.  0.
          5    1    3    3  501    0  0.36518964367E+02  0.58044490144E+02  0.51853023486E+02  0.86102402052E+02  0.47000000000E+01 0. -1.
        -13    1    4    4    0    0 -0.31200586523E+02  0.14613739782E+02 -0.15061058800E+02  0.37601509039E+02  0.00000000000E+00 0.  1.
         14    1    4    4    0    0  0.24418505816E+02 -0.45650600645E+02 -0.14656673418E+02  0.53805751005E+02  0.00000000000E+00 0. -1.
         -5    1    5    5    0  502 -0.30582136413E+02 -0.41210093144E+00  0.26997313072E+03  0.27174071872E+03  0.47000000000E+01 0.  1.
         13    1    6    6    0    0  0.19805657338E+01  0.21328510480E+02  0.48846013534E+02  0.53336301316E+02  0.00000000000E+00 0. -1.
        -14    1    6    6    0    0 -0.11353129808E+01 -0.47924038830E+02  0.10237832790E+02  0.49018523576E+02  0.00000000000E+00 0.  1.
</event>
<event>
12    1  0.8356052E-002  0.1958235E+03  0.7818608E-02  0.1156170E+00
         21   -1    0    0  503  502  0.00000000000E+00  0.00000000000E+00  0.62559952214E+03  0.62559952214E+03  0.00000000000E+00 0.  1.
         21   -1    0    0  501  503 -0.00000000000E+00 -0.00000000000E+00 -0.88379884323E+02  0.88379884323E+02  0.00000000000E+00 0.  1.
          6    2    1    2  501    0  0.83843560072E+02 -0.39036454868E+02  0.63111035788E+02  0.20574213816E+03  0.17260717598E+03 0.  0.
         24    2    3    3    0    0  0.12355000015E+03 -0.29455284752E+02  0.26906600723E+02  0.15095846064E+03  0.77021265500E+02 0.  0.
         -6    2    1    2    0  502 -0.83843560072E+02  0.39036454868E+02  0.47410860202E+03  0.50823726830E+03  0.15802710844E+03 0.  0.
        -24    2    5    5    0    0 -0.44554648030E+02  0.21164111514E+01  0.12687745855E+03  0.15681406867E+03  0.80642214681E+02 0.  0.
          5    1    3    3  501    0 -0.39706440075E+02 -0.95811701167E+01  0.36204435065E+02  0.54783677520E+02  0.47000000000E+01 0. -1.
        -13    1    4    4    0    0  0.93571380501E+02 -0.16803526129E+02  0.53363293470E+02  0.10902111185E+03  0.00000000000E+00 0.  1.
         14    1    4    4    0    0  0.29978619647E+02 -0.12651758623E+02 -0.26456692746E+02  0.41937348786E+02  0.00000000000E+00 0. -1.
         -5    1    5    5    0  502 -0.39288912042E+02  0.36920043717E+02  0.34723114348E+03  0.35142319963E+03  0.47000000000E+01 0.  1.
         11    1    6    6    0    0  0.35204375957E+01 -0.31604462950E+02  0.31176523677E+02  0.44533259344E+02  0.00000000000E+00 0. -1.
        -12    1    6    6    0    0 -0.48075085626E+02  0.33720874102E+02  0.95700934871E+02  0.11228080933E+03  0.00000000000E+00 0.  1.
</event>
<event>
12    1  0.8356052E-002  0.2108462E+03  0.7818608E-02  0.1141168E+00
         21   -1    0    0  503  502  0.00000000000E+00  0.00000000000E+00  0.38842285031E+03  0.38842285031E+03  0.00000000000E+00 0. -1.
         21   -1    0    0  501  503 -0.00000000000E+00 -0.00000000000E+00 -0.11387782232E+03  0.11387782232E+03  0.00000000000E+00 0. -1.
          6    2    1    2  501    0 -0.11788584449E+03 -0.27652645195E+02  0.14733759081E+03  0.25722456553E+03  0.17261045834E+03 0.  0.
         24    2    3    3    0    0 -0.63074486263E+02 -0.76804755540E+02  0.50197456855E+02  0.13524706528E+03  0.76776446264E+02 0.  0.
         -6    2    1    2    0  502  0.11788584449E+03  0.27652645195E+02  0.12720743718E+03  0.24507610710E+03  0.17093514875E+03 0.  0.
        -24    2    5    5    0    0  0.10026925791E+03 -0.28564810722E+02  0.38573465384E+02  0.13854527856E+03  0.82686210981E+02 0.  0.
          5    1    3    3  501    0 -0.54811358225E+02  0.49152110345E+02  0.97140133955E+02  0.12197750025E+03  0.47000000000E+01 0. -1.
        -13    1    4    4    0    0  0.13865864582E+02 -0.32931242485E+01 -0.53323904428E+01  0.15216479742E+02  0.00000000000E+00 0.  1.
         14    1    4    4    0    0 -0.76940350845E+02 -0.73511631292E+02  0.55529847298E+02  0.12003058554E+03  0.00000000000E+00 0. -1.
         -5    1    5    5    0  502  0.17616586583E+02  0.56217455917E+02  0.88633971797E+02  0.10653082854E+03  0.47000000000E+01 0.  1.
         13    1    6    6    0    0  0.38625838553E+02  0.88698245195E+01  0.51801007315E+02  0.65222492668E+02  0.00000000000E+00 0. -1.
        -14    1    6    6    0    0  0.61643419353E+02 -0.37434635241E+02 -0.13227541931E+02  0.73322785890E+02  0.00000000000E+00 0.  1.
</event>
<event>
12    1  0.8356052E-002  0.1931214E+03  0.7818608E-02  0.1155775E+00
         21   -1    0    0  501  502  0.00000000000E+00  0.00000000000E+00  0.62781902030E+03  0.62781902030E+03  0.00000000000E+00 0. -1.
         21   -1    0    0  502  503 -0.00000000000E+00 -0.00000000000E+00 -0.14756587325E+03  0.14756587325E+03  0.00000000000E+00 0.  1.
         -6    2    1    2    0  503 -0.58391815834E+02  0.69619717347E+02 -0.59882192174E+02  0.20176300364E+03  0.16989974544E+03 0.  0.
        -24    2    3    3    0    0 -0.71715350379E+02  0.65471096458E+02  0.14514417085E+02  0.12592321793E+03  0.78844356544E+02 0.  0.
          6    2    1    2  501    0  0.58391815834E+02 -0.69619717347E+02  0.54013533923E+03  0.57362188990E+03  0.17040944427E+03 0.  0.
         24    2    5    5    0    0  0.52036551310E+02  0.15281934894E+02  0.37952327080E+03  0.39177853296E+03  0.80691793899E+02 0.  0.
          5    1    5    5  501    0  0.63552645236E+01 -0.84901652241E+02  0.16061206843E+03  0.18184335694E+03  0.47000000000E+01 0. -1.
        -13    1    6    6    0    0  0.19410774285E+02 -0.20748228583E+02  0.41596810338E+02  0.50374217394E+02  0.00000000000E+00 0.  1.
         14    1    6    6    0    0  0.32625777025E+02  0.36030163477E+02  0.33792646046E+03  0.34140431557E+03  0.00000000000E+00 0. -1.
         -5    1    3    3    0  503  0.13323534545E+02  0.41486208888E+01 -0.74396609259E+02  0.75839785715E+02  0.47000000000E+01 0.  1.
         11    1    4    4    0    0 -0.28493939883E+01  0.47468105068E+01  0.31985356664E+02  0.32460965743E+02  0.00000000000E+00 0. -1.
        -12    1    4    4    0    0 -0.68865956391E+02  0.60724285952E+02 -0.17470939578E+02  0.93462252186E+02  0.00000000000E+00 0.  1.
</event>
<event>
12    1  0.8356052E-002  0.2520705E+03  0.7818608E-02  0.1112566E+00
         21   -1    0    0  501  502  0.00000000000E+00  0.00000000000E+00  0.10312395718E+04  0.10312395718E+04  0.00000000000E+00 0.  1.
         21   -1    0    0  502  503 -0.00000000000E+00 -0.00000000000E+00 -0.62974163494E+02  0.62974163494E+02  0.00000000000E+00 0. -1.
         -6    2    1    2    0  503 -0.11731989414E+03 -0.13975211153E+03  0.58374113337E+03  0.63443287006E+03  0.16869127301E+03 0.  0.
        -24    2    3    3    0    0 -0.10521557301E+03 -0.35072748856E+02  0.39815872277E+03  0.42096810791E+03  0.79895962583E+02 0.  0.
          6    2    1    2  501    0  0.11731989414E+03  0.13975211153E+03  0.38452427493E+03  0.45978086522E+03  0.17391065460E+03 0.  0.
         24    2    5    5    0    0  0.78844936112E+02  0.12910994037E+03  0.38245291337E+03  0.41953215418E+03  0.82771352501E+02 0.  0.
          5    1    5    5  501    0  0.38474958025E+02  0.10642171158E+02  0.20713615582E+01  0.40248711044E+02  0.47000000000E+01 0. -1.
        -11    1    6    6    0    0  0.54325335465E+02  0.41807564852E+02  0.24843027041E+03  0.25771440357E+03  0.00000000000E+00 0.  1.
         12    1    6    6    0    0  0.24519600647E+02  0.87302375516E+02  0.13402264296E+03  0.16181775061E+03  0.00000000000E+00 0. -1.
         -5    1    3    3    0  503 -0.12104321124E+02 -0.10467936267E+03  0.18558241059E+03  0.21346476215E+03  0.47000000000E+01 0.  1.
         11    1    4    4    0    0 -0.86628313490E+01  0.20811710844E+02  0.40958124810E+02  0.46751897749E+02  0.00000000000E+00 0. -1.
        -12    1    4    4    0    0 -0.96552741664E+02 -0.55884459700E+02  0.35720059796E+03  0.37421621016E+03  0.00000000000E+00 0.  1.
</event>
<event>
12    1  0.8356052E-002  0.2119419E+03  0.7818608E-02  0.1140069E+00
         21   -1    0    0  503  502  0.00000000000E+00  0.00000000000E+00  0.25963430202E+03  0.25963430202E+03  0.00000000000E+00 0.  1.
         21   -1    0    0  501  503 -0.00000000000E+00 -0.00000000000E+00 -0.17296250799E+03  0.17296250799E+03  0.00000000000E+00 0. -1.
          6    2    1    2  501    0 -0.68829155737E+02 -0.10034954995E+03  0.48082852465E+02  0.21717055341E+03  0.17333090813E+03 0.  0.
         24    2    3    3    0    0 -0.11072834100E+03 -0.91448094842E+02  0.54634845727E+02  0.17358390128E+03  0.80764378689E+02 0.  0.
         -6    2    1    2    0  502  0.68829155737E+02  0.10034954995E+03  0.38588941560E+02  0.21542625660E+03  0.17352775215E+03 0.  0.
        -24    2    5    5    0    0  0.10378342384E+03  0.11354002905E+03  0.49686011315E+02  0.17617037100E+03  0.70035438427E+02 0.  0.
          5    1    3    3  501    0  0.41899185258E+02 -0.89014551057E+01 -0.65519932616E+01  0.43586652131E+02  0.47000000000E+01 0. -1.
        -13    1    4    4    0    0  0.38137844020E+00 -0.38942474636E+01  0.29682956530E+02  0.29939748182E+02  0.00000000000E+00 0.  1.
         14    1    4    4    0    0 -0.11110971944E+03 -0.87553847379E+02  0.24951889197E+02  0.14364415310E+03  0.00000000000E+00 0. -1.
         -5    1    5    5    0  502 -0.34954268099E+02 -0.13190479106E+02 -0.11097069755E+02  0.39255885604E+02  0.47000000000E+01 0.  1.
         13    1    6    6    0    0  0.44890750563E+02  0.19996562806E+02 -0.10582425459E+02  0.50269570704E+02  0.00000000000E+00 0. -1.
        -14    1    6    6    0    0  0.58892673273E+02  0.93543466247E+02  0.60268436774E+02  0.12590080029E+03  0.00000000000E+00 0.  1.
</event>
<event>
12    1  0.8356052E-002  0.1976724E+03  0.7818608E-02  0.1151859E+00
         21   -1    0    0  501  502  0.00000000000E+00  0.00000000000E+00  0.49077125276E+03  0.49077125276E+03  0.00000000000E+00 0. -1.
         21   -1    0    0  502  503 -0.00000000000E+00 -0.00000000000E+00 -0.80440989677E+03  0.80440989677E+03  0.00000000000E+00 0.  1.
         -6    2    1    2    0  503  0.75373660244E+01 -0.96952507652E+02 -0.77166436575E+03  0.79658036270E+03  0.17209817037E+03 0.  0.
        -24    2    3    3    0    0  0.25441886483E+02  0.16144080588E+02 -0.32474465290E+03  0.33520120207E+03  0.77413405563E+02 0.  0.
          6    2    1    2  501    0 -0.75373660244E+01  0.96952507652E+02  0.45802572174E+03  0.49860078683E+03  0.17134346272E+03 0.  0.
         24    2    5    5    0    0 -0.15938124920E+02  0.41266196084E+02  0.42262872344E+03  0.43191813889E+03  0.77338981539E+02 0.  0.
          5    1    5    5  501    0  0.84007588957E+01  0.55686311569E+02  0.35396998304E+02  0.66682647931E+02  0.47000000000E+01 0. -1.
        -11    1    6    6    0    0  0.28311821593E+02  0.31937207075E+02  0.17013230143E+03  0.17540394645E+03  0.00000000000E+00 0.  1.
         12    1    6    6    0    0 -0.44249946513E+02  0.93289890084E+01  0.25249642200E+03  0.25651419245E+03  0.00000000000E+00 0. -1.
         -5    1    3    3    0  503 -0.17904520459E+02 -0.11309658824E+03 -0.44691971285E+03  0.46137916063E+03  0.47000000000E+01 0.  1.
         13    1    4    4    0    0  0.45412045567E+02 -0.32515514791E+01 -0.26971486860E+03  0.27353050436E+03  0.00000000000E+00 0. -1.
        -14    1    4    4    0    0 -0.19970159084E+02  0.19395632067E+02 -0.55029784292E+02  0.61670697712E+02  0.00000000000E+00 0.  1.
</event>
<event>
12    1  0.8356052E-002  0.1879232E+03  0.7818608E-02  0.1160830E+00
         21   -1    0    0  503  502  0.00000000000E+00  0.00000000000E+00  0.17578541026E+03  0.17578541026E+03  0.00000000000E+00 0. -1.
         21   -1    0    0  501  503 -0.00000000000E+00 -0.00000000000E+00 -0.25515987110E+03  0.25515987110E+03  0.00000000000E+00 0.  1.
          6    2    1    2  501    0 -0.23394890580E+02 -0.69432788126E+02 -0.14124901396E+03  0.23508810480E+03  0.17305172667E+03 0.  0.
         24    2    3    3    0    0 -0.68693374481E+02 -0.17377541850E+02 -0.43177659589E+02  0.11508068063E+03  0.79740166223E+02 0.  0.
         -6    2    1    2    0  502  0.23394890580E+02  0.69432788126E+02  0.61874553118E+02  0.19585717655E+03  0.17077277392E+03 0.  0.
        -24    2    5    5    0    0  0.63074740394E+02  0.13211252548E+02  0.73006379340E+02  0.12599045272E+03  0.79941870647E+02 0.  0.
          5    1    3    3  501    0  0.45298483901E+02 -0.52055246276E+02 -0.98071354366E+02  0.12000742417E+03  0.47000000000E+01 0. -1.
        -13    1    4    4    0    0  0.16090970279E+02  0.80696436318E+01 -0.96383890421E+01  0.20419035633E+02  0.00000000000E+00 0.  1.
         14    1    4    4    0    0 -0.84784344760E+02 -0.25447185482E+02 -0.33539270547E+02  0.94661645000E+02  0.00000000000E+00 0. -1.
         -5    1    5    5    0  502 -0.39679849814E+02  0.56221535578E+02 -0.11131826223E+02  0.69866723833E+02  0.47000000000E+01 0.  1.
         11    1    6    6    0    0  0.77372914809E+02  0.19328211399E+02  0.75987561272E+02  0.11015560435E+03  0.00000000000E+00 0. -1.
        -12    1    6    6    0    0 -0.14298174414E+02 -0.61169588506E+01 -0.29811819319E+01  0.15834848369E+02  0.00000000000E+00 0.  1.
</event>
<event>
12    1  0.8356052E-002  0.1927251E+03  0.7818608E-02  0.1156120E+00
         21   -1    0    0  503  502  0.00000000000E+00  0.00000000000E+00  0.32059229585E+03  0.32059229585E+03  0.00000000000E+00 0. -1.
         21   -1    0    0  501  503 -0.00000000000E+00 -0.00000000000E+00 -0.12299531154E+03  0.12299531154E+03  0.00000000000E+00 0.  1.
          6    2    1    2  501    0 -0.85557725517E+02  0.19044432278E+01  0.15307422496E+03  0.24578660015E+03  0.17220796487E+03 0.  0.
         24    2    3    3    0    0 -0.95548066561E+02  0.56284301389E+02  0.10200258827E+03  0.17037189361E+03  0.79527973143E+02 0.  0.
         -6    2    1    2    0  502  0.85557725517E+02 -0.19044432278E+01  0.44522759341E+02  0.19780100724E+03  0.17268239941E+03 0.  0.
        -24    2    5    5    0    0  0.83504328946E+02  0.33020560295E+02  0.78844293742E+02  0.14856656775E+03  0.88273846877E+02 0.  0.
          5    1    3    3  501    0  0.99903410432E+01 -0.54379858161E+02  0.51071636694E+02  0.75414706539E+02  0.47000000000E+01 0. -1.
        -11    1    4    4    0    0 -0.88892509148E+02  0.33569218679E+02  0.38361162771E+02  0.10247121271E+03  0.00000000000E+00 0.  1.
         12    1    4    4    0    0 -0.66555574123E+01  0.22715082711E+02  0.63641425498E+02  0.67900680898E+02  0.00000000000E+00 0. -1.
         -5    1    5    5    0  502  0.20533965711E+01 -0.34925003523E+02 -0.34321534402E+02  0.49234439493E+02  0.47000000000E+01 0.  1.
         11    1    6    6    0    0  0.12181968065E+02 -0.16119939601E+02  0.55204903695E+02  0.58786343573E+02  0.00000000000E+00 0. -1.
        -12    1    6    6    0    0  0.71322360881E+02  0.49140499895E+02  0.23639390047E+02  0.89780224178E+02  0.00000000000E+00 0.  1.
</event>
<event>
12    1  0.8356052E-002  0.2199680E+03  0.7818608E-02  0.1134174E+00
         21   -1    0    0  501  502  0.00000000000E+00  0.00000000000E+00  0.68050291103E+03  0.68050291103E+03  0.00000000000E+00 0.  1.
         21   -1    0    0  502  503 -0.00000000000E+00 -0.00000000000E+00 -0.10727693374E+03  0.10727693374E+03  0.00000000000E+00 0. -1.
         -6    2    1    2    0  503  0.97462077623E+02  0.93496067634E+02  0.57047376712E+02  0.22724507868E+03  0.17362474292E+03 0.  0.
        -24    2    3    3    0    0  0.90203953482E+02  0.23365489024E+02 -0.17795849211E+02  0.12431511759E+03  0.80342124144E+02 0.  0.
          6    2    1    2  501    0 -0.97462077623E+02 -0.93496067634E+02  0.51617860057E+03  0.56053476609E+03  0.17180950227E+03 0.  0.
         24    2    5    5    0    0 -0.47712159572E+02 -0.34719462289E+02  0.11640786138E+03  0.15338801417E+03  0.80592812759E+02 0.  0.
          5    1    5    5  501    0 -0.49749918052E+02 -0.58776605345E+02  0.39977073920E+03  0.40714675192E+03  0.47000000000E+01 0. -1.
        -11    1    6    6    0    0 -0.43438115166E+02  0.29998506570E+01  0.10512587004E+03  0.11378627995E+03  0.00000000000E+00 0.  1.
         12    1    6    6    0    0 -0.42740444052E+01 -0.37719312946E+02  0.11281991334E+02  0.39601734219E+02  0.00000000000E+00 0. -1.
         -5    1    3    3    0  503  0.72581241416E+01  0.70130578609E+02  0.74843225923E+02  0.10292996108E+03  0.47000000000E+01 0.  1.
         13    1    4    4    0    0  0.16121929381E+02  0.42281185801E+02 -0.15466644874E+02  0.47820836289E+02  0.00000000000E+00 0. -1.
        -14    1    4    4    0    0  0.74082024101E+02 -0.18915696777E+02 -0.23292043364E+01  0.76494281304E+02  0.00000000000E+00 0.  1.
</event>
<event>
12    1  0.8356052E-002  0.1848957E+03  0.7818608E-02  0.1163690E+00
         21   -1    0    0  503  502  0.00000000000E+00  0.00000000000E+00  0.23038305732E+03  0.23038305732E+03  0.00000000000E+00 0.  1.
         21   -1    0    0  501  503 -0.00000000000E+00 -0.00000000000E+00 -0.25379161507E+03  0.25379161507E+03  0.00000000000E+00 0. -1.
          6    2    1    2  501    0 -0.46374428049E+02  0.46483067784E+02 -0.16911701675E+03  0.25057332901E+03  0.17284433659E+03 0.  0.
         24    2    3    3    0    0 -0.56657705216E+02  0.65084251949E+02 -0.46780999446E+02  0.12631577000E+03  0.79505700609E+02 0.  0.
         -6    2    1    2    0  502  0.46374428049E+02 -0.46483067784E+02  0.14570845899E+03  0.23360134338E+03  0.17037420415E+03 0.  0.
        -24    2    5    5    0    0  0.77169620201E+02 -0.61304195819E+02  0.54949544607E+02  0.13650716108E+03  0.76820556279E+02 0.  0.
          5    1    3    3  501    0  0.10283277167E+02 -0.18601184166E+02 -0.12233601730E+03  0.12425755901E+03  0.47000000000E+01 0. -1.
        -11    1    4    4    0    0 -0.29164815483E+02  0.80578451248E+02 -0.32088791715E+02  0.91504993424E+02  0.00000000000E+00 0.  1.
         12    1    4    4    0    0 -0.27492889733E+02 -0.15494199299E+02 -0.14692207731E+02  0.34810776576E+02  0.00000000000E+00 0. -1.
         -5    1    5    5    0  502 -0.30795192152E+02  0.14821128035E+02  0.90758914385E+02  0.97094182298E+02  0.47000000000E+01 0.  1.
         11    1    6    6    0    0  0.39567542282E+02 -0.11045950396E+02 -0.13873504093E+02  0.43359860911E+02  0.00000000000E+00 0. -1.
        -12    1    6    6    0    0  0.37602077919E+02 -0.50258245423E+02  0.68823048699E+02  0.93147300171E+02  0.00000000000E+00 0.  1.
</event>
<event>
12    1  0.8356052E-002  0.1755165E+03  0.7818608E-02  0.1172833E+00
         21   -1    0    0  501  502  0.00000000000E+00  0.00000000000E+00  0.17640936331E+03  0.17640936331E+03  0.00000000000E+00 0. -1.
         21   -1    0    0  502  503 -0.00000000000E+00 -0.00000000000E+00 -0.22412430451E+03  0.22412430451E+03  0.00000000000E+00 0. -1.
         -6    2    1    2    0  503  0.22727645544E+02 -0.10177262441E+02 -0.12012666233E+03  0.21066662082E+03  0.17125970799E+03 0.  0.
        -24    2    3    3    0    0 -0.12837819316E+02  0.55542429462E+02 -0.70348908037E+02  0.12075613746E+03  0.79895586847E+02 0.  0.
          6    2    1    2  501    0 -0.22727645544E+02  0.10177262441E+02  0.72411721136E+02  0.18986704700E+03  0.17374094404E+03 0.  0.
         24    2    5    5    0    0 -0.62822312829E+02  0.44778454552E+02  0.68103082241E+01  0.10542499458E+03  0.71528289530E+02 0.  0.
          5    1    5    5  501    0  0.40094667285E+02 -0.34601192111E+02  0.65601412912E+02  0.84442052416E+02  0.47000000000E+01 0. -1.
        -11    1    6    6    0    0 -0.32773287517E+02 -0.16550394088E+02  0.54440060783E+01  0.37116588223E+02  0.00000000000E+00 0.  1.
         12    1    6    6    0    0 -0.30049025312E+02  0.61328848640E+02  0.13663021458E+01  0.68308406358E+02  0.00000000000E+00 0. -1.
         -5    1    3    3    0  503  0.35565464860E+02 -0.65719691903E+02 -0.49777754298E+02  0.89910483357E+02  0.47000000000E+01 0.  1.
         11    1    4    4    0    0  0.18946793237E+02  0.10190996122E+02 -0.60883118446E+02  0.64572374028E+02  0.00000000000E+00 0. -1.
        -12    1    4    4    0    0 -0.31784612553E+02  0.45351433340E+02 -0.94657895912E+01  0.56183763435E+02  0.00000000000E+00 0.  1.
</event>
<event>
12    1  0.8356052E-002  0.1748419E+03  0.7818608E-02  0.1173095E+00
         21   -1    0    0  501  502  0.00000000000E+00  0.00000000000E+00  0.35567113074E+02  0.35567113074E+02  0.00000000000E+00 0.  1.
         21   -1    0    0  502  503 -0.00000000000E+00 -0.00000000000E+00 -0.12097528772E+04  0.12097528772E+04  0.00000000000E+00 0.  1.
         -6    2    1    2    0  503 -0.21075765694E+02  0.28912707901E+02 -0.92306789883E+03  0.93933003055E+03  0.17031273545E+03 0.  0.
        -24    2    3    3    0    0 -0.56748508939E+02 -0.28971531669E+02 -0.58479787422E+03  0.59426216860E+03  0.84256919112E+02 0.  0.
          6    2    1    2  501    0  0.21075765694E+02 -0.28912707901E+02 -0.25111786529E+03  0.30598995973E+03  0.17114187274E+03 0.  0.
         24    2    5    5    0    0  0.51231591402E+02  0.21599845036E+02 -0.82403913635E+02  0.12725166133E+03  0.79444012148E+02 0.  0.
          5    1    5    5  501    0 -0.30155825707E+02 -0.50512552937E+02 -0.16871395166E+03  0.17873829839E+03  0.47000000000E+01 0. -1.
        -11    1    6    6    0    0  0.86404793140E+01 -0.28980023440E+02 -0.32629599378E+02  0.44488092754E+02  0.00000000000E+00 0.  1.
         12    1    6    6    0    0  0.42591112088E+02  0.50579868476E+02 -0.49774314257E+02  0.82763568577E+02  0.00000000000E+00 0. -1.
         -5    1    3    3    0  503  0.35672743245E+02  0.57884239570E+02 -0.33827002461E+03  0.34506786195E+03  0.47000000000E+01 0.  1.
         13    1    4    4    0    0 -0.57939416140E+02 -0.19000686511E+02 -0.19447241841E+03  0.20380756500E+03  0.00000000000E+00 0. -1.
        -14    1    4    4    0    0  0.11909072007E+01 -0.99708451583E+01 -0.39032545581E+03  0.39045460360E+03  0.00000000000E+00 0.  1.
</event>
<event>
12    1  0.8356052E-002  0.1763705E+03  0.7818608E-02  0.1171478E+00
         21   -1    0    0  501  502  0.00000000000E+00  0.00000000000E+00  0.19723677996E+03  0.19723677996E+03  0.00000000000E+00 0.  1.
         21   -1    0    0  502  503 -0.00000000000E+00 -0.00000000000E+00 -0.40121967924E+03  0.40121967924E+03  0.00000000000E+00 0.  1.
         -6    2    1    2    0  503 -0.11982482304E+02 -0.39608729457E+02 -0.33525037042E+03  0.37859810251E+03  0.17097157957E+03 0.  0.
        -24    2    3    3    0    0 -0.48139686190E+02  0.28184434360E+02 -0.21254180230E+03  0.23374390290E+03  0.79689413916E+02 0.  0.
          6    2    1    2  501    0  0.11982482304E+02  0.39608729457E+02  0.13126747115E+03  0.21985835670E+03  0.17144712508E+03 0.  0.
         24    2    5    5    0    0  0.14750074852E+02  0.10140455911E+01  0.15395426260E+03  0.17475858178E+03  0.81363713866E+02 0.  0.
          5    1    5    5  501    0 -0.27675925475E+01  0.38594683866E+02 -0.22686791459E+02  0.45099774921E+02  0.47000000000E+01 0. -1.
        -13    1    6    6    0    0  0.34719365536E+02  0.24945936794E+02  0.47829766036E+02  0.64151544212E+02  0.00000000000E+00 0.  1.
         14    1    6    6    0    0 -0.19969290684E+02 -0.23931891203E+02  0.10612449657E+03  0.11060703756E+03  0.00000000000E+00 0. -1.
         -5    1    3    3    0  503  0.36157203885E+02 -0.67793163817E+02 -0.12270856812E+03  0.14485419960E+03  0.47000000000E+01 0.  1.
         13    1    4    4    0    0 -0.22312489670E+02  0.53619023264E+02 -0.10156353450E+03  0.11699571954E+03  0.00000000000E+00 0. -1.
        -14    1    4    4    0    0 -0.25827196519E+02 -0.25434588904E+02 -0.11097826781E+03  0.11674818336E+03  0.00000000000E+00 0.  1.
</event>
<event>
12    1  0.8356052E-002  0.2416805E+03  0.7818608E-02  0.1118854E+00
         21   -1    0    0  503  502  0.00000000000E+00  0.00000000000E+00  0.57583742918E+02  0.57583742918E+02  0.00000000000E+00 0. -1.
         21   -1    0    0  501  503 -0.00000000000E+00 -0.00000000000E+00 -0.20119030083E+04  0.20119030083E+04  0.00000000000E+00 0. -1.
          6    2    1    2  501    0  0.16500867979E+03 -0.16438239342E+02 -0.17063191046E+04  0.17232013981E+04  0.17435622036E+03 0.  0.
         24    2    3    3    0    0  0.15496066793E+03 -0.67996859911E+01 -0.89937001833E+03  0.91611851383E+03  0.79672185708E+02 0.  0.
         -6    2    1    2    0  502 -0.16500867979E+03  0.16438239342E+02 -0.24800016081E+03  0.34628535314E+03  0.17581634145E+03 0.  0.
        -24    2    5    5    0    0 -0.17406438830E+03  0.38686822475E+02 -0.15127102486E+03  0.24650749463E+03  0.78025255141E+02 0.  0.
          5    1    3    3  501    0  0.10048011855E+02 -0.96385533507E+01 -0.80694908625E+03  0.80708288425E+03  0.47000000000E+01 0. -1.
        -13    1    4    4    0    0  0.42369210314E+02  0.14219512872E+02 -0.11411568355E+03  0.12255502340E+03  0.00000000000E+00 0.  1.
         14    1    4    4    0    0  0.11259145762E+03 -0.21019198863E+02 -0.78525433479E+03  0.79356349043E+03  0.00000000000E+00 0. -1.
         -5    1    5    5    0  502  0.90557085093E+01 -0.22248583134E+02 -0.96729135948E+02  0.99777858512E+02  0.47000000000E+01 0.  1.
         11    1    6    6    0    0 -0.13061596772E+03  0.50873794402E+01 -0.69611163890E+02  0.14809499178E+03  0.00000000000E+00 0. -1.
        -12    1    6    6    0    0 -0.43448420576E+02  0.33599443035E+02 -0.81659860969E+02  0.98412502846E+02  0.00000000000E+00 0.  1.
</event>
<event>
12    1  0.8356052E-002  0.2070964E+03  0.7818608E-02  0.1143967E+00
         21   -1    0    0  501  502  0.00000000000E+00  0.00000000000E+00  0.67745965075E+02  0.67745965075E+02  0.00000000000E+00 0.  1.
         21   -1    0    0  502  503 -0.00000000000E+00 -0.00000000000E+00 -0.78021644578E+03  0.78021644578E+03  0.00000000000E+00 0. -1.
         -6    2    1    2    0  503 -0.11391567277E+03 -0.16050722656E+02 -0.54139283012E+03  0.57965084494E+03  0.17220481798E+03 0.  0.
        -24    2    3    3    0    0 -0.32963653071E+02  0.48420470476E+02 -0.22770467018E+03  0.24929934135E+03  0.82883052503E+02 0.  0.
          6    2    1    2  501    0  0.11391567277E+03  0.16050722656E+02 -0.17107765058E+03  0.26831156591E+03  0.17172398688E+03 0.  0.
         24    2    5    5    0    0  0.65786478193E+02 -0.24527942930E+02 -0.27417259138E+02  0.11139297064E+03  0.82019553227E+02 0.  0.
          5    1    5    5  501    0  0.48129194581E+02  0.40578665586E+02 -0.14366039144E+03  0.15691859527E+03  0.47000000000E+01 0. -1.
        -11    1    6    6    0    0  0.82134820009E+02 -0.13122574952E+02 -0.79918066908E+01  0.83559557236E+02  0.00000000000E+00 0.  1.
         12    1    6    6    0    0 -0.16348341816E+02 -0.11405367978E+02 -0.19425452447E+02  0.27833413403E+02  0.00000000000E+00 0. -1.
         -5    1    3    3    0  503 -0.80952019703E+02 -0.64471193132E+02 -0.31368815994E+03  0.33035150359E+03  0.47000000000E+01 0.  1.
         13    1    4    4    0    0  0.16429693464E+02 -0.14422918377E+01 -0.11743991736E+03  0.11859236579E+03  0.00000000000E+00 0. -1.
        -14    1    4    4    0    0 -0.49393346535E+02  0.49862762313E+02 -0.11026475282E+03  0.13070697557E+03  0.00000000000E+00 0.  1.
</event>
<event>
12    1  0.8356052E-002  0.1793925E+03  0.7818608E-02  0.1168658E+00
         21   -1    0    0  503  502  0.00000000000E+00  0.00000000000E+00  0.10014839981E+03  0.10014839981E+03  0.00000000000E+00 0.  1.
         21   -1    0    0  501  503 -0.00000000000E+00 -0.00000000000E+00 -0.46707590467E+03  0.46707590467E+03  0.00000000000E+00 0.  1.
          6    2    1    2  501    0 -0.48288055519E+02 -0.10653601884E+02 -0.34255958741E+03  0.38618433701E+03  0.17130684660E+03 0.  0.
         24    2    3    3    0    0  0.13383410012E+02 -0.20452689617E+02 -0.29579413811E+03  0.30802751371E+03  0.82397505332E+02 0.  0.
         -6    2    1    2    0  502  0.48288055519E+02  0.10653601884E+02 -0.24367917451E+02  0.18103996747E+03  0.17244256691E+03 0.  0.
        -24    2    5    5    0    0  0.82921192644E+02  0.13218915650E+02 -0.60109253678E+02  0.13098431707E+03  0.80579805279E+02 0.  0.
          5    1    3    3  501    0 -0.61671465532E+02  0.97990877326E+01 -0.46765449298E+02  0.78156823306E+02  0.47000000000E+01 0. -1.
        -13    1    4    4    0    0 -0.10062918127E+01  0.30304611941E+02 -0.14865926117E+03  0.15171999888E+03  0.00000000000E+00 0.  1.
         14    1    4    4    0    0  0.14389701825E+02 -0.50757301558E+02 -0.14713487694E+03  0.15630751483E+03  0.00000000000E+00 0. -1.
         -5    1    5    5    0  502 -0.34633137125E+02 -0.25653137664E+01  0.35741336228E+02  0.50055650402E+02  0.47000000000E+01 0.  1.
         11    1    6    6    0    0  0.97632633600E+02  0.97183098179E+01 -0.40315588824E+02  0.10607508375E+03  0.00000000000E+00 0. -1.
        -12    1    6    6    0    0 -0.14711440956E+02  0.35006058325E+01 -0.19793664855E+02  0.24909233320E+02  0.00000000000E+00 0.  1.
</event>
<event>
12    1  0.8356052E-002  0.2083163E+03  0.7818608E-02  0.1143219E+00
         21   -1    0    0  501  502  0.00000000000E+00  0.00000000000E+00  0.28138218887E+02  0.28138218887E+02  0.00000000000E+00 0.  1.
         21   -1    0    0  502  503 -0.00000000000E+00 -0.00000000000E+00 -0.17538678105E+04  0.17538678105E+04  0.00000000000E+00 0.  1.
         -6    2    1    2    0  503  0.11811745485E+03 -0.25380426393E+01 -0.11778454327E+04  0.11958552529E+04  0.16968131223E+03 0.  0.
        -24    2    3    3    0    0  0.14339025465E+03 -0.31643691354E+02 -0.91452072552E+03  0.92968266863E+03  0.79997616319E+02 0.  0.
          6    2    1    2  501    0 -0.11811745485E+03  0.25380426393E+01 -0.54788415888E+03  0.58615077647E+03  0.17157361803E+03 0.  0.
         24    2    5    5    0    0 -0.11033953494E+03 -0.16740477053E+02 -0.23826675207E+03  0.27580067424E+03  0.82703749742E+02 0.  0.
          5    1    5    5  501    0 -0.77779199058E+01  0.19278519692E+02 -0.30961740680E+03  0.31035010223E+03  0.47000000000E+01 0. -1.
        -11    1    6    6    0    0 -0.41051403785E+02 -0.24759689300E+02 -0.17562400935E+03  0.18204958837E+03  0.00000000000E+00 0.  1.
         12    1    6    6    0    0 -0.69288131159E+02  0.80192122471E+01 -0.62642742730E+02  0.93751085867E+02  0.00000000000E+00 0. -1.
         -5    1    3    3    0  503 -0.25272799798E+02  0.29105648715E+02 -0.26332470720E+03  0.26617258428E+03  0.47000000000E+01 0.  1.
         11    1    4    4    0    0  0.67999161882E+02 -0.38183929729E+02 -0.27974236384E+03  0.29040951884E+03  0.00000000000E+00 0. -1.
        -12    1    4    4    0    0  0.75391092766E+02  0.65402383746E+01 -0.63477836168E+03  0.63927314979E+03  0.00000000000E+00 0.  1.
</event>
<event>
12    1  0.8356052E-002  0.1923043E+03  0.7818608E-02  0.1156537E+00
         21   -1    0    0  501  502  0.00000000000E+00  0.00000000000E+00  0.97363547893E+03  0.97363547893E+03  0.00000000000E+00 0. -1.
         21   -1    0    0  502  503 -0.00000000000E+00 -0.00000000000E+00 -0.39473201202E+02  0.39473201202E+02  0.00000000000E+00 0. -1.
         -6    2    1    2    0  503 -0.38558597553E+02 -0.67784791388E+02  0.36396204470E+03  0.41135354089E+03  0.17510517478E+03 0.  0.
        -24    2    3    3    0    0 -0.64180690931E+02 -0.88331614423E+02  0.18417284010E+03  0.22852872941E+03  0.79900625390E+02 0.  0.
          6    2    1    2  501    0  0.38558597553E+02  0.67784791388E+02  0.57020023303E+03  0.60175513924E+03  0.17578224730E+03 0.  0.
         24    2    5    5    0    0  0.52262578816E+02  0.26204119031E+02  0.53823371243E+03  0.54734282579E+03  0.80440081702E+02 0.  0.
          5    1    5    5  501    0 -0.13703981263E+02  0.41580672357E+02  0.31966520600E+02  0.54412313454E+02  0.47000000000E+01 0. -1.
        -13    1    6    6    0    0  0.10541428853E+02 -0.28519125995E+02  0.14850095465E+03  0.15158164731E+03  0.00000000000E+00 0.  1.
         14    1    6    6    0    0  0.41721149963E+02  0.54723245025E+02  0.38973275778E+03  0.39576117847E+03  0.00000000000E+00 0. -1.
         -5    1    3    3    0  503  0.25622093378E+02  0.20546823035E+02  0.17978920460E+03  0.18282481149E+03  0.47000000000E+01 0.  1.
         11    1    4    4    0    0 -0.39752771889E+02 -0.93207095526E+02  0.17453897949E+03  0.20182096246E+03  0.00000000000E+00 0. -1.
        -12    1    4    4    0    0 -0.24427919042E+02  0.48754811034E+01  0.96338606154E+01  0.26707766943E+02  0.00000000000E+00 0.  1.
</event>
<event>
12    1  0.8356052E-002  0.1976631E+03  0.7818608E-02  0.1151767E+00
         21   -1    0    0  503  502  0.00000000000E+00  0.00000000000E+00  0.59901630162E+02  0.59901630162E+02  0.00000000000E+00 0. -1.
         21   -1    0    0  501  503 -0.00000000000E+00 -0.00000000000E+00 -0.65935763248E+03  0.65935763248E+03  0.00000000000E+00 0. -1.
          6    2    1    2  501    0 -0.13976277468E+02 -0.96477813346E+02 -0.33882732017E+03  0.39226857621E+03  0.17195167400E+03 0.  0.
         24    2    3    3    0    0 -0.43544343479E+02  0.14858631431E+01 -0.11937472083E+03  0.15008541042E+03  0.79856050541E+02 0.  0.
         -6    2    1    2    0  502  0.13976277468E+02  0.96477813346E+02 -0.26062868215E+03  0.32699068643E+03  0.17173320661E+03 0.  0.
        -24    2    5    5    0    0  0.57631423750E+01  0.78530954733E+02 -0.27818914863E+03  0.30015777185E+03  0.80654577854E+02 0.  0.
          5    1    3    3  501    0  0.29568066011E+02 -0.97963676489E+02 -0.21945259934E+03  0.24218316580E+03  0.47000000000E+01 0. -1.
        -13    1    4    4    0    0 -0.29637000902E+02 -0.10596383057E+02 -0.12648201632E+03  0.13033930953E+03  0.00000000000E+00 0.  1.
         14    1    4    4    0    0 -0.13907342577E+02  0.12082246200E+02  0.71072954942E+01  0.19746100882E+02  0.00000000000E+00 0. -1.
         -5    1    5    5    0  502  0.82131350934E+01  0.17946858613E+02  0.17560466474E+02  0.26832914581E+02  0.47000000000E+01 0.  1.
         11    1    6    6    0    0  0.10126931099E+02  0.59677144733E+02 -0.76540352696E+02  0.97582487814E+02  0.00000000000E+00 0. -1.
        -12    1    6    6    0    0 -0.43637887245E+01  0.18853810000E+02 -0.20164879593E+03  0.20257528404E+03  0.00000000000E+00 0.  1.
</event>
<event>
12    1  0.8356052E-002  0.1986093E+03  0.7818608E-02  0.1151203E+00
         21   -1    0    0  503  502  0.00000000000E+00  0.00000000000E+00  0.46845401014E+02  0.46845401014E+02  0.00000000000E+00 0. -1.
         21   -1    0    0  501  503 -0.00000000000E+00 -0.00000000000E+00 -0.14586841335E+04  0.14586841335E+04  0.00000000000E+00 0. -1.
          6    2    1    2  501    0 -0.14628714689E+02 -0.94354887641E+02 -0.11989634069E+04  0.12153019794E+04  0.17415167517E+03 0.  0.
         24    2    3    3    0    0 -0.12494104498E+02 -0.12745220424E+03 -0.74465412318E+03  0.75975944111E+03  0.79526587867E+02 0.  0.
         -6    2    1    2    0  502  0.14628714689E+02  0.94354887641E+02 -0.21287532557E+03  0.29022755509E+03  0.17262469516E+03 0.  0.
        -24    2    5    5    0    0  0.57019907354E+02  0.11384054185E+03 -0.16802956698E+03  0.22534353549E+03  0.79591675462E+02 0.  0.
          5    1    3    3  501    0 -0.21346101910E+01  0.33097316599E+02 -0.45430928369E+03  0.45554253827E+03  0.47000000000E+01 0. -1.
        -13    1    4    4    0    0 -0.65404535664E+01 -0.66668629999E+02 -0.18448510679E+03  0.19627082918E+03  0.00000000000E+00 0.  1.
         14    1    4    4    0    0 -0.59536509317E+01 -0.60783574242E+02 -0.56016901639E+03  0.56348861193E+03  0.00000000000E+00 0. -1.
         -5    1    5    5    0  502 -0.42391192664E+02 -0.19485654211E+02 -0.44845758588E+02  0.64884019595E+02  0.47000000000E+01 0.  1.
         11    1    6    6    0    0  0.60701544011E+02  0.11997073976E+03 -0.17106121340E+03  0.21757664069E+03  0.00000000000E+00 0. -1.
        -12    1    6    6    0    0 -0.36816366576E+01 -0.61301979108E+01  0.30316464122E+01  0.77668948024E+01  0.00000000000E+00 0.  1.
</event>
<event>
12    1  0.8356052E-002  0.2545887E+03  0.7818608E-02  0.1110690E+00
         21   -1    0    0  501  502  0.00000000000E+00  0.00000000000E+00  0.33356361227E+03  0.33356361227E+03  0.00000000000E+00 0.  1.
         21   -1    0    0  502  503 -0.00000000000E+00 -0.00000000000E+00 -0.30304724965E+03  0.30304724965E+03  0.00000000000E+00 0. -1.
         -6    2    1    2    0  503  0.71411371163E+02 -0.17077422429E+03 -0.17645707507E+03  0.30976202216E+03  0.17479127958E+03 0.  0.
        -24    2    3    3    0    0  0.60793214112E+02 -0.72164908628E+02 -0.16977927021E+03  0.21024707116E+03  0.80468884784E+02 0.  0.
          6    2    1    2  501    0 -0.71411371163E+02  0.17077422429E+03  0.20697343768E+03  0.32684883977E+03  0.17242024398E+03 0.  0.
         24    2    5    5    0    0 -0.50043476983E+02  0.18610780387E+03  0.21427438694E+03  0.29915227997E+03  0.80237830638E+02 0.  0.
          5    1    5    5  501    0 -0.21367894180E+02 -0.15333579574E+02 -0.73009492583E+01  0.27696559792E+02  0.47000000000E+01 0. -1.
        -11    1    6    6    0    0 -0.95497117532E+01  0.13717334718E+03  0.18141926149E+03  0.22764154412E+03  0.00000000000E+00 0.  1.
         12    1    6    6    0    0 -0.40493765230E+02  0.48934456682E+02  0.32855125456E+02  0.71510735851E+02  0.00000000000E+00 0. -1.
         -5    1    3    3    0  503  0.10618157050E+02 -0.98609315664E+02 -0.66778048611E+01  0.99514951001E+02  0.47000000000E+01 0.  1.
         13    1    4    4    0    0  0.10765620227E+02 -0.59543018910E+01 -0.10299178810E+03  0.10372396399E+03  0.00000000000E+00 0. -1.
        -14    1    4    4    0    0  0.50027593885E+02 -0.66210606737E+02 -0.66787482113E+02  0.10652310717E+03  0.00000000000E+00 0.  1.
</event>
<event>
12    1  0.8356052E-002  0.1842422E+03  0.7818608E-02  0.1163806E+00
         21   -1    0    0  503  502  0.00000000000E+00  0.00000000000E+00  0.17975341260E+03  0.17975341260E+03  0.00000000000E+00 0. -1.
         21   -1    0    0  501  503 -0.00000000000E+00 -0.00000000000E+00 -0.27040118396E+03  0.27040118396E+03  0.00000000000E+00 0.  1.
          6    2    1    2  501    0 -0.35056986830E+01 -0.66428598831E+02 -0.16910760174E+03  0.25008512738E+03  0.17181426397E+03 0.  0.
         24    2    3    3    0    0 -0.37579940030E+02 -0.22877194761E+02 -0.23078559832E+02  0.93866211112E+02  0.79640616094E+02 0.  0.
         -6    2    1    2    0  502  0.35056986830E+01  0.66428598831E+02  0.78459830374E+02  0.20006946918E+03  0.17160069595E+03 0.  0.
        -24    2    5    5    0    0  0.44744021004E+02  0.18439136506E+02 -0.63919427697E+01  0.94119003738E+02  0.80470496218E+02 0.  0.
          5    1    3    3  501    0  0.34074241347E+02 -0.43551404070E+02 -0.14602904191E+03  0.15621891627E+03  0.47000000000E+01 0. -1.
        -11    1    4    4    0    0 -0.40759238195E+02  0.16106363673E+02 -0.31354513018E+02  0.53887252069E+02  0.00000000000E+00 0.  1.
         12    1    4    4    0    0  0.31792981647E+01 -0.38983558434E+02  0.82759531860E+01  0.39978959043E+02  0.00000000000E+00 0. -1.
         -5    1    5    5    0  502 -0.41238322321E+02  0.47989462325E+02  0.84851773144E+02  0.10595046544E+03  0.47000000000E+01 0.  1.
         11    1    6    6    0    0  0.24469369713E+02  0.49677881183E+02  0.38020372029E+01  0.55507633888E+02  0.00000000000E+00 0. -1.
        -12    1    6    6    0    0  0.20274651291E+02 -0.31238744677E+02 -0.10193979973E+02  0.38611369849E+02  0.00000000000E+00 0.  1.
</event>
<event>
12    1  0.8356052E-002  0.2912771E+03  0.7818608E-02  0.1090066E+00
         21   -1    0    0  503  502  0.00000000000E+00  0.00000000000E+00  0.29173404898E+03  0.29173404898E+03  0.00000000000E+00 0. -1.
         21   -1    0    0  501  503 -0.00000000000E+00 -0.00000000000E+00 -0.35004738559E+03  0.35004738559E+03  0.00000000000E+00 0.  1.
          6    2    1    2  501    0 -0.10935174346E+03  0.20699858286E+03 -0.16423549302E+03  0.33184292475E+03  0.16834551504E+03 0.  0.
         24    2    3    3    0    0 -0.24186926537E+02  0.37508098117E+02 -0.88922742210E+02  0.12770039881E+03  0.80051689150E+02 0.  0.
         -6    2    1    2    0  502  0.10935174346E+03 -0.20699858286E+03  0.10592215641E+03  0.30993850982E+03  0.17330943295E+03 0.  0.
        -24    2    5    5    0    0  0.79138867241E+02 -0.61330254679E+02  0.97555770017E+02  0.16086079135E+03  0.79590863052E+02 0.  0.
          5    1    3    3  501    0 -0.85164816920E+02  0.16949048474E+03 -0.75312750807E+02  0.20414252593E+03  0.47000000000E+01 0. -1.
        -11    1    4    4    0    0 -0.14017078469E+02  0.31342757083E+02 -0.10340769777E+03  0.10895870259E+03  0.00000000000E+00 0.  1.
         12    1    4    4    0    0 -0.10169848068E+02  0.61653410340E+01  0.14484955565E+02  0.18741696228E+02  0.00000000000E+00 0. -1.
         -5    1    5    5    0  502  0.30212876215E+02 -0.14566832818E+03  0.83663863921E+01  0.14907771848E+03  0.47000000000E+01 0.  1.
         11    1    6    6    0    0  0.46084329614E+02 -0.62042129879E+02  0.25167766003E+02  0.81279811525E+02  0.00000000000E+00 0. -1.
        -12    1    6    6    0    0  0.33054537627E+02  0.71187520029E+00  0.72388004014E+02  0.79580979820E+02  0.00000000000E+00 0.  1.
</event>
<event>
12    1  0.8356052E-002  0.1766960E+03  0.7818608E-02  0.1171604E+00
         21   -1    0    0  503  502  0.00000000000E+00  0.00000000000E+00  0.79251562276E+03  0.79251562276E+03  0.00000000000E+00 0. -1.
         21   -1    0    0  501  503 -0.00000000000E+00 -0.00000000000E+00 -0.56428063605E+02  0.56428063605E+02  0.00000000000E+00 0. -1.
          6    2    1    2  501    0 -0.37518353998E+02 -0.12817097931E+02  0.12979116720E+03  0.21742425022E+03  0.16986951643E+03 0.  0.
         24    2    3    3    0    0 -0.56195364043E+02 -0.42322299852E+02  0.26414971044E+02  0.10820833757E+03  0.77860115713E+02 0.  0.
         -6    2    1    2    0  502  0.37518353998E+02  0.12817097931E+02  0.60629639196E+03  0.63151943615E+03  0.17219052950E+03 0.  0.
        -24    2    5    5    0    0  0.52119587555E+02 -0.51352008928E+02  0.31886124892E+03  0.33660941301E+03  0.79245950276E+02 0.  0.
          5    1    3    3  501    0  0.18677010045E+02  0.29505201920E+02  0.10337619616E+03  0.10921591265E+03  0.47000000000E+01 0. -1.
        -11    1    4    4    0    0 -0.38453372763E+02  0.17699393494E+02  0.97750144335E+01  0.43445152941E+02  0.00000000000E+00 0.  1.
         12    1    4    4    0    0 -0.17741991280E+02 -0.60021693346E+02  0.16639956611E+02  0.64763184625E+02  0.00000000000E+00 0. -1.
         -5    1    5    5    0  502 -0.14601233557E+02  0.64169106860E+02  0.28743514303E+03  0.29491002314E+03  0.47000000000E+01 0.  1.
         11    1    6    6    0    0 -0.16880892039E+02  0.58527371707E+01  0.43424554192E+02  0.46956479374E+02  0.00000000000E+00 0. -1.
        -12    1    6    6    0    0  0.69000479594E+02 -0.57204746099E+02  0.27543669473E+03  0.28965293364E+03  0.00000000000E+00 0.  1.
</event>
<event>
12    1  0.8356052E-002  0.2566977E+03  0.7818608E-02  0.1109166E+00
         21   -1    0    0  503  502  0.00000000000E+00  0.00000000000E+00  0.73355420400E+02  0.73355420400E+02  0.00000000000E+00 0. -1.
         21   -1    0    0  501  503 -0.00000000000E+00 -0.00000000000E+00 -0.18166871206E+04  0.18166871206E+04  0.00000000000E+00 0. -1.
          6    2    1    2  501    0 -0.83443224477E+02  0.17073389639E+03 -0.15436530712E+04  0.15648267902E+04  0.17235209322E+03 0.  0.
         24    2    3    3    0    0 -0.74209265753E+02  0.19349576138E+03 -0.12095984883E+04  0.12298373533E+04  0.80148536165E+02 0.  0.
         -6    2    1    2    0  502  0.83443224477E+02 -0.17073389639E+03 -0.19967862906E+03  0.32521575085E+03  0.17257141887E+03 0.  0.
        -24    2    5    5    0    0 -0.18870382699E+02 -0.44649031557E+02 -0.63563130598E+02  0.11328419049E+03  0.80270847027E+02 0.  0.
          5    1    3    3  501    0 -0.92339587241E+01 -0.22761864990E+02 -0.33405458284E+03  0.33498943686E+03  0.47000000000E+01 0. -1.
        -11    1    4    4    0    0 -0.30152886352E+02  0.55759586237E+02 -0.19654572911E+03  0.20651525765E+03  0.00000000000E+00 0.  1.
         12    1    4    4    0    0 -0.44056379401E+02  0.13773617514E+03 -0.10130527592E+04  0.10233220957E+04  0.00000000000E+00 0. -1.
         -5    1    5    5    0  502  0.10231360718E+03 -0.12608486483E+03 -0.13611549846E+03  0.21193156035E+03  0.47000000000E+01 0.  1.
         11    1    6    6    0    0  0.29528723766E+01 -0.63294666722E+02 -0.53302437255E+02  0.82801474069E+02  0.00000000000E+00 0. -1.
        -12    1    6    6    0    0 -0.21823255075E+02  0.18645635165E+02 -0.10260693344E+02  0.30482716425E+02  0.00000000000E+00 0.  1.
</event>
<event>
12    1  0.8356052E-002  0.1825017E+03  0.7818608E-02  0.1165875E+00
         21   -1    0    0  501  502  0.00000000000E+00  0.00000000000E+00  0.19900739408E+03  0.19900739408E+03  0.00000000000E+00 0. -1.
         21   -1    0    0  502  503 -0.00000000000E+00 -0.00000000000E+00 -0.25231238437E+03  0.25231238437E+03  0.00000000000E+00 0. -1.
         -6    2    1    2    0  503 -0.48707739813E+02  0.24377902249E+02 -0.15887454009E+03  0.24048385546E+03  0.17211809670E+03 0.  0.
        -24    2    3    3    0    0 -0.30146703812E+02 -0.15357048013E+00 -0.18224147732E+03  0.20156844762E+03  0.80678594960E+02 0.  0.
          6    2    1    2  501    0  0.48707739813E+02 -0.24377902249E+02  0.10556954980E+03  0.21083592299E+03  0.17418418568E+03 0.  0.
         24    2    5    5    0    0  0.65702722944E+02 -0.67133127909E+02  0.10844530608E+03  0.16449804705E+03  0.80470605853E+02 0.  0.
          5    1    5    5  501    0 -0.16994983131E+02  0.42755225661E+02 -0.28757562749E+01  0.46337875945E+02  0.47000000000E+01 0. -1.
        -13    1    6    6    0    0 -0.45251638524E+01 -0.24445951028E+02  0.68992453338E+02  0.73335122875E+02  0.00000000000E+00 0.  1.
         14    1    6    6    0    0  0.70227886797E+02 -0.42687176881E+02  0.39452852742E+02  0.91162924171E+02  0.00000000000E+00 0. -1.
         -5    1    3    3    0  503 -0.18561036001E+02  0.24531472729E+02  0.23366937232E+02  0.38915407839E+02  0.47000000000E+01 0.  1.
         11    1    4    4    0    0 -0.56286198841E+02  0.85999258287E+01 -0.13990943489E+03  0.15105212635E+03  0.00000000000E+00 0. -1.
        -12    1    4    4    0    0  0.26139495029E+02 -0.87534963088E+01 -0.42332042431E+02  0.50516321267E+02  0.00000000000E+00 0.  1.
</event>
<event>
12    1  0.8356052E-002  0.3783577E+03  0.7818608E-02  0.1051549E+00
         21   -1    0    0  501  502  0.00000000000E+00  0.00000000000E+00  0.38311510520E+03  0.38311510520E+03  0.00000000000E+00 0.  1.
         21   -1    0    0  502  503 -0.00000000000E+00 -0.00000000000E+00 -0.50127117807E+03  0.50127117807E+03  0.00000000000E+00 0. -1.
         -6    2    1    2    0  503  0.13249244841E+03  0.30971433274E+03 -0.28224166158E+03  0.47198042479E+03  0.17212771147E+03 0.  0.
        -24    2    3    3    0    0  0.14134563912E+03  0.22991667374E+03 -0.15450931964E+03  0.32103776499E+03  0.79698495176E+02 0.  0.
          6    2    1    2  501    0 -0.13249244841E+03 -0.30971433274E+03  0.16408558871E+03  0.41240585848E+03  0.17227099261E+03 0.  0.
         24    2    5    5    0    0 -0.94934348182E+02 -0.17599232458E+03  0.16909307671E+03  0.27333986229E+03  0.78335068466E+02 0.  0.
          5    1    5    5  501    0 -0.37558100228E+02 -0.13372200816E+03 -0.50074879981E+01  0.13906599619E+03  0.47000000000E+01 0. -1.
        -13    1    6    6    0    0 -0.93362425110E+02 -0.18020486819E+03  0.14650319103E+03  0.25030685552E+03  0.00000000000E+00 0.  1.
         14    1    6    6    0    0 -0.15719230722E+01  0.42125436063E+01  0.22589885681E+02  0.23033006770E+02  0.00000000000E+00 0. -1.
         -5    1    3    3    0  503 -0.88531907059E+01  0.79797659002E+02 -0.12773234194E+03  0.15094265980E+03  0.47000000000E+01 0.  1.
         11    1    4    4    0    0  0.42425056876E+02  0.11451865954E+03 -0.10536943422E+03  0.16129825325E+03  0.00000000000E+00 0. -1.
        -12    1    4    4    0    0  0.98920582239E+02  0.11539801420E+03 -0.49139885420E+02  0.15973951174E+03  0.00000000000E+00 0.  1.
</event>
<event>
12    1  0.8356052E-002  0.1820895E+03  0.7818608E-02  0.1166985E+00
         21   -1    0    0  501  502  0.00000000000E+00  0.00000000000E+00  0.49564482933E+02  0.49564482933E+02  0.00000000000E+00 0. -1.
         21   -1    0    0  502  503 -0.00000000000E+00 -0.00000000000E+00 -0.75181496552E+03  0.75181496552E+03  0.00000000000E+00 0. -1.
         -6    2    1    2    0  503 -0.37673612099E+02  0.12753347316E+02 -0.50199009826E+03  0.53399496899E+03  0.17769248504E+03 0.  0.
        -24    2    3    3    0    0 -0.90861523670E+02  0.32196844143E+02 -0.36737939085E+03  0.38788153342E+03  0.78689350529E+02 0.  0.
          6    2    1    2  501    0  0.37673612099E+02 -0.12753347316E+02 -0.20026038433E+03  0.26738447947E+03  0.17265077298E+03 0.  0.
         24    2    5    5    0    0  0.57591725493E+00  0.24158963711E+02 -0.19831834002E+03  0.21480483318E+03  0.78911121908E+02 0.  0.
          5    1    5    5  501    0  0.37097694844E+02 -0.36912311027E+02 -0.19420443157E+01  0.52579646292E+02  0.47000000000E+01 0. -1.
        -13    1    6    6    0    0 -0.10270738732E+02 -0.23624976845E+02 -0.30216708013E+02  0.39707392866E+02  0.00000000000E+00 0.  1.
         14    1    6    6    0    0  0.10846655987E+02  0.47783940556E+02 -0.16810163200E+03  0.17509744031E+03  0.00000000000E+00 0. -1.
         -5    1    3    3    0  503  0.53187911571E+02 -0.19443496827E+02 -0.13461070740E+03  0.14611343557E+03  0.47000000000E+01 0.  1.
         13    1    4    4    0    0 -0.67209491404E+02  0.12339675680E+02 -0.11613978846E+03  0.13475100666E+03  0.00000000000E+00 0. -1.
        -14    1    4    4    0    0 -0.23652032266E+02  0.19857168463E+02 -0.25123960239E+03  0.25313052676E+03  0.00000000000E+00 0.  1.
</event>
<event>
12    1  0.8356052E-002  0.2579087E+03  0.7818608E-02  0.1108487E+00
         21   -1    0    0  503  502  0.00000000000E+00  0.00000000000E+00  0.14084709514E+03  0.14084709514E+03  0.00000000000E+00 0. -1.
         21   -1    0    0  501  503 -0.00000000000E+00 -0.00000000000E+00 -0.52911603827E+03  0.52911603827E+03  0.00000000000E+00 0. -1.
          6    2    1    2  501    0 -0.17141332604E+03  0.84763055953E+02 -0.83212812127E+02  0.27049334098E+03  0.17226424880E+03 0.  0.
         24    2    3    3    0    0 -0.15596782347E+03  0.74895414132E+02 -0.12301493038E+03  0.22642257377E+03  0.78735149723E+02 0.  0.
         -6    2    1    2    0  502  0.17141332604E+03 -0.84763055953E+02 -0.30505613100E+03  0.39946979243E+03  0.17305943489E+03 0.  0.
        -24    2    5    5    0    0  0.52601406498E+02 -0.17259509210E+02 -0.71382361027E+02  0.12873279492E+03  0.91716369304E+02 0.  0.
          5    1    3    3  501    0 -0.15445502573E+02  0.98676418207E+01  0.39802118257E+02  0.44070767211E+02  0.47000000000E+01 0. -1.
        -11    1    4    4    0    0  0.28054083755E+01  0.54228358265E+00 -0.25790585126E+02  0.25948384704E+02  0.00000000000E+00 0.  1.
         12    1    4    4    0    0 -0.15877323184E+03  0.74353130550E+02 -0.97224345258E+02  0.20047418907E+03  0.00000000000E+00 0. -1.
         -5    1    5    5    0  502  0.11881191954E+03 -0.67503546743E+02 -0.23367376997E+03  0.27073699751E+03  0.47000000000E+01 0.  1.
         11    1    6    6    0    0 -0.10254135584E+02 -0.22495788781E+02 -0.59659812742E+02  0.64579416736E+02  0.00000000000E+00 0. -1.
        -12    1    6    6    0    0  0.62855542082E+02  0.52362795714E+01 -0.11722548285E+02  0.64153378184E+02  0.00000000000E+00 0.  1.
</event>
<event>
12    1  0.8356052E-002  0.1742183E+03  0.7818608E-02  0.1173743E+00
         21   -1    0    0  501  502  0.00000000000E+00  0.00000000000E+00  0.34525913901E+02  0.34525913901E+02  0.00000000000E+00 0.  1.
         21   -1    0    0  502  503 -0.00000000000E+00 -0.00000000000E+00 -0.95862343160E+03  0.95862343160E+03  0.00000000000E+00 0.  1.
         -6    2    1    2    0  503  0.12108018373E+01  0.22413757557E+02 -0.61010428364E+03  0.63449132804E+03  0.17276621740E+03 0.  0.
        -24    2    3    3    0    0 -0.58450946377E+01  0.73655078034E+02 -0.26680716229E+03  0.28728755196E+03  0.76738777737E+02 0.  0.
          6    2    1    2  501    0 -0.12108018373E+01 -0.22413757557E+02 -0.31399323405E+03  0.35865801746E+03  0.17187198691E+03 0.  0.
         24    2    5    5    0    0  0.65532117139E+02 -0.23509337805E+02 -0.20146069735E+03  0.22773254497E+03  0.80178252160E+02 0.  0.
          5    1    5    5  501    0 -0.66742918977E+02  0.10955802481E+01 -0.11253253670E+03  0.13092547249E+03  0.47000000000E+01 0. -1.
        -13    1    6    6    0    0  0.15900261441E+02  0.29471925269E+02 -0.68317072258E+02  0.76083079951E+02  0.00000000000E+00 0.  1.
         14    1    6    6    0    0  0.49631855698E+02 -0.52981263073E+02 -0.13314362510E+03  0.15164946502E+03  0.00000000000E+00 0. -1.
         -5    1    3    3    0  503  0.70558964750E+01 -0.51241320478E+02 -0.34329712135E+03  0.34720377608E+03  0.47000000000E+01 0.  1.
         11    1    4    4    0    0  0.97203615225E+01  0.76437273784E+02 -0.25784570118E+03  0.26911251898E+03  0.00000000000E+00 0. -1.
        -12    1    4    4    0    0 -0.15565456160E+02 -0.27821957500E+01 -0.89614611086E+01  0.18175032981E+02  0.00000000000E+00 0.  1.
</event>
<event>
12    1  0.8356052E-002  0.1774328E+03  0.7818608E-02  0.1171390E+00
         21   -1    0    0  503  502  0.00000000000E+00  0.00000000000E+00  0.33684556380E+03  0.33684556380E+03  0.00000000000E+00 0.  1.
         21   -1    0    0  501  503 -0.00000000000E+00 -0.00000000000E+00 -0.11208656251E+03  0.11208656251E+03  0.00000000000E+00 0.  1.
          6    2    1    2  501    0 -0.17823619190E+02  0.21565730510E+02  0.14365775616E+02  0.17370910170E+03  0.17083826963E+03 0.  0.
         24    2    3    3    0    0  0.53246747951E+02  0.90614998048E+00  0.10707874875E+00  0.98189463264E+02  0.82493163081E+02 0.  0.
         -6    2    1    2    0  502  0.17823619190E+02 -0.21565730510E+02  0.21039322568E+03  0.27522302461E+03  0.17521313229E+03 0.  0.
        -24    2    5    5    0    0  0.16843664408E+02 -0.72583653593E+02  0.19132844699E+03  0.22054812567E+03  0.80515869931E+02 0.  0.
          5    1    3    3  501    0 -0.71070367141E+02  0.20659580529E+02  0.14258696867E+02  0.75519638437E+02  0.47000000000E+01 0. -1.
        -13    1    4    4    0    0  0.84896334018E+01 -0.36537571116E+02  0.10418942901E+02  0.38930994716E+02  0.00000000000E+00 0.  1.
         14    1    4    4    0    0  0.44757114549E+02  0.37443721097E+02 -0.10311864152E+02  0.59258468548E+02  0.00000000000E+00 0. -1.
         -5    1    5    5    0  502  0.97995478232E+00  0.51017923083E+02  0.19064778693E+02  0.54674898937E+02  0.47000000000E+01 0.  1.
         13    1    6    6    0    0  0.36506751759E+02 -0.37365792760E+01  0.48933110621E+02  0.61164975793E+02  0.00000000000E+00 0. -1.
        -14    1    6    6    0    0 -0.19663087351E+02 -0.68847074317E+02  0.14239533637E+03  0.15938314988E+03  0.00000000000E+00 0.  1.
</event>
<event>
12    1  0.8356052E-002  0.1983715E+03  0.7818608E-02  0.1151685E+00
         21   -1    0    0  503  502  0.00000000000E+00  0.00000000000E+00  0.84149439639E+03  0.84149439639E+03  0.00000000000E+00 0.  1.
         21   -1    0    0  501  503 -0.00000000000E+00 -0.00000000000E+00 -0.48241636520E+02  0.48241636520E+02  0.00000000000E+00 0.  1.
          6    2    1    2  501    0  0.83781673969E+02 -0.40962462842E+02  0.30136425380E+03  0.35935355578E+03  0.17209669471E+03 0.  0.
         24    2    3    3    0    0  0.20177803814E+02  0.15614706312E+02  0.23269831192E+03  0.24988424528E+03  0.87422358972E+02 0.  0.
         -6    2    1    2    0  502 -0.83781673969E+02  0.40962462842E+02  0.49188850607E+03  0.53038247713E+03  0.17508277295E+03 0.  0.
        -24    2    5    5    0    0 -0.17069041442E+01 -0.25967223536E+02  0.30154892418E+03  0.31251302724E+03  0.77816632540E+02 0.  0.
          5    1    3    3  501    0  0.63603870155E+02 -0.56577169153E+02  0.68665941880E+02  0.10946931050E+03  0.47000000000E+01 0. -1.
        -13    1    4    4    0    0 -0.38465220578E+01  0.25757328459E+02  0.13867241055E+02  0.29504848343E+02  0.00000000000E+00 0.  1.
         14    1    4    4    0    0  0.24024325872E+02 -0.10142622148E+02  0.21883107086E+03  0.22037939693E+03  0.00000000000E+00 0. -1.
         -5    1    5    5    0  502 -0.82074769825E+02  0.66929686378E+02  0.19033958189E+03  0.21786944989E+03  0.47000000000E+01 0.  1.
         13    1    6    6    0    0  0.14140834171E+02  0.60491181926E+01  0.90597699202E+01  0.17850334814E+02  0.00000000000E+00 0. -1.
        -14    1    6    6    0    0 -0.15847738315E+02 -0.32016341729E+02  0.29248915426E+03  0.29466269243E+03  0.00000000000E+00 0.  1.
</event>
<event>
12    1  0.8356052E-002  0.2766483E+03  0.7818608E-02  0.1097537E+00
         21   -1    0    0  503  502  0.00000000000E+00  0.00000000000E+00  0.45732449311E+03  0.45732449311E+03  0.00000000000E+00 0. -1.
         21   -1    0    0  501  503 -0.00000000000E+00 -0.00000000000E+00 -0.17791923582E+03  0.17791923582E+03  0.00000000000E+00 0. -1.
          6    2    1    2  501    0  0.73133699135E+01 -0.21590987091E+03  0.62235024074E+02  0.28353759245E+03  0.17277097665E+03 0.  0.
         24    2    3    3    0    0 -0.47410557127E+02 -0.16010699218E+03  0.86256327958E+02  0.20163653931E+03  0.73041974215E+02 0.  0.
         -6    2    1    2    0  502 -0.73133699135E+01  0.21590987091E+03  0.21717023322E+03  0.35170613649E+03  0.17281128004E+03 0.  0.
        -24    2    5    5    0    0 -0.75709346203E+02  0.86499325524E+02  0.10130750099E+03  0.16496738435E+03  0.61130922813E+02 0.  0.
          5    1    3    3  501    0  0.54723927041E+02 -0.55802878727E+02 -0.24021303884E+02  0.81901053139E+02  0.47000000000E+01 0. -1.
        -13    1    4    4    0    0  0.77923511766E+01 -0.28316270677E+02  0.43510013851E+02  0.52494316142E+02  0.00000000000E+00 0.  1.
         14    1    4    4    0    0 -0.55202908304E+02 -0.13179072151E+03  0.42746314107E+02  0.14914222316E+03  0.00000000000E+00 0. -1.
         -5    1    5    5    0  502  0.68395976289E+02  0.12941054539E+03  0.11586273223E+03  0.18673875213E+03  0.47000000000E+01 0.  1.
         13    1    6    6    0    0 -0.39078051459E+02  0.82589452086E+02  0.84585977957E+02  0.12451063958E+03  0.00000000000E+00 0. -1.
        -14    1    6    6    0    0 -0.36631294744E+02  0.39098734378E+01  0.16721523037E+02  0.40456744772E+02  0.00000000000E+00 0.  1.
</event>
<event>
12    1  0.8356052E-002  0.1867527E+03  0.7818608E-02  0.1162388E+00
         21   -1    0    0  501  502  0.00000000000E+00  0.00000000000E+00  0.14175261585E+03  0.14175261585E+03  0.00000000000E+00 0. -1.
         21   -1    0    0  502  503 -0.00000000000E+00 -0.00000000000E+00 -0.28772494776E+03  0.28772494776E+03  0.00000000000E+00 0. -1.
         -6    2    1    2    0  503 -0.66673966413E+02  0.30865953171E+02 -0.16054886278E+03  0.24627728802E+03  0.17169286646E+03 0.  0.
        -24    2    3    3    0    0 -0.35406088255E+02  0.86347269979E+02 -0.11151409476E+03  0.16576421335E+03  0.79579764877E+02 0.  0.
          6    2    1    2  501    0  0.66673966413E+02 -0.30865953171E+02  0.14576530872E+02  0.18320027558E+03  0.16718774135E+03 0.  0.
         24    2    5    5    0    0  0.92774879407E+02 -0.65486343549E+02  0.13811512900E+02  0.13958256884E+03  0.79980598860E+02 0.  0.
          5    1    5    5  501    0 -0.26100912994E+02  0.34620390377E+02  0.76501797142E+00  0.43617706743E+02  0.47000000000E+01 0. -1.
        -13    1    6    6    0    0  0.41099322047E+01  0.36676175732E+01 -0.21128500814E+02  0.21834754591E+02  0.00000000000E+00 0.  1.
         14    1    6    6    0    0  0.88664947203E+02 -0.69153961122E+02  0.34940013714E+02  0.11774781425E+03  0.00000000000E+00 0. -1.
         -5    1    3    3    0  503 -0.31267878158E+02 -0.55481316808E+02 -0.49034768017E+02  0.80513074675E+02  0.47000000000E+01 0.  1.
         13    1    4    4    0    0 -0.19770466325E+02 -0.11956077889E+02 -0.21521407324E+02  0.31575150204E+02  0.00000000000E+00 0. -1.
        -14    1    4    4    0    0 -0.15635621931E+02  0.98303347868E+02 -0.89992687439E+02  0.13418906314E+03  0.00000000000E+00 0.  1.
</event>
<event>
12    1  0.8356052E-002  0.1881994E+03  0.7818608E-02  0.1160543E+00
         21   -1    0    0  503  502  0.00000000000E+00  0.00000000000E+00  0.39681132445E+03  0.39681132445E+03  0.00000000000E+00 0.  1.
         21   -1    0    0  501  503 -0.00000000000E+00 -0.00000000000E+00 -0.14029519065E+03  0.14029519065E+03  0.00000000000E+00 0.  1.
          6    2    1    2  501    0  0.64443417289E+02  0.38302362536E+02 -0.35592190469E+02  0.18962083667E+03  0.17049701660E+03 0.  0.
         24    2    3    3    0    0  0.17219030917E+02 -0.46112867979E+01 -0.78384328340E+02  0.11264693830E+03  0.78914325613E+02 0.  0.
         -6    2    1    2    0  502 -0.64443417289E+02 -0.38302362536E+02  0.29210832427E+03  0.34748567842E+03  0.17262386449E+03 0.  0.
        -24    2    5    5    0    0 -0.22168365183E+01 -0.73573454108E+02  0.21802319937E+03  0.24439885586E+03  0.82332968898E+02 0.  0.
          5    1    3    3  501    0  0.47224386372E+02  0.42913649334E+02  0.42792137871E+02  0.76973898374E+02  0.47000000000E+01 0. -1.
        -13    1    4    4    0    0  0.33487264813E+02 -0.33721732650E+02 -0.44532122383E+02  0.65128043741E+02  0.00000000000E+00 0.  1.
         14    1    4    4    0    0 -0.16268233896E+02  0.29110445852E+02 -0.33852205956E+02  0.47518894557E+02  0.00000000000E+00 0. -1.
         -5    1    5    5    0  502 -0.62226580771E+02  0.35271091572E+02  0.74085124907E+02  0.10308682257E+03  0.47000000000E+01 0.  1.
         13    1    6    6    0    0 -0.43030814977E+01 -0.30368313163E+02  0.10505462918E+02  0.32420914637E+02  0.00000000000E+00 0. -1.
        -14    1    6    6    0    0  0.20862449793E+01 -0.43205140945E+02  0.20751773645E+03  0.21197794122E+03  0.00000000000E+00 0.  1.
</event>
<event>
12    1  0.8356052E-002  0.1923946E+03  0.7818608E-02  0.1156827E+00
         21   -1    0    0  501  502  0.00000000000E+00  0.00000000000E+00  0.10665341557E+04  0.10665341557E+04  0.00000000000E+00 0.  1.
         21   -1    0    0  502  503 -0.00000000000E+00 -0.00000000000E+00 -0.69474230581E+02  0.69474230581E+02  0.00000000000E+00 0. -1.
         -6    2    1    2    0  503  0.58527173021E+01  0.85417111895E+02  0.92893290646E+02  0.21159884321E+03  0.16974854844E+03 0.  0.
        -24    2    3    3    0    0 -0.41646129707E+02  0.21060553450E+02  0.12210527434E+02  0.97889980927E+02  0.85178661380E+02 0.  0.
          6    2    1    2  501    0 -0.58527173021E+01 -0.85417111895E+02  0.90416663443E+03  0.92440954303E+03  0.17229440827E+03 0.  0.
         24    2    5    5    0    0  0.34595903034E+02 -0.65081186916E+02  0.83211314165E+03  0.83918374557E+03  0.79903948037E+02 0.  0.
          5    1    5    5  501    0 -0.40448620336E+02 -0.20335924979E+02  0.72053492774E+02  0.85225797461E+02  0.47000000000E+01 0. -1.
        -13    1    6    6    0    0  0.25801313820E+02 -0.19705421985E+01  0.73931521870E+02  0.78329182029E+02  0.00000000000E+00 0.  1.
         14    1    6    6    0    0  0.87945892137E+01 -0.63110644718E+02  0.75818161978E+03  0.76085456354E+03  0.00000000000E+00 0. -1.
         -5    1    3    3    0  503  0.47498847010E+02  0.64356558445E+02  0.80682763212E+02  0.11370886228E+03  0.47000000000E+01 0.  1.
         13    1    4    4    0    0  0.20790881844E+02 -0.14130690504E+02 -0.27074042080E+00  0.25139818661E+02  0.00000000000E+00 0. -1.
        -14    1    4    4    0    0 -0.62437011551E+02  0.35191243954E+02  0.12481267855E+02  0.72750162266E+02  0.00000000000E+00 0.  1.
</event>
<event>
12    1  0.8356052E-002  0.2544003E+03  0.7818608E-02  0.1110594E+00
         21   -1    0    0  503  502  0.00000000000E+00  0.00000000000E+00  0.34606093754E+02  0.34606093754E+02  0.00000000000E+00 0. -1.
         21   -1    0    0  501  503 -0.00000000000E+00 -0.00000000000E+00 -0.20606414045E+04  0.20606414045E+04  0.00000000000E+00 0.  1.
          6    2    1    2  501    0 -0.10600664269E+03  0.15473925775E+03 -0.13326165628E+04  0.13566345763E+04  0.17149001115E+03 0.  0.
         24    2    3    3    0    0 -0.12702932001E+02  0.11739064306E+03 -0.57184066773E+03  0.58923471053E+03  0.79081396373E+02 0.  0.
         -6    2    1    2    0  502  0.10600664269E+03 -0.15473925775E+03 -0.69341874789E+03  0.73861292192E+03  0.17186576830E+03 0.  0.
        -24    2    5    5    0    0  0.94592588309E+02 -0.58148459079E+02 -0.53501811996E+03  0.55267499692E+03  0.82923232395E+02 0.  0.
          5    1    3    3  501    0 -0.93303710693E+02  0.37348614692E+02 -0.76077589509E+03  0.76739986578E+03  0.47000000000E+01 0. -1.
        -11    1    4    4    0    0  0.27294304673E+02  0.88880664175E+02 -0.37842835248E+03  0.38968290890E+03  0.00000000000E+00 0.  1.
         12    1    4    4    0    0 -0.39997236674E+02  0.28509978887E+02 -0.19341231526E+03  0.19955180162E+03  0.00000000000E+00 0. -1.
         -5    1    5    5    0  502  0.11414054385E+02 -0.96590798675E+02 -0.15840062793E+03  0.18593792500E+03  0.47000000000E+01 0.  1.
         11    1    6    6    0    0  0.10529617458E+03 -0.50796777053E+02 -0.39182058944E+03  0.40888992559E+03  0.00000000000E+00 0. -1.
        -12    1    6    6    0    0 -0.10703586276E+02 -0.73516820259E+01 -0.14319753053E+03  0.14378507133E+03  0.00000000000E+00 0.  1.
</event>
<event>
12    1  0.8356052E-002  0.1854392E+03  0.7818608E-02  0.1163615E+00
         21   -1    0    0  503  502  0.00000000000E+00  0.00000000000E+00  0.23162342223E+03  0.23162342223E+03  0.00000000000E+00 0.  1.
         21   -1    0    0  501  503 -0.00000000000E+00 -0.00000000000E+00 -0.14517792840E+03  0.14517792840E+03  0.00000000000E+00 0.  1.
          6    2    1    2  501    0 -0.33712760591E+02 -0.49913440485E+02  0.41449601676E+02  0.18598119659E+03  0.17100594796E+03 0.  0.
         24    2    3    3    0    0 -0.66644232856E+02 -0.33955645196E+02  0.77486754505E+02  0.13440698326E+03  0.80415175262E+02 0.  0.
         -6    2    1    2    0  502  0.33712760591E+02  0.49913440485E+02  0.44995892148E+02  0.19082015404E+03  0.17538471744E+03 0.  0.
        -24    2    5    5    0    0 -0.23270856581E+02  0.69906539876E+02 -0.12322809836E+02  0.10742722720E+03  0.77202981931E+02 0.  0.
          5    1    3    3  501    0  0.32931472265E+02 -0.15957795289E+02 -0.36037152829E+02  0.51574213325E+02  0.47000000000E+01 0. -1.
        -13    1    4    4    0    0 -0.11882565083E+02 -0.26322069492E+02 -0.10297832809E+02  0.30660920662E+02  0.00000000000E+00 0.  1.
         14    1    4    4    0    0 -0.54761667773E+02 -0.76335757037E+01  0.87784587313E+02  0.10374606260E+03  0.00000000000E+00 0. -1.
         -5    1    5    5    0  502  0.56983617172E+02 -0.19993099391E+02  0.57318701984E+02  0.83392926837E+02  0.47000000000E+01 0.  1.
         11    1    6    6    0    0 -0.19009511278E+02 -0.73190378010E+01  0.15111037092E+02  0.25362832558E+02  0.00000000000E+00 0. -1.
        -12    1    6    6    0    0 -0.42613453027E+01  0.77225577677E+02 -0.27433846928E+02  0.82064394646E+02  0.00000000000E+00 0.  1.
</event>
<event>
12    1  0.8356052E-002  0.2637040E+03  0.7818608E-02  0.1105053E+00
         21   -1    0    0  501  502  0.00000000000E+00  0.00000000000E+00  0.33725246321E+03  0.33725246321E+03  0.00000000000E+00 0.  1.
         21   -1    0    0  502  503 -0.00000000000E+00 -0.00000000000E+00 -0.38666342458E+03  0.38666342458E+03  0.00000000000E+00 0. -1.
         -6    2    1    2    0  503  0.19150385260E+03 -0.51893578275E+02 -0.27242186904E+03  0.37914832092E+03  0.17370407450E+03 0.  0.
        -24    2    3    3    0    0  0.14583365685E+03 -0.53573957366E+02 -0.28220622038E+03  0.33217583977E+03  0.81011192613E+02 0.  0.
          6    2    1    2  501    0 -0.19150385260E+03  0.51893578275E+02  0.22301090766E+03  0.34476756687E+03  0.17252287152E+03 0.  0.
         24    2    5    5    0    0 -0.18821025938E+03 -0.55047189548E+01  0.15878473272E+03  0.25843968128E+03  0.78262851020E+02 0.  0.
          5    1    5    5  501    0 -0.32935932242E+01  0.57398297230E+02  0.64226174943E+02  0.86327885582E+02  0.47000000000E+01 0. -1.
        -13    1    6    6    0    0 -0.77492996491E+02 -0.26966853212E+02  0.10565442332E+03  0.13377306472E+03  0.00000000000E+00 0.  1.
         14    1    6    6    0    0 -0.11071726289E+03  0.21462134257E+02  0.53130309402E+02  0.12466661657E+03  0.00000000000E+00 0. -1.
         -5    1    3    3    0  503  0.45670195753E+02  0.16803790912E+01  0.97843513436E+01  0.46972481148E+02  0.47000000000E+01 0.  1.
         11    1    4    4    0    0  0.15052374401E+03 -0.54115050967E+02 -0.23228688816E+03  0.28203374739E+03  0.00000000000E+00 0. -1.
        -12    1    4    4    0    0 -0.46900871592E+01  0.54109360052E+00 -0.49919332219E+02  0.50142092388E+02  0.00000000000E+00 0.  1.
</event>
<event>
12    1  0.8356052E-002  0.3415830E+03  0.7818608E-02  0.1066301E+00
         21   -1    0    0  503  502  0.00000000000E+00  0.00000000000E+00  0.19746045062E+04  0.19746045062E+04  0.00000000000E+00 0. -1.
         21   -1    0    0  501  503 -0.00000000000E+00 -0.00000000000E+00 -0.60313391262E+02  0.60313391262E+02  0.00000000000E+00 0.  1.
          6    2    1    2  501    0 -0.25025221678E+03  0.15481835768E+03  0.79370788290E+03  0.86342921641E+03  0.17012616641E+03 0.  0.
         24    2    3    3    0    0 -0.21259027155E+03  0.53417563524E+02  0.47640318979E+03  0.52816081432E+03  0.62815498785E+02 0.  0.
         -6    2    1    2    0  502  0.25025221678E+03 -0.15481835768E+03  0.11205832321E+04  0.11714886811E+04  0.17344755413E+03 0.  0.
        -24    2    5    5    0    0  0.10237585685E+03 -0.94600170867E+01  0.51891270682E+03  0.53507216971E+03  0.80383589750E+02 0.  0.
          5    1    3    3  501    0 -0.37661945227E+02  0.10140079415E+03  0.31730469311E+03  0.33526840209E+03  0.47000000000E+01 0. -1.
        -11    1    4    4    0    0 -0.68048215686E+01  0.23517577219E+01  0.56497708773E+00  0.72218806465E+01  0.00000000000E+00 0.  1.
         12    1    4    4    0    0 -0.20578544998E+03  0.51065805802E+02  0.47583821270E+03  0.52093893367E+03  0.00000000000E+00 0. -1.
         -5    1    5    5    0  502  0.14787635992E+03 -0.14535834059E+03  0.60167052525E+03  0.63641651138E+03  0.47000000000E+01 0.  1.
         11    1    6    6    0    0  0.72237830803E+02  0.32182329600E+02  0.30993939416E+03  0.31986940240E+03  0.00000000000E+00 0. -1.
        -12    1    6    6    0    0  0.30138026048E+02 -0.41642346687E+02  0.20897331266E+03  0.21520276731E+03  0.00000000000E+00 0.  1.
</event>
<event>
12    1  0.8356052E-002  0.1804258E+03  0.7818608E-02  0.1167517E+00
         21   -1    0    0  501  502  0.00000000000E+00  0.00000000000E+00  0.20458968882E+03  0.20458968882E+03  0.00000000000E+00 0.  1.
         21   -1    0    0  502  503 -0.00000000000E+00 -0.00000000000E+00 -0.15881121945E+03  0.15881121945E+03  0.00000000000E+00 0. -1.
         -6    2    1    2    0  503  0.55329230549E+02 -0.57181184659E+00  0.17241316122E+02  0.18073229041E+03  0.17118775393E+03 0.  0.
        -24    2    3    3    0    0  0.19478914934E+02  0.51856327388E+02 -0.30738527520E+02  0.10099453079E+03  0.78654506284E+02 0.  0.
          6    2    1    2  501    0 -0.55329230549E+02  0.57181184659E+00  0.28537153249E+02  0.18266861785E+03  0.17173177955E+03 0.  0.
         24    2    5    5    0    0 -0.83679320807E+02  0.12909421007E+02  0.64257756728E+02  0.13519235293E+03  0.83540595582E+02 0.  0.
          5    1    5    5  501    0  0.28350090258E+02 -0.12337609160E+02 -0.35720603479E+02  0.47476264916E+02  0.47000000000E+01 0. -1.
        -11    1    6    6    0    0 -0.70919495726E+02 -0.14280584659E+02  0.98036499523E+01  0.73004256894E+02  0.00000000000E+00 0.  1.
         12    1    6    6    0    0 -0.12759825081E+02  0.27190005665E+02  0.54454106775E+02  0.62188096038E+02  0.00000000000E+00 0. -1.
         -5    1    3    3    0  503  0.35850315615E+02 -0.52428139235E+02  0.47979843642E+02  0.79737759620E+02  0.47000000000E+01 0.  1.
         13    1    4    4    0    0  0.25130495604E+02  0.12844344236E+02 -0.49774930334E+02  0.57219425704E+02  0.00000000000E+00 0. -1.
        -14    1    4    4    0    0 -0.56515806699E+01  0.39011983152E+02  0.19036402814E+02  0.43775105089E+02  0.00000000000E+00 0.  1.
</event>
<event>
12    1  0.8356052E-002  0.2196109E+03  0.7818608E-02  0.1134308E+00
         21   -1    0    0  503  502  0.00000000000E+00  0.00000000000E+00  0.46853296065E+03  0.46853296065E+03  0.00000000000E+00 0.  1.
         21   -1    0    0  501  503 -0.00000000000E+00 -0.00000000000E+00 -0.11479293484E+03  0.11479293484E+03  0.00000000000E+00 0.  1.
          6    2    1    2  501    0 -0.79754170458E+02 -0.11272394967E+03  0.27219156484E+03  0.34973877190E+03  0.17076751467E+03 0.  0.
         24    2    3    3    0    0  0.57792812043E+01 -0.57323512079E+01  0.12923791615E+03  0.15169582411E+03  0.79012177170E+02 0.  0.
         -6    2    1    2    0  502  0.79754170458E+02  0.11272394967E+03  0.81548460968E+02  0.23358712359E+03  0.16983926602E+03 0.  0.
        -24    2    5    5    0    0  0.12777456354E+02  0.91575702791E+02 -0.46078553048E+01  0.12233008151E+03  0.79962764950E+02 0.  0.
          5    1    3    3  501    0 -0.85533451663E+02 -0.10699159847E+03  0.14295364869E+03  0.19804294779E+03  0.47000000000E+01 0. -1.
        -13    1    4    4    0    0  0.27420130905E+01 -0.30086206837E+02  0.12989688617E+02  0.32885110430E+02  0.00000000000E+00 0.  1.
         14    1    4    4    0    0  0.30372681137E+01  0.24353855629E+02  0.11624822753E+03  0.11881071368E+03  0.00000000000E+00 0. -1.
         -5    1    5    5    0  502  0.66976714104E+02  0.21148246884E+02  0.86156316273E+02  0.11125704208E+03  0.47000000000E+01 0.  1.
         13    1    6    6    0    0  0.19565290655E+02 -0.75431137794E+01 -0.91431075350E+01  0.22875654730E+02  0.00000000000E+00 0. -1.
        -14    1    6    6    0    0 -0.67878343008E+01  0.99118816570E+02  0.45352522302E+01  0.99454426777E+02  0.00000000000E+00 0.  1.
</event>
<event>
12    1  0.8356052E-002  0.2120916E+03  0.7818608E-02  0.1140375E+00
         21   -1    0    0  503  502  0.00000000000E+00  0.00000000000E+00  0.64060587330E+02  0.64060587330E+02  0.00000000000E+00 0. -1.
         21   -1    0    0  501  503 -0.00000000000E+00 -0.00000000000E+00 -0.84045417263E+03  0.84045417263E+03  0.00000000000E+00 0. -1.
          6    2    1    2  501    0  0.76470334582E+02 -0.96588935237E+02 -0.57838621481E+03  0.61604664228E+03  0.17264332450E+03 0.  0.
         24    2    3    3    0    0 -0.46369147850E+01 -0.91901835360E+02 -0.25391301033E+03  0.28152413895E+03  0.79476887681E+02 0.  0.
         -6    2    1    2    0  502 -0.76470334582E+02  0.96588935237E+02 -0.19800737048E+03  0.28846811768E+03  0.16979340879E+03 0.  0.
        -24    2    5    5    0    0 -0.89698605272E+02  0.98202352201E+02 -0.86658275437E+02  0.17622596327E+03  0.76527064894E+02 0.  0.
          5    1    3    3  501    0  0.81107249367E+02 -0.46870998774E+01 -0.32447320449E+03  0.33452250333E+03  0.47000000000E+01 0. -1.
        -13    1    4    4    0    0 -0.23970741782E+02  0.18847499132E+01 -0.33764557269E+02  0.41451104586E+02  0.00000000000E+00 0.  1.
         14    1    4    4    0    0  0.19333826998E+02 -0.93786585273E+02 -0.22014845306E+03  0.24007303436E+03  0.00000000000E+00 0. -1.
         -5    1    5    5    0  502  0.13228270690E+02 -0.16134169639E+01 -0.11134909505E+03  0.11224215441E+03  0.47000000000E+01 0.  1.
         13    1    6    6    0    0  0.24701963772E+01 -0.88019962043E+01  0.21571748708E+01  0.93931044254E+01  0.00000000000E+00 0. -1.
        -14    1    6    6    0    0 -0.92168801650E+02  0.10700434841E+03 -0.88815450308E+02  0.16683285884E+03  0.00000000000E+00 0.  1.
</event>
<event>
12    1  0.8356052E-002  0.2244819E+03  0.7818608E-02  0.1131055E+00
         21   -1    0    0  501  502  0.00000000000E+00  0.00000000000E+00  0.79703413094E+03  0.79703413094E+03  0.00000000000E+00 0. -1.
         21   -1    0    0  502  503 -0.00000000000E+00 -0.00000000000E+00 -0.83110197522E+02  0.83110197522E+02  0.00000000000E+00 0.  1.
         -6    2    1    2    0  503 -0.43227696511E+02  0.13217241665E+03  0.13628055863E+03  0.26041537792E+03  0.17293234784E+03 0.  0.
        -24    2    3    3    0    0  0.18153270115E+02  0.89058735087E+02  0.54544129454E+02  0.14937778764E+03  0.10525047206E+03 0.  0.
          6    2    1    2  501    0  0.43227696511E+02 -0.13217241665E+03  0.57764337479E+03  0.61972895055E+03  0.17622123095E+03 0.  0.
         24    2    5    5    0    0  0.25335820389E+02 -0.13575855274E+03  0.28730321945E+03  0.32877796600E+03  0.80495481777E+02 0.  0.
          5    1    5    5  501    0  0.17891876121E+02  0.35861360883E+01  0.29034015534E+03  0.29095098454E+03  0.47000000000E+01 0. -1.
        -13    1    6    6    0    0  0.46417650391E+01  0.11489977323E+01 -0.40049625544E+01  0.62374597015E+01  0.00000000000E+00 0.  1.
         14    1    6    6    0    0  0.20694055350E+02 -0.13690755047E+03  0.29130818200E+03  0.32254050630E+03  0.00000000000E+00 0. -1.
         -5    1    3    3    0  503 -0.61380966625E+02  0.43113681561E+02  0.81736429173E+02  0.11103759028E+03  0.47000000000E+01 0.  1.
         11    1    4    4    0    0 -0.18904599585E+02  0.13818110385E+02  0.60918864763E+02  0.65264325202E+02  0.00000000000E+00 0. -1.
        -12    1    4    4    0    0  0.37057869700E+02  0.75240624702E+02 -0.63747353089E+01  0.84113462433E+02  0.00000000000E+00 0.  1.
</event>
<event>
12    1  0.8356052E-002  0.2371969E+03  0.7818608E-02  0.1121797E+00
         21   -1    0    0  503  502  0.00000000000E+00  0.00000000000E+00  0.14969781613E+04  0.14969781613E+04  0.00000000000E+00 0. -1.
         21   -1    0    0  501  503 -0.00000000000E+00 -0.00000000000E+00 -0.18518185172E+03  0.18518185172E+03  0.00000000000E+00 0. -1.
          6    2    1    2  501    0 -0.14727567484E+03 -0.69616073189E+02 -0.95489456748E+02  0.25502456302E+03  0.17141402903E+03 0.  0.
         24    2    3    3    0    0 -0.78889364223E+02  0.29106882784E+02 -0.29093928366E+02  0.11771700422E+03  0.77072005299E+02 0.  0.
         -6    2    1    2    0  502  0.14727567484E+03  0.69616073189E+02  0.14072857664E+04  0.14271354500E+04  0.17241183977E+03 0.  0.
        -24    2    5    5    0    0  0.89471740568E+02  0.11261295694E+03  0.95330452106E+03  0.96744959218E+03  0.80512937446E+02 0.  0.
          5    1    3    3  501    0 -0.68386310621E+02 -0.98722955972E+02 -0.66395528382E+02  0.13730755881E+03  0.47000000000E+01 0. -1.
        -11    1    4    4    0    0 -0.89310465445E+01  0.21734023850E+02 -0.40137481730E+02  0.46509663778E+02  0.00000000000E+00 0.  1.
         12    1    4    4    0    0 -0.69958317678E+02  0.73728589338E+01  0.11043553364E+02  0.71207340437E+02  0.00000000000E+00 0. -1.
         -5    1    5    5    0  502  0.57803934275E+02 -0.42996883750E+02  0.45398124530E+03  0.45968585786E+03  0.47000000000E+01 0.  1.
         11    1    6    6    0    0  0.23194000758E+02 -0.80373612722E+00  0.56585323732E+02  0.61159680548E+02  0.00000000000E+00 0. -1.
        -12    1    6    6    0    0  0.66277739810E+02  0.11341669307E+03  0.89671919733E+03  0.90628991163E+03  0.00000000000E+00 0.  1.
</event>
<event>
12    1  0.8356052E-002  0.2943665E+03  0.7818608E-02  0.1088339E+00
         21   -1    0    0  501  502  0.00000000000E+00  0.00000000000E+00  0.85439619212E+02  0.85439619212E+02  0.00000000000E+00 0.  1.
         21   -1    0    0  502  503 -0.00000000000E+00 -0.00000000000E+00 -0.10142569977E+04  0.10142569977E+04  0.00000000000E+00 0. -1.
         -6    2    1    2    0  503 -0.23833534423E+03 -0.48685999910E+01 -0.50761164797E+03  0.58582315718E+03  0.16938638303E+03 0.  0.
        -24    2    3    3    0    0 -0.78345473330E+02  0.50968544439E+02 -0.19560044927E+03  0.23073496588E+03  0.79014448099E+02 0.  0.
          6    2    1    2  501    0  0.23833534423E+03  0.48685999910E+01 -0.42120573056E+03  0.51387345978E+03  0.17269691841E+03 0.  0.
         24    2    5    5    0    0  0.36466675935E+02 -0.10316341635E+02 -0.16227208137E+03  0.18516345631E+03  0.80728135144E+02 0.  0.
          5    1    5    5  501    0  0.20186866830E+03  0.15184941626E+02 -0.25893364919E+03  0.32871000346E+03  0.47000000000E+01 0. -1.
        -13    1    6    6    0    0 -0.20846932306E+02 -0.72765403155E+01 -0.13934573267E+02  0.26109671727E+02  0.00000000000E+00 0.  1.
         14    1    6    6    0    0  0.57313608241E+02 -0.30398013194E+01 -0.14833750810E+03  0.15905378459E+03  0.00000000000E+00 0. -1.
         -5    1    3    3    0  503 -0.15998987090E+03 -0.55837144430E+02 -0.31201119869E+03  0.35508819130E+03  0.47000000000E+01 0.  1.
         13    1    4    4    0    0 -0.18010525150E+02 -0.12610314973E+02 -0.94066313683E+02  0.96601606766E+02  0.00000000000E+00 0. -1.
        -14    1    4    4    0    0 -0.60334948181E+02  0.63578859413E+02 -0.10153413559E+03  0.13413335911E+03  0.00000000000E+00 0.  1.
</event>
<event>
12    1  0.8356052E-002  0.1726844E+03  0.7818608E-02  0.1175306E+00
         21   -1    0    0  501  502  0.00000000000E+00  0.00000000000E+00  0.27061904358E+03  0.27061904358E+03  0.00000000000E+00 0. -1.
         21   -1    0    0  502  503 -0.00000000000E+00 -0.00000000000E+00 -0.20454558404E+03  0.20454558404E+03  0.00000000000E+00 0. -1.
         -6    2    1    2    0  503 -0.60337495639E+01  0.14499629275E+02 -0.12876575525E+03  0.21540783214E+03  0.17196880252E+03 0.  0.
        -24    2    3    3    0    0 -0.38547653746E+02 -0.47619722771E+02 -0.63382929108E+02  0.11942360522E+03  0.80567004263E+02 0.  0.
          6    2    1    2  501    0  0.60337495639E+01 -0.14499629275E+02  0.19483921479E+03  0.25975679547E+03  0.17106907316E+03 0.  0.
         24    2    5    5    0    0 -0.52271205891E+02 -0.22811270707E+02  0.16399760740E+03  0.19310962029E+03  0.84519093574E+02 0.  0.
          5    1    5    5  501    0  0.58304955455E+02  0.83116414323E+01  0.30841607384E+02  0.66647175183E+02  0.47000000000E+01 0. -1.
        -11    1    6    6    0    0 -0.57711147514E+02  0.13218524742E+02  0.66560174973E+02  0.89081776117E+02  0.00000000000E+00 0.  1.
         12    1    6    6    0    0  0.54399416231E+01 -0.36029795450E+02  0.97437432428E+02  0.10402784417E+03  0.00000000000E+00 0. -1.
         -5    1    3    3    0  503  0.32513904182E+02  0.62119352046E+02 -0.65382826139E+02  0.95984226922E+02  0.47000000000E+01 0.  1.
         11    1    4    4    0    0 -0.37612015903E+02  0.75927762639E+01 -0.49232098873E+02  0.62418855734E+02  0.00000000000E+00 0. -1.
        -12    1    4    4    0    0 -0.93563784247E+00 -0.55212499035E+02 -0.14150830235E+02  0.57004749488E+02  0.00000000000E+00 0.  1.
</event>
<event>
12    1  0.8356052E-002  0.2332345E+03  0.7818608E-02  0.1124703E+00
         21   -1    0    0  501  502  0.00000000000E+00  0.00000000000E+00  0.13326588684E+04  0.13326588684E+04  0.00000000000E+00 0.  1.
         21   -1    0    0  502  503 -0.00000000000E+00 -0.00000000000E+00 -0.52470243819E+02  0.52470243819E+02  0.00000000000E+00 0.  1.
         -6    2    1    2    0  503  0.37075376986E+02 -0.15208055956E+03  0.30732799709E+03  0.38470112872E+03  0.17041531758E+03 0.  0.
        -24    2    3    3    0    0 -0.19353157817E+02 -0.11071576753E+03  0.27407148215E+03  0.30709113358E+03  0.80976917055E+02 0.  0.
          6    2    1    2  501    0 -0.37075376986E+02  0.15208055956E+03  0.97286062745E+03  0.10004279835E+04  0.17290248544E+03 0.  0.
         24    2    5    5    0    0 -0.28218127428E+02  0.17579739800E+02  0.23581925751E+03  0.25114766716E+03  0.79744081546E+02 0.  0.
          5    1    5    5  501    0 -0.88572495580E+01  0.13450081976E+03  0.73704136994E+03  0.74928031630E+03  0.47000000000E+01 0. -1.
        -13    1    6    6    0    0 -0.63408608508E+01  0.45047641787E+02  0.86253509929E+02  0.97514945121E+02  0.00000000000E+00 0.  1.
         14    1    6    6    0    0 -0.21877266578E+02 -0.27467901987E+02  0.14956574758E+03  0.15363272204E+03  0.00000000000E+00 0. -1.
         -5    1    3    3    0  503  0.56428534803E+02 -0.41364792029E+02  0.33256514937E+02  0.77609995138E+02  0.47000000000E+01 0.  1.
         13    1    4    4    0    0  0.91279018884E+01 -0.36484111028E+02  0.18015675152E+03  0.18404038706E+03  0.00000000000E+00 0. -1.
        -14    1    4    4    0    0 -0.28481059705E+02 -0.74231656504E+02  0.93914730628E+02  0.12305074652E+03  0.00000000000E+00 0.  1.
</event>
<event>
12    1  0.8356052E-002  0.1918099E+03  0.7818608E-02  0.1157070E+00
         21   -1    0    0  501  502  0.00000000000E+00  0.00000000000E+00  0.68368958003E+03  0.68368958003E+03  0.00000000000E+00 0.  1.
         21   -1    0    0  502  503 -0.00000000000E+00 -0.00000000000E+00 -0.14523722407E+03  0.14523722407E+03  0.00000000000E+00 0.  1.
         -6    2    1    2    0  503  0.76005181747E+02 -0.31940436404E+02 -0.59861677369E+02  0.20093399854E+03  0.17318796789E+03 0.  0.
        -24    2    3    3    0    0 -0.65552063776E+00 -0.55429005488E+02 -0.72376944603E+02  0.11964871031E+03  0.77489272888E+02 0.  0.
          6    2    1    2  501    0 -0.76005181747E+02  0.31940436404E+02  0.59831403333E+03  0.62799280557E+03  0.17204157124E+03 0.  0.
         24    2    5    5    0    0 -0.68611777566E+02  0.20807732689E+02  0.60331182598E+03  0.61297057375E+03  0.81284851991E+02 0.  0.
          5    1    5    5  501    0 -0.73934041814E+01  0.11132703715E+02 -0.49977926460E+01  0.15022231816E+02  0.47000000000E+01 0. -1.
        -11    1    6    6    0    0 -0.19475304191E+02  0.40559567386E+02  0.41248711382E+03  0.41493371163E+03  0.00000000000E+00 0.  1.
         12    1    6    6    0    0 -0.49136473375E+02 -0.19751834698E+02  0.19082471216E+03  0.19803686213E+03  0.00000000000E+00 0. -1.
         -5    1    3    3    0  503  0.76660702385E+02  0.23488569084E+02  0.12515267234E+02  0.81285288224E+02  0.47000000000E+01 0.  1.
         13    1    4    4    0    0  0.33609811482E+01 -0.72600176537E+02 -0.40452430661E+02  0.83177406631E+02  0.00000000000E+00 0. -1.
        -14    1    4    4    0    0 -0.40165017860E+01  0.17171171049E+02 -0.31924513942E+02  0.36471303681E+02  0.00000000000E+00 0.  1.
</event>
<event>
12    1  0.8356052E-002  0.1797026E+03  0.7818608E-02  0.1168704E+00
         21   -1    0    0  503  502  0.00000000000E+00  0.00000000000E+00  0.33330597013E+02  0.33330597013E+02  0.00000000000E+00 0. -1.
         21   -1    0    0  501  503 -0.00000000000E+00 -0.00000000000E+00 -0.96332130080E+03  0.96332130080E+03  0.00000000000E+00 0. -1.
          6    2    1    2  501    0 -0.48871728496E+02  0.17137501853E+02 -0.41652970033E+03  0.45265260807E+03  0.16945575388E+03 0.  0.
         24    2    3    3    0    0 -0.21879409759E+02 -0.49028448345E+02 -0.15726686031E+03  0.18368080946E+03  0.78251371187E+02 0.  0.
         -6    2    1    2    0  502  0.48871728496E+02 -0.17137501853E+02 -0.51346100347E+03  0.54399928975E+03  0.17207813733E+03 0.  0.
        -24    2    5    5    0    0  0.13207389755E+01 -0.59262014081E+02 -0.41402653732E+03  0.42591087291E+03  0.80426161087E+02 0.  0.
          5    1    3    3  501    0 -0.26992318737E+02  0.66165950198E+02 -0.25926284001E+03  0.26897179861E+03  0.47000000000E+01 0. -1.
        -11    1    4    4    0    0  0.10922715212E+02  0.17486425927E+02 -0.38098447002E+02  0.43319423626E+02  0.00000000000E+00 0.  1.
         12    1    4    4    0    0 -0.32802124972E+02 -0.66514874273E+02 -0.11916841331E+03  0.14036138583E+03  0.00000000000E+00 0. -1.
         -5    1    5    5    0  502  0.47550989521E+02  0.42124512228E+02 -0.99434466144E+02  0.11808841684E+03  0.47000000000E+01 0.  1.
         11    1    6    6    0    0  0.23932861377E+02 -0.17409759944E+02 -0.45185727820E+02  0.54015105235E+02  0.00000000000E+00 0. -1.
        -12    1    6    6    0    0 -0.22612122402E+02 -0.41852254137E+02 -0.36884080950E+03  0.37189576767E+03  0.00000000000E+00 0.  1.
</event>
<event>
12    1  0.8356052E-002  0.2471956E+03  0.7818608E-02  0.1115292E+00
         21   -1    0    0  501  502  0.00000000000E+00  0.00000000000E+00  0.15305585404E+03  0.15305585404E+03  0.00000000000E+00 0.  1.
         21   -1    0    0  502  503 -0.00000000000E+00 -0.00000000000E+00 -0.45701834175E+03  0.45701834175E+03  0.00000000000E+00 0.  1.
         -6    2    1    2    0  503  0.16825658487E+03  0.58125308076E+02 -0.41296383050E+02  0.24938160197E+03  0.16969667751E+03 0.  0.
        -24    2    3    3    0    0  0.16753989284E+03  0.18174367416E+02 -0.70445779325E+02  0.19969892280E+03  0.80728734766E+02 0.  0.
          6    2    1    2  501    0 -0.16825658487E+03 -0.58125308076E+02 -0.26266610466E+03  0.36069259382E+03  0.17151336657E+03 0.  0.
         24    2    5    5    0    0 -0.10460022738E+03 -0.32681455103E+02 -0.25415553059E+03  0.29145357756E+03  0.91328358487E+02 0.  0.
          5    1    5    5  501    0 -0.63656357485E+02 -0.25443852974E+02 -0.85105740646E+01  0.69239016264E+02  0.47000000000E+01 0. -1.
        -11    1    6    6    0    0 -0.76868288682E+02 -0.54881537922E+02 -0.12020290694E+03  0.15287071612E+03  0.00000000000E+00 0.  1.
         12    1    6    6    0    0 -0.27731938702E+02  0.22200082819E+02 -0.13395262365E+03  0.13858286144E+03  0.00000000000E+00 0. -1.
         -5    1    3    3    0  503  0.71669202721E+00  0.39950940660E+02  0.29149396275E+02  0.49682679178E+02  0.47000000000E+01 0.  1.
         11    1    4    4    0    0  0.26412137841E+02  0.13260274717E+02 -0.48493442678E+02  0.56789522746E+02  0.00000000000E+00 0. -1.
        -12    1    4    4    0    0  0.14112775500E+03  0.49140926995E+01 -0.21952336646E+02  0.14290940005E+03  0.00000000000E+00 0.  1.
</event>
<event>
12    1  0.8356052E-002  0.1950501E+03  0.7818608E-02  0.1154373E+00
         21   -1    0    0  501  502  0.00000000000E+00  0.00000000000E+00  0.95260056972E+02  0.95260056972E+02  0.00000000000E+00 0. -1.
         21   -1    0    0  502  503 -0.00000000000E+00 -0.00000000000E+00 -0.69583819039E+03  0.69583819039E+03  0.00000000000E+00 0. -1.
         -6    2    1    2    0  503  0.47414039151E+02 -0.74647976939E+02 -0.56083342804E+03  0.59378335558E+03  0.17385087801E+03 0.  0.
        -24    2    3    3    0    0  0.14652501045E+02  0.67106580282E+01 -0.43298416683E+03  0.43867026956E+03  0.68531656567E+02 0.  0.
          6    2    1    2  501    0 -0.47414039151E+02  0.74647976939E+02 -0.39744705380E+02  0.19731489178E+03  0.17185201001E+03 0.  0.
         24    2    5    5    0    0 -0.43145048961E+01  0.10326312822E+03  0.24679648592E+01  0.13037912956E+03  0.79440153407E+02 0.  0.
          5    1    5    5  501    0 -0.43099534255E+02 -0.28615151276E+02 -0.42212670239E+02  0.66935762222E+02  0.47000000000E+01 0. -1.
        -13    1    6    6    0    0  0.19113297199E+02  0.91769174677E+02 -0.20110854379E+02  0.95871507836E+02  0.00000000000E+00 0.  1.
         14    1    6    6    0    0 -0.23427802095E+02  0.11493953538E+02  0.22578819239E+02  0.34507621726E+02  0.00000000000E+00 0. -1.
         -5    1    3    3    0  503  0.32761538106E+02 -0.81358634968E+02 -0.12784926121E+03  0.15511308602E+03  0.47000000000E+01 0.  1.
         13    1    4    4    0    0  0.40767104572E+02 -0.11068150678E+01 -0.31194068357E+03  0.31459525095E+03  0.00000000000E+00 0. -1.
        -14    1    4    4    0    0 -0.26114603527E+02  0.78174730960E+01 -0.12104348326E+03  0.12407501860E+03  0.00000000000E+00 0.  1.
</event>
<event>
12    1  0.8356052E-002  0.1782415E+03  0.7818608E-02  0.1169591E+00
         21   -1    0    0  501  502  0.00000000000E+00  0.00000000000E+00  0.43471846307E+03  0.43471846307E+03  0.00000000000E+00 0.  1.
         21   -1    0    0  502  503 -0.00000000000E+00 -0.00000000000E+00 -0.74961114544E+02  0.74961114544E+02  0.00000000000E+00 0.  1.
         -6    2    1    2    0  503 -0.42216815539E+02 -0.18709488294E+02  0.22170342065E+03  0.28446867155E+03  0.17215607424E+03 0.  0.
        -24    2    3    3    0    0 -0.86591381021E+02 -0.23588475484E+02  0.20139712358E+03  0.23520060604E+03  0.81878203784E+02 0.  0.
          6    2    1    2  501    0  0.42216815539E+02  0.18709488294E+02  0.13805392788E+03  0.22521090607E+03  0.17183934573E+03 0.  0.
         24    2    5    5    0    0  0.39942548344E+02  0.77196621919E+02  0.91496765637E+02  0.15027375609E+03  0.81583197062E+02 0.  0.
          5    1    5    5  501    0  0.22742671953E+01 -0.58487133626E+02  0.46557162241E+02  0.74937149979E+02  0.47000000000E+01 0. -1.
        -11    1    6    6    0    0 -0.17392588654E+01  0.76993648511E+01  0.64315771973E+02  0.64798331499E+02  0.00000000000E+00 0.  1.
         12    1    6    6    0    0  0.41681807209E+02  0.69497257068E+02  0.27180993664E+02  0.85475424590E+02  0.00000000000E+00 0. -1.
         -5    1    3    3    0  503  0.44374565482E+02  0.48789871901E+01  0.20306297071E+02  0.49268065504E+02  0.47000000000E+01 0.  1.
         13    1    4    4    0    0  0.96901594767E+01  0.70138208178E+01  0.61414976041E+02  0.62569099044E+02  0.00000000000E+00 0. -1.
        -14    1    4    4    0    0 -0.96281540498E+02 -0.30602296302E+02  0.13998214754E+03  0.17263150700E+03  0.00000000000E+00 0.  1.
</event>
<event>
12    1  0.8356052E-002  0.2601538E+03  0.7818608E-02  0.1107316E+00
         21   -1    0    0  501  502  0.00000000000E+00  0.00000000000E+00  0.40075235560E+03  0.40075235560E+03  0.00000000000E+00 0. -1.
         21   -1    0    0  502  503 -0.00000000000E+00 -0.00000000000E+00 -0.27348480327E+03  0.27348480327E+03  0.00000000000E+00 0. -1.
         -6    2    1    2    0  503  0.10328982475E+02  0.19410911118E+03 -0.14585831054E+03  0.29825263484E+03  0.17290156886E+03 0.  0.
        -24    2    3    3    0    0 -0.40496896853E+02  0.17508956370E+03 -0.14569950564E+03  0.24378128077E+03  0.76841479270E+02 0.  0.
          6    2    1    2  501    0 -0.10328982475E+02 -0.19410911118E+03  0.27312586287E+03  0.37598452403E+03  0.17023980268E+03 0.  0.
         24    2    5    5    0    0  0.41275058495E+01 -0.94558629451E+02  0.55096891862E+02  0.13582205680E+03  0.80334257396E+02 0.  0.
          5    1    5    5  501    0 -0.14456488325E+02 -0.99550481728E+02  0.21802897101E+03  0.24016246723E+03  0.47000000000E+01 0. -1.
        -11    1    6    6    0    0 -0.28661042795E+02 -0.16586785444E+02  0.36372778934E+02  0.49188981214E+02  0.00000000000E+00 0.  1.
         12    1    6    6    0    0  0.32788548644E+02 -0.77971844006E+02  0.18724112928E+02  0.86633075582E+02  0.00000000000E+00 0. -1.
         -5    1    3    3    0  503  0.50825879328E+02  0.19019547474E+02 -0.15880489819E+00  0.54471354073E+02  0.47000000000E+01 0.  1.
         13    1    4    4    0    0  0.55417846561E+01  0.86446685202E+02 -0.10449379475E+03  0.13573022472E+03  0.00000000000E+00 0. -1.
        -14    1    4    4    0    0 -0.46038681509E+02  0.88642878502E+02 -0.41205710885E+02  0.10805105605E+03  0.00000000000E+00 0.  1.
</event>
<event>
12    1  0.8356052E-002  0.2337183E+03  0.7818608E-02  0.1124180E+00
         21   -1    0    0  503  502  0.00000000000E+00  0.00000000000E+00  0.54245420929E+02  0.54245420929E+02  0.00000000000E+00 0. -1.
         21   -1    0    0  501  503 -0.00000000000E+00 -0.00000000000E+00 -0.10900720762E+04  0.10900720762E+04  0.00000000000E+00 0. -1.
          6    2    1    2  501    0 -0.28091951407E+02 -0.15582931157E+03 -0.67969408040E+03  0.71875469019E+03  0.17190791041E+03 0.  0.
         24    2    3    3    0    0  0.16884911805E+02 -0.92064817296E+02 -0.57580754127E+03  0.58874187557E+03  0.79382873662E+02 0.  0.
         -6    2    1    2    0  502  0.28091951407E+02  0.15582931157E+03 -0.35613257483E+03  0.42556280690E+03  0.17088405334E+03 0.  0.
        -24    2    5    5    0    0  0.36142083514E+02  0.16794916248E+03 -0.22678529063E+03  0.29531494572E+03  0.79159192378E+02 0.  0.
          5    1    3    3  501    0 -0.44976863212E+02 -0.63764494270E+02 -0.10388653913E+03  0.13001281462E+03  0.47000000000E+01 0. -1.
        -11    1    4    4    0    0  0.13465971558E+02 -0.41841318159E+02 -0.88230487130E+02  0.98573054911E+02  0.00000000000E+00 0.  1.
         12    1    4    4    0    0  0.34189402466E+01 -0.50223499136E+02 -0.48757705414E+03  0.49016882066E+03  0.00000000000E+00 0. -1.
         -5    1    5    5    0  502 -0.80501321072E+01 -0.12119850915E+02 -0.12934728420E+03  0.13024786119E+03  0.47000000000E+01 0.  1.
         13    1    6    6    0    0 -0.70114280946E+01  0.13368854964E+03 -0.16645598796E+03  0.21361035639E+03  0.00000000000E+00 0. -1.
        -14    1    6    6    0    0  0.43153511609E+02  0.34260612842E+02 -0.60329302672E+02  0.81704589329E+02  0.00000000000E+00 0.  1.
</event>
<event>
12    1  0.8356052E-002  0.2287875E+03  0.7818608E-02  0.1127548E+00
         21   -1    0    0  503  502  0.00000000000E+00  0.00000000000E+00  0.32505992661E+03  0.32505992661E+03  0.00000000000E+00 0.  1.
         21   -1    0    0  501  503 -0.00000000000E+00 -0.00000000000E+00 -0.16635712013E+03  0.16635712013E+03  0.00000000000E+00 0. -1.
          6    2    1    2  501    0  0.78716250111E+02 -0.13016220419E+03  0.34584283692E+02  0.23138662789E+03  0.17089544013E+03 0.  0.
         24    2    3    3    0    0  0.11372589965E+03 -0.95350504451E+02 -0.28335890436E+01  0.16926000558E+03  0.81336469762E+02 0.  0.
         -6    2    1    2    0  502 -0.78716250111E+02  0.13016220419E+03  0.12411852279E+03  0.26003041885E+03  0.17050502514E+03 0.  0.
        -24    2    5    5    0    0 -0.26933510879E+02  0.15082971405E+03  0.92994633641E+02  0.19600398273E+03  0.79338154201E+02 0.  0.
          5    1    3    3  501    0 -0.35009649539E+02 -0.34811699739E+02  0.37417872735E+02  0.62126622309E+02  0.47000000000E+01 0. -1.
        -11    1    4    4    0    0  0.79801787402E+02 -0.41611854129E+02  0.33528602067E+02  0.96041859797E+02  0.00000000000E+00 0.  1.
         12    1    4    4    0    0  0.33924112249E+02 -0.53738650322E+02 -0.36362191111E+02  0.73218145788E+02  0.00000000000E+00 0. -1.
         -5    1    5    5    0  502 -0.51782739232E+02 -0.20667509862E+02  0.31123889149E+02  0.64026436119E+02  0.47000000000E+01 0.  1.
         13    1    6    6    0    0  0.21828789867E+02  0.48655433649E+02  0.68983204621E+01  0.53772057017E+02  0.00000000000E+00 0. -1.
        -14    1    6    6    0    0 -0.48762300747E+02  0.10217428040E+03  0.86096313179E+02  0.14223192572E+03  0.00000000000E+00 0.  1.
</event>
<event>
12    1  0.8356052E-002  0.1845023E+03  0.7818608E-02  0.1163635E+00
         21   -1    0    0  503  502  0.00000000000E+00  0.00000000000E+00  0.99021682988E+02  0.99021682988E+02  0.00000000000E+00 0. -1.
         21   -1    0    0  501  503 -0.00000000000E+00 -0.00000000000E+00 -0.38677511287E+03  0.38677511287E+03  0.00000000000E+00 0. -1.
          6    2    1    2  501    0  0.54615969918E+02 -0.35400397204E+02 -0.22558158915E+03  0.29110102163E+03  0.17209491317E+03 0.  0.
         24    2    3    3    0    0 -0.35237001049E+02 -0.35601770646E+01 -0.12250905995E+03  0.15062542842E+03  0.80157525010E+02 0.  0.
         -6    2    1    2    0  502 -0.54615969918E+02  0.35400397204E+02 -0.62171840724E+02  0.19469577422E+03  0.17264128831E+03 0.  0.
        -24    2    5    5    0    0 -0.29838133270E+02  0.79864982764E+02 -0.78878261183E+02  0.14091627029E+03  0.79792765819E+02 0.  0.
          5    1    3    3  501    0  0.89852970967E+02 -0.31840220139E+02 -0.10307252921E+03  0.14047559321E+03  0.47000000000E+01 0. -1.
        -13    1    4    4    0    0 -0.19981927380E+02 -0.41848644520E+02 -0.62502564126E+02  0.77827739221E+02  0.00000000000E+00 0.  1.
         14    1    4    4    0    0 -0.15255073669E+02  0.38288467456E+02 -0.60006495819E+02  0.72797689203E+02  0.00000000000E+00 0. -1.
         -5    1    5    5    0  502 -0.24777836648E+02 -0.44464585560E+02  0.16706420459E+02  0.53779503926E+02  0.47000000000E+01 0.  1.
         13    1    6    6    0    0 -0.36526082248E+02  0.87379986885E+00 -0.33519841642E+02  0.49583243080E+02  0.00000000000E+00 0. -1.
        -14    1    6    6    0    0  0.66879489776E+01  0.78991182895E+02 -0.45358419541E+02  0.91333027214E+02  0.00000000000E+00 0.  1.
</event>
<event>
12    1  0.8356052E-002  0.2254717E+03  0.7818608E-02  0.1130147E+00
         21   -1    0    0  501  502  0.00000000000E+00  0.00000000000E+00  0.28827032971E+03  0.28827032971E+03  0.00000000000E+00 0. -1.
         21   -1    0    0  502  503 -0.00000000000E+00 -0.00000000000E+00 -0.18055960473E+03  0.18055960473E+03  0.00000000000E+00 0.  1.
         -6    2    1    2    0  503  0.13315274254E+03 -0.55162189101E+02  0.13107743988E+02  0.22431568079E+03  0.17138608969E+03 0.  0.
        -24    2    3    3    0    0  0.10794128381E+03  0.28719626219E+02 -0.52394795169E+01  0.13470269510E+03  0.75108097044E+02 0.  0.
          6    2    1    2  501    0 -0.13315274254E+03  0.55162189101E+02  0.94602980999E+02  0.24451425365E+03  0.17339254964E+03 0.  0.
         24    2    5    5    0    0 -0.27406144085E+02 -0.30760336940E+02  0.38795639742E+02  0.97199716335E+02  0.79027768096E+02 0.  0.
          5    1    5    5  501    0 -0.10574659846E+03  0.85922526041E+02  0.55807341257E+02  0.14731453732E+03  0.47000000000E+01 0. -1.
        -13    1    6    6    0    0 -0.15679258876E+02 -0.75331446456E+01 -0.23760861630E+02  0.29447681956E+02  0.00000000000E+00 0.  1.
         14    1    6    6    0    0 -0.11726885209E+02 -0.23227192294E+02  0.62556501372E+02  0.67752034379E+02  0.00000000000E+00 0. -1.
         -5    1    3    3    0  503  0.25211458734E+02 -0.83881815320E+02  0.18347223505E+02  0.89612985684E+02  0.47000000000E+01 0.  1.
         13    1    4    4    0    0  0.64578187975E+02  0.13728879766E+02  0.34061807090E+02  0.74290182420E+02  0.00000000000E+00 0. -1.
        -14    1    4    4    0    0  0.43363095835E+02  0.14990746453E+02 -0.39301286607E+02  0.60412512682E+02  0.00000000000E+00 0.  1.
</event>
<event>
12    1  0.8356052E-002  0.1777272E+03  0.7818608E-02  0.1170812E+00
         21   -1    0    0  501  502  0.00000000000E+00  0.00000000000E+00  0.71636384977E+03  0.71636384977E+03  0.00000000000E+00 0.  1.
         21   -1    0    0  502  503 -0.00000000000E+00 -0.00000000000E+00 -0.44206159206E+02  0.44206159206E+02  0.00000000000E+00 0.  1.
         -6    2    1    2    0  503  0.31799898575E+02 -0.81609937836E+01  0.28481023229E+03  0.33571390891E+03  0.17466861439E+03 0.  0.
        -24    2    3    3    0    0  0.67114859133E+02 -0.24772049677E+02  0.96553392096E+02  0.14339697909E+03  0.78243704699E+02 0.  0.
          6    2    1    2  501    0 -0.31799898575E+02  0.81609937836E+01  0.38734745828E+03  0.42485610007E+03  0.17142583516E+03 0.  0.
         24    2    5    5    0    0  0.19924700762E+02 -0.10512443129E+02  0.77866475344E+02  0.11049213868E+03  0.75085415135E+02 0.  0.
          5    1    5    5  501    0 -0.51724599337E+02  0.18673436913E+02  0.30948098293E+03  0.31436396139E+03  0.47000000000E+01 0. -1.
        -11    1    6    6    0    0  0.23846411179E+02  0.23435625768E+02  0.66578660808E+02  0.74502335240E+02  0.00000000000E+00 0.  1.
         12    1    6    6    0    0 -0.39217104165E+01 -0.33948068897E+02  0.11287814536E+02  0.35989803437E+02  0.00000000000E+00 0. -1.
         -5    1    3    3    0  503 -0.35314960558E+02  0.16611055893E+02  0.18825684019E+03  0.19231692982E+03  0.47000000000E+01 0.  1.
         13    1    4    4    0    0  0.36657158327E+02  0.83638404605E+01  0.90480568251E+02  0.97981806040E+02  0.00000000000E+00 0. -1.
        -14    1    4    4    0    0  0.30457700806E+02 -0.33135890138E+02  0.60728238446E+01  0.45415173049E+02  0.00000000000E+00 0.  1.
</event>
<event>
12    1  0.8356052E-002  0.2080677E+03  0.7818608E-02  0.1143939E+00
         21   -1    0    0  503  502  0.00000000000E+00  0.00000000000E+00  0.14039144047E+03  0.14039144047E+03  0.00000000000E+00 0. -1.
         21   -1    0    0  501  503 -0.00000000000E+00 -0.00000000000E+00 -0.52678217162E+03  0.52678217162E+03  0.00000000000E+00 0. -1.
          6    2    1    2  501    0  0.10347422864E+03  0.50994239135E+02 -0.40984651576E+03  0.45778796487E+03  0.16819133710E+03 0.  0.
         24    2    3    3    0    0 -0.86675546978E+01  0.40530803140E+02 -0.17617633239E+03  0.19834797631E+03  0.81153848372E+02 0.  0.
         -6    2    1    2    0  502 -0.10347422864E+03 -0.50994239135E+02  0.23455784618E+02  0.20938564722E+03  0.17316133233E+03 0.  0.
        -24    2    5    5    0    0  0.88634049565E+01 -0.11773907678E+02 -0.18784771095E+02  0.83035606193E+02  0.79528984787E+02 0.  0.
          5    1    3    3  501    0  0.11214178334E+03  0.10463435995E+02 -0.23367018337E+03  0.25943998855E+03  0.47000000000E+01 0. -1.
        -13    1    4    4    0    0  0.13464900539E+02  0.56927031144E+02 -0.85622275908E+02  0.10369746647E+03  0.00000000000E+00 0.  1.
         14    1    4    4    0    0 -0.22132455237E+02 -0.16396228003E+02 -0.90554056483E+02  0.94650509841E+02  0.00000000000E+00 0. -1.
         -5    1    5    5    0  502 -0.11233763360E+03 -0.39220331458E+02  0.42240555713E+02  0.12635004103E+03  0.47000000000E+01 0.  1.
         13    1    6    6    0    0  0.31829794782E+02 -0.16025872400E+02  0.17641609400E+02  0.39764189974E+02  0.00000000000E+00 0. -1.
        -14    1    6    6    0    0 -0.22966389826E+02  0.42519647217E+01 -0.36426380495E+02  0.43271416219E+02  0.00000000000E+00 0.  1.
</event>
<event>
12    1  0.8356052E-002  0.1775364E+03  0.7818608E-02  0.1170654E+00
         21   -1    0    0  501  502  0.00000000000E+00  0.00000000000E+00  0.72225420594E+03  0.72225420594E+03  0.00000000000E+00 0.  1.
         21   -1    0    0  502  503 -0.00000000000E+00 -0.00000000000E+00 -0.56770106214E+02  0.56770106214E+02  0.00000000000E+00 0.  1.
         -6    2    1    2    0  503  0.25002561345E+02 -0.28834774670E+02  0.52446919888E+03  0.55370310265E+03  0.17338573471E+03 0.  0.
        -24    2    3    3    0    0  0.43740917925E+02 -0.40564129585E+02  0.52247831489E+03  0.53101483711E+03  0.73718730278E+02 0.  0.
          6    2    1    2  501    0 -0.25002561345E+02  0.28834774670E+02  0.14101490084E+03  0.22532120951E+03  0.17154554174E+03 0.  0.
         24    2    5    5    0    0 -0.17482439524E+02  0.40227466831E+01  0.26136555649E+01  0.84434078584E+02  0.82464927384E+02 0.  0.
          5    1    5    5  501    0 -0.75201218211E+01  0.24812027987E+02  0.13840124528E+03  0.14088713092E+03  0.47000000000E+01 0. -1.
        -11    1    6    6    0    0 -0.13506374824E+02 -0.38778464503E+02 -0.25344589403E+01  0.41141401923E+02  0.00000000000E+00 0.  1.
         12    1    6    6    0    0 -0.39760646999E+01  0.42801211186E+02  0.51481145051E+01  0.43292676661E+02  0.00000000000E+00 0. -1.
         -5    1    3    3    0  503 -0.18738356580E+02  0.11729354916E+02  0.19908839960E+01  0.22688265538E+02  0.47000000000E+01 0.  1.
         11    1    4    4    0    0  0.76535339121E+00 -0.49458032747E+02  0.32304108608E+03  0.32680609858E+03  0.00000000000E+00 0. -1.
        -12    1    4    4    0    0  0.42975564533E+02  0.88939031622E+01  0.19943722880E+03  0.20420873853E+03  0.00000000000E+00 0.  1.
</event>
<event>
12    1  0.8356052E-002  0.2680677E+03  0.7818608E-02  0.1104142E+00
         21   -1    0    0  503  502  0.00000000000E+00  0.00000000000E+00  0.20466361341E+03  0.20466361341E+03  0.00000000000E+00 0.  1.
         21   -1    0    0  501  503 -0.00000000000E+00 -0.00000000000E+00 -0.75771654609E+03  0.75771654609E+03  0.00000000000E+00 0. -1.
          6    2    1    2  501    0 -0.18988099958E+03  0.13948433751E+02 -0.63833077902E+03  0.69233407697E+03  0.18870860577E+03 0.  0.
         24    2    3    3    0    0 -0.12425425271E+03 -0.65825321007E+02 -0.34173069389E+03  0.37822514308E+03  0.80636837186E+02 0.  0.
         -6    2    1    2    0  502  0.18988099958E+03 -0.13948433751E+02  0.85277846340E+02  0.27004608252E+03  0.17147367963E+03 0.  0.
        -24    2    5    5    0    0  0.77527642684E+02  0.31647454467E+02  0.93092057055E+02  0.14845079595E+03  0.79745915111E+02 0.  0.
          5    1    3    3  501    0 -0.65626746871E+02  0.79773754758E+02 -0.29660008513E+03  0.31410893389E+03  0.47000000000E+01 0. -1.
        -11    1    4    4    0    0  0.30284256074E+01 -0.85481348826E+01  0.21960890535E-01  0.90687625347E+01  0.00000000000E+00 0.  1.
         12    1    4    4    0    0 -0.12728267832E+03 -0.57277186124E+02 -0.34175265478E+03  0.36915638055E+03  0.00000000000E+00 0. -1.
         -5    1    5    5    0  502  0.11235335690E+03 -0.45595888218E+02 -0.78142107147E+01  0.12159528658E+03  0.47000000000E+01 0.  1.
         13    1    6    6    0    0 -0.12740960256E+02  0.17002115583E+02  0.57907724372E+01  0.22021286247E+02  0.00000000000E+00 0. -1.
        -14    1    6    6    0    0  0.90268602940E+02  0.14645338884E+02  0.87301284618E+02  0.12642950970E+03  0.00000000000E+00 0.  1.
</event>
<event>
12    1  0.8356052E-002  0.1878774E+03  0.7818608E-02  0.1160597E+00
         21   -1    0    0  501  502  0.00000000000E+00  0.00000000000E+00  0.92855975440E+03  0.92855975440E+03  0.00000000000E+00 0. -1.
         21   -1    0    0  502  503 -0.00000000000E+00 -0.00000000000E+00 -0.12995972461E+03  0.12995972461E+03  0.00000000000E+00 0. -1.
         -6    2    1    2    0  503  0.29956675318E+02 -0.65028921732E+02 -0.46036370463E+02  0.19343544850E+03  0.17370020804E+03 0.  0.
        -24    2    3    3    0    0 -0.47440936272E+02 -0.58201111563E+02 -0.31662419312E+02  0.11427921221E+03  0.80120020756E+02 0.  0.
          6    2    1    2  501    0 -0.29956675318E+02  0.65028921732E+02  0.84463640026E+03  0.86508403050E+03  0.17272396515E+03 0.  0.
         24    2    5    5    0    0 -0.16031717565E+02 -0.79885486222E+01  0.65403310708E+03  0.66044493161E+03  0.90040933240E+02 0.  0.
          5    1    5    5  501    0 -0.13924957753E+02  0.73017470355E+02  0.19060329317E+03  0.20463909889E+03  0.47000000000E+01 0. -1.
        -11    1    6    6    0    0 -0.19661155154E+02  0.14314947574E+02  0.46361221656E+02  0.52353047852E+02  0.00000000000E+00 0.  1.
         12    1    6    6    0    0  0.36294375893E+01 -0.22303496196E+02  0.60767188543E+03  0.60809188376E+03  0.00000000000E+00 0. -1.
         -5    1    3    3    0  503  0.77397611590E+02 -0.68278101692E+01 -0.14373951152E+02  0.79156236288E+02  0.47000000000E+01 0.  1.
         11    1    4    4    0    0 -0.23373287089E+02 -0.75933934365E+02 -0.18279829592E+02  0.81525610132E+02  0.00000000000E+00 0. -1.
        -12    1    4    4    0    0 -0.24067649183E+02  0.17732822802E+02 -0.13382589719E+02  0.32753602082E+02  0.00000000000E+00 0.  1.
</event>
<event>
12    1  0.8356052E-002  0.1790814E+03  0.7818608E-02  0.1168840E+00
         21   -1    0    0  503  502  0.00000000000E+00  0.00000000000E+00  0.34097336700E+02  0.34097336700E+02  0.00000000000E+00 0. -1.
         21   -1    0    0  501  503 -0.00000000000E+00 -0.00000000000E+00 -0.11812823232E+04  0.11812823232E+04  0.00000000000E+00 0. -1.
          6    2    1    2  501    0 -0.41937101877E+02  0.15246713487E+02 -0.84893455867E+03  0.86749538464E+03  0.17282122173E+03 0.  0.
         24    2    3    3    0    0 -0.13183344573E+02  0.38632241183E+02 -0.80399230358E+03  0.80905261129E+03  0.80599336103E+02 0.  0.
         -6    2    1    2    0  502  0.41937101877E+02 -0.15246713487E+02 -0.29825042782E+03  0.34788427525E+03  0.17343289332E+03 0.  0.
        -24    2    5    5    0    0 -0.37532224208E+02  0.20418507890E+02 -0.15278347760E+03  0.17826674841E+03  0.81305960687E+02 0.  0.
          5    1    3    3  501    0 -0.28753757303E+02 -0.23385527696E+02 -0.44942255089E+02  0.58442773353E+02  0.47000000000E+01 0. -1.
        -11    1    4    4    0    0 -0.54840892246E+01 -0.23460723104E+02 -0.13431829701E+03  0.13646203016E+03  0.00000000000E+00 0.  1.
         12    1    4    4    0    0 -0.76992553488E+01  0.62092964288E+02 -0.66967400657E+03  0.67259058112E+03  0.00000000000E+00 0. -1.
         -5    1    5    5    0  502  0.79469326085E+02 -0.35665221377E+02 -0.14546695022E+03  0.16961752684E+03  0.47000000000E+01 0.  1.
         11    1    6    6    0    0 -0.14016312116E+02 -0.31084199922E+02 -0.71427243598E+02  0.79148819436E+02  0.00000000000E+00 0. -1.
        -12    1    6    6    0    0 -0.23515912092E+02  0.51502707811E+02 -0.81356234003E+02  0.99117928976E+02  0.00000000000E+00 0.  1.
</event>
<event>
12    1  0.8356052E-002  0.1718596E+03  0.7818608E-02  0.1175957E+00
         21   -1    0    0  503  502  0.00000000000E+00  0.00000000000E+00  0.41752138455E+03  0.41752138455E+03  0.00000000000E+00 0.  1.
         21   -1    0    0  501  503 -0.00000000000E+00 -0.00000000000E+00 -0.71800371658E+02  0.71800371658E+02  0.00000000000E+00 0.  1.
          6    2    1    2  501    0  0.55742696954E+01 -0.69599900312E+01  0.20329176733E+03  0.26611374884E+03  0.17149189693E+03 0.  0.
         24    2    3    3    0    0  0.66362988816E+02 -0.25160733879E+02  0.14366201283E+03  0.17891092164E+03  0.79581625633E+02 0.  0.
         -6    2    1    2    0  502 -0.55742696954E+01  0.69599900312E+01  0.14242924557E+03  0.22320800737E+03  0.17162811722E+03 0.  0.
        -24    2    5    5    0    0 -0.60440882518E+02  0.32061689089E+02  0.11491901563E+03  0.15672986623E+03  0.81711802270E+02 0.  0.
          5    1    3    3  501    0 -0.60788719121E+02  0.18200743848E+02  0.59629754496E+02  0.87202827192E+02  0.47000000000E+01 0. -1.
        -11    1    4    4    0    0  0.16288827395E+02  0.23489889880E+02  0.14417972688E+02  0.32015289486E+02  0.00000000000E+00 0.  1.
         12    1    4    4    0    0  0.50074161421E+02 -0.48650623758E+02  0.12924404014E+03  0.14689563216E+03  0.00000000000E+00 0. -1.
         -5    1    5    5    0  502  0.54866612823E+02 -0.25101699057E+02  0.27510229938E+02  0.66478141140E+02  0.47000000000E+01 0.  1.
         11    1    6    6    0    0 -0.11961052206E+02  0.51477903574E+02  0.70896515143E+02  0.88427129240E+02  0.00000000000E+00 0. -1.
        -12    1    6    6    0    0 -0.48479830312E+02 -0.19416214485E+02  0.44022500486E+02  0.68302736995E+02  0.00000000000E+00 0.  1.
</event>
<event>
12    1  0.8356052E-002  0.2277002E+03  0.7818608E-02  0.1129806E+00
         21   -1    0    0  503  502  0.00000000000E+00  0.00000000000E+00  0.11189028726E+04  0.11189028726E+04  0.00000000000E+00 0. -1.
         21   -1    0    0  501  503 -0.00000000000E+00 -0.00000000000E+00 -0.45619512775E+02  0.45619512775E+02  0.00000000000E+00 0.  1.
          6    2    1    2  501    0 -0.14091647055E+03  0.46780372000E+02  0.61226673152E+03  0.65033981383E+03  0.16132410872E+03 0.  0.
         24    2    3    3    0    0 -0.34051394939E+02  0.24991531139E+02  0.63141099990E+02  0.90468447201E+02  0.49129088177E+02 0.  0.
         -6    2    1    2    0  502  0.14091647055E+03 -0.46780372000E+02  0.46101662827E+03  0.51418257150E+03  0.17263119771E+03 0.  0.
        -24    2    5    5    0    0  0.90691129623E+02  0.10254096591E+02  0.14348878367E+03  0.18765303598E+03  0.79338536553E+02 0.  0.
          5    1    3    3  501    0 -0.10686507561E+03  0.21788840861E+02  0.54912563153E+03  0.55987136663E+03  0.47000000000E+01 0. -1.
        -11    1    4    4    0    0 -0.62849281884E+01  0.27234866661E+02  0.54588512164E+02  0.61328165998E+02  0.00000000000E+00 0.  1.
         12    1    4    4    0    0 -0.27766466751E+02 -0.22433355224E+01  0.85525878265E+01  0.29140281204E+02  0.00000000000E+00 0. -1.
         -5    1    5    5    0  502  0.50225340924E+02 -0.57034468591E+02  0.31752784459E+03  0.32652953552E+03  0.47000000000E+01 0.  1.
         13    1    6    6    0    0 -0.14417535446E+02  0.62741321828E+01  0.17403413453E+02  0.23454399647E+02  0.00000000000E+00 0. -1.
        -14    1    6    6    0    0  0.10510866507E+03  0.39799644081E+01  0.12608537022E+03  0.16419863633E+03  0.00000000000E+00 0.  1.
</event>
<event>
12    1  0.8356052E-002  0.1913248E+03  0.7818608E-02  0.1157835E+00
         21   -1    0    0  501  502  0.00000000000E+00  0.00000000000E+00  0.23667426332E+03  0.23667426332E+03  0.00000000000E+00 0. -1.
         21   -1    0    0  502  503 -0.00000000000E+00 -0.00000000000E+00 -0.28584127058E+03  0.28584127058E+03  0.00000000000E+00 0. -1.
         -6    2    1    2    0  503  0.73212565990E+02  0.28409578019E+02 -0.20300610169E+03  0.27895634288E+03  0.17446483877E+03 0.  0.
        -24    2    3    3    0    0  0.21384674331E+02 -0.49960628859E+02 -0.11962384345E+03  0.15324750998E+03  0.78876908289E+02 0.  0.
          6    2    1    2  501    0 -0.73212565990E+02 -0.28409578019E+02  0.15383909443E+03  0.24355919102E+03  0.17171903975E+03 0.  0.
         24    2    5    5    0    0 -0.65680978852E+02  0.37305837967E+02  0.49574729820E+02  0.11999387051E+03  0.78963020428E+02 0.  0.
          5    1    5    5  501    0 -0.75315871377E+01 -0.65715415986E+02  0.10426436461E+03  0.12356532050E+03  0.47000000000E+01 0. -1.
        -11    1    6    6    0    0 -0.43820165222E+02 -0.17965451959E+02  0.34733836096E+02  0.58731624481E+02  0.00000000000E+00 0.  1.
         12    1    6    6    0    0 -0.21860813630E+02  0.55271289926E+02  0.14840893723E+02  0.61262246034E+02  0.00000000000E+00 0. -1.
         -5    1    3    3    0  503  0.51827891659E+02  0.78370206878E+02 -0.83382258240E+02  0.12570883290E+03  0.47000000000E+01 0.  1.
         13    1    4    4    0    0  0.54727435035E+01 -0.74473148250E+01 -0.10521775672E+03  0.10562286565E+03  0.00000000000E+00 0. -1.
        -14    1    4    4    0    0  0.15911930827E+02 -0.42513314034E+02 -0.14406086737E+02  0.47624644334E+02  0.00000000000E+00 0.  1.
</event>
<event>
12    1  0.8356052E-002  0.2665995E+03  0.7818608E-02  0.1103527E+00
         21   -1    0    0  503  502  0.00000000000E+00  0.00000000000E+00  0.53421731244E+03  0.53421731244E+03  0.00000000000E+00 0. -1.
         21   -1    0    0  501  503 -0.00000000000E+00 -0.00000000000E+00 -0.19379736094E+03  0.19379736094E+03  0.00000000000E+00 0. -1.
          6    2    1    2  501    0  0.12306277715E+03  0.16217087237E+03 -0.34794262635E+02  0.26886041482E+03  0.17213786039E+03 0.  0.
         24    2    3    3    0    0 -0.56768473465E+01  0.52814166029E+02 -0.81047240391E+01  0.97783819087E+02  0.81697160259E+02 0.  0.
         -6    2    1    2    0  502 -0.12306277715E+03 -0.16217087237E+03  0.37521421413E+03  0.45915425856E+03  0.16909490738E+03 0.  0.
        -24    2    5    5    0    0 -0.15134024402E+02 -0.20788816775E+02  0.10913516425E+03  0.13906418983E+03  0.82262696404E+02 0.  0.
          5    1    3    3  501    0  0.12873962450E+03  0.10935670634E+03 -0.26689538596E+02  0.17107659574E+03  0.47000000000E+01 0. -1.
        -13    1    4    4    0    0 -0.92507047933E+01 -0.20861622546E+01  0.29603332269E+02  0.31085123348E+02  0.00000000000E+00 0.  1.
         14    1    4    4    0    0  0.35738574467E+01  0.54900328283E+02 -0.37708056308E+02  0.66698695738E+02  0.00000000000E+00 0. -1.
         -5    1    5    5    0  502 -0.10792875275E+03 -0.14138205560E+03  0.26607904989E+03  0.32009006874E+03  0.47000000000E+01 0.  1.
         11    1    6    6    0    0 -0.87847404238E+01 -0.49758143941E+02  0.91598329955E+02  0.10461022227E+03  0.00000000000E+00 0. -1.
        -12    1    6    6    0    0 -0.63492839779E+01  0.28969327166E+02  0.17536834291E+02  0.34453967557E+02  0.00000000000E+00 0.  1.
</event>
<event>
12    1  0.8356052E-002  0.1851014E+03  0.7818608E-02  0.1163108E+00
         21   -1    0    0  503  502  0.00000000000E+00  0.00000000000E+00  0.31440364792E+03  0.31440364792E+03  0.00000000000E+00 0. -1.
         21   -1    0    0  501  503 -0.00000000000E+00 -0.00000000000E+00 -0.21828614088E+03  0.21828614088E+03  0.00000000000E+00 0. -1.
          6    2    1    2  501    0 -0.67105867084E+02 -0.74356555678E+01 -0.14079368344E+03  0.23204140978E+03  0.17164459847E+03 0.  0.
         24    2    3    3    0    0  0.31742338510E+02 -0.18281107155E+02 -0.49275270229E+02  0.96814557684E+02  0.74854735258E+02 0.  0.
         -6    2    1    2    0  502  0.67105867084E+02  0.74356555678E+01  0.23691119048E+03  0.30064837902E+03  0.17234862710E+03 0.  0.
        -24    2    5    5    0    0 -0.23711188896E+02  0.19007739979E+02  0.15788671515E+03  0.17961694304E+03  0.80065702700E+02 0.  0.
          5    1    3    3  501    0 -0.98848205594E+02  0.10845451588E+02 -0.91518413215E+02  0.13522685209E+03  0.47000000000E+01 0. -1.
        -13    1    4    4    0    0  0.11065505668E+02 -0.32906285970E+02  0.67170075786E+01  0.35360815359E+02  0.00000000000E+00 0.  1.
         14    1    4    4    0    0  0.20676832842E+02  0.14625178814E+02 -0.55992277808E+02  0.61453742326E+02  0.00000000000E+00 0. -1.
         -5    1    5    5    0  502  0.90817055980E+02 -0.11572084411E+02  0.79024475327E+02  0.12103143598E+03  0.47000000000E+01 0.  1.
         11    1    6    6    0    0  0.13490289140E+02  0.97223541886E+01 -0.51901390238E+00  0.16636749908E+02  0.00000000000E+00 0. -1.
        -12    1    6    6    0    0 -0.37201478037E+02  0.92853857899E+01  0.15840572905E+03  0.16298019313E+03  0.00000000000E+00 0.  1.
</event>
<event>
12    1  0.8356052E-002  0.2322013E+03  0.7818608E-02  0.1125531E+00
         21   -1    0    0  501  502  0.00000000000E+00  0.00000000000E+00  0.20434202721E+03  0.20434202721E+03  0.00000000000E+00 0.  1.
         21   -1    0    0  502  503 -0.00000000000E+00 -0.00000000000E+00 -0.27513737601E+03  0.27513737601E+03  0.00000000000E+00 0.  1.
         -6    2    1    2    0  503  0.69627531096E+02 -0.13667575739E+03 -0.89800160592E+02  0.24896084702E+03  0.17432492294E+03 0.  0.
        -24    2    3    3    0    0  0.33751988496E+01 -0.16788149150E+02 -0.76034886252E+02  0.11121476571E+03  0.79335907791E+02 0.  0.
          6    2    1    2  501    0 -0.69627531096E+02  0.13667575739E+03  0.19004811799E+02  0.23051855620E+03  0.17102446064E+03 0.  0.
         24    2    5    5    0    0 -0.21849533584E+02  0.13047830863E+03  0.60923371703E+02  0.16648418198E+03  0.80643254466E+02 0.  0.
          5    1    5    5  501    0 -0.47777997511E+02  0.61974487653E+01 -0.41918559904E+02  0.64034374220E+02  0.47000000000E+01 0. -1.
        -13    1    6    6    0    0 -0.52047350364E+02  0.95170536260E+02  0.43167295169E+02  0.11674661890E+03  0.00000000000E+00 0.  1.
         14    1    6    6    0    0  0.30197816779E+02  0.35307772368E+02  0.17756076533E+02  0.49737563085E+02  0.00000000000E+00 0. -1.
         -5    1    3    3    0  503  0.66252332246E+02 -0.11988760824E+03 -0.13765274341E+02  0.13774608131E+03  0.47000000000E+01 0.  1.
         11    1    4    4    0    0  0.19938105285E+02 -0.24016670106E+01 -0.85129250013E+02  0.87465909100E+02  0.00000000000E+00 0. -1.
        -12    1    4    4    0    0 -0.16562906436E+02 -0.14386482140E+02  0.90943637619E+01  0.23748856608E+02  0.00000000000E+00 0.  1.
</event>
<event>
12    1  0.8356052E-002  0.4303334E+03  0.7818608E-02  0.1033849E+00
         21   -1    0    0  501  502  0.00000000000E+00  0.00000000000E+00  0.10967191792E+04  0.10967191792E+04  0.00000000000E+00 0.  1.
         21   -1    0    0  502  503 -0.00000000000E+00 -0.00000000000E+00 -0.48070774742E+03  0.48070774742E+03  0.00000000000E+00 0. -1.
         -6    2    1    2    0  503  0.25085241411E+03 -0.30343080931E+03 -0.32758343552E+03  0.54083063102E+03  0.17375176119E+03 0.  0.
        -24    2    3    3    0    0  0.82046503765E+02 -0.11883941207E+03 -0.58451737754E+02  0.17337535477E+03  0.76078731274E+02 0.  0.
          6    2    1    2  501    0 -0.25085241411E+03  0.30343080931E+03  0.94359486735E+03  0.10365962956E+04  0.17077299774E+03 0.  0.
         24    2    5    5    0    0 -0.16743337333E+03  0.18218267139E+03  0.74557658356E+03  0.78983086446E+03  0.81999342952E+02 0.  0.
          5    1    5    5  501    0 -0.83419040777E+02  0.12124813791E+03  0.19801828379E+03  0.24676543119E+03  0.47000000000E+01 0. -1.
        -11    1    6    6    0    0 -0.89199659432E+02  0.10949093557E+03  0.29917511746E+03  0.33083318323E+03  0.00000000000E+00 0.  1.
         12    1    6    6    0    0 -0.78233713901E+02  0.72691735824E+02  0.44640146610E+03  0.45899768124E+03  0.00000000000E+00 0. -1.
         -5    1    3    3    0  503  0.16880591034E+03 -0.18459139723E+03 -0.26913169777E+03  0.36745527625E+03  0.47000000000E+01 0.  1.
         11    1    4    4    0    0 -0.10260462012E+02 -0.28287110651E+01 -0.15905009332E+02  0.19137607187E+02  0.00000000000E+00 0. -1.
        -12    1    4    4    0    0  0.92306965777E+02 -0.11601070101E+03 -0.42546728422E+02  0.15423774758E+03  0.00000000000E+00 0.  1.
</event>
<event>
12    1  0.8356052E-002  0.1908157E+03  0.7818608E-02  0.1161116E+00
         21   -1    0    0  501  502  0.00000000000E+00  0.00000000000E+00  0.78676883646E+02  0.78676883646E+02  0.00000000000E+00 0. -1.
         21   -1    0    0  502  503 -0.00000000000E+00 -0.00000000000E+00 -0.51126840189E+03  0.51126840189E+03  0.00000000000E+00 0. -1.
         -6    2    1    2    0  503 -0.57138720388E+02 -0.54200924871E+02 -0.10470814022E+03  0.21765667342E+03  0.17380465825E+03 0.  0.
        -24    2    3    3    0    0  0.61080789508E+01 -0.54976823595E+02 -0.28710372531E+01  0.97683154730E+02  0.80461146537E+02 0.  0.
          6    2    1    2  501    0  0.57138720388E+02  0.54200924871E+02 -0.32788337803E+03  0.37228861212E+03  0.15776161607E+03 0.  0.
         24    2    5    5    0    0 -0.17021366038E+02  0.30035274482E+02 -0.59696600211E+02  0.92950224370E+02  0.62323474859E+02 0.  0.
          5    1    5    5  501    0  0.74160086426E+02  0.24165650389E+02 -0.26818677781E+03  0.27933838775E+03  0.47000000000E+01 0. -1.
        -13    1    6    6    0    0 -0.84616938483E+01 -0.19160770067E+02 -0.13472053985E+02  0.24904449621E+02  0.00000000000E+00 0.  1.
         14    1    6    6    0    0 -0.85596721898E+01  0.49196044550E+02 -0.46224546226E+02  0.68045774748E+02  0.00000000000E+00 0. -1.
         -5    1    3    3    0  503 -0.63246799339E+02  0.77589872352E+00 -0.10183710297E+03  0.11997351869E+03  0.47000000000E+01 0.  1.
         11    1    4    4    0    0  0.15175183314E+02 -0.47137629038E+02 -0.36801673160E+02  0.61697693695E+02  0.00000000000E+00 0. -1.
        -12    1    4    4    0    0 -0.90671043635E+01 -0.78391945572E+01  0.33930635907E+02  0.35985461035E+02  0.00000000000E+00 0.  1.
</event>
<event>
12    1  0.8356052E-002  0.2178751E+03  0.7818608E-02  0.1135537E+00
         21   -1    0    0  503  502  0.00000000000E+00  0.00000000000E+00  0.31944278179E+03  0.31944278179E+03  0.00000000000E+00 0.  1.
         21   -1    0    0  501  503 -0.00000000000E+00 -0.00000000000E+00 -0.39123422787E+03  0.39123422787E+03  0.00000000000E+00 0.  1.
          6    2    1    2  501    0 -0.13147126571E+03  0.23703302428E+02 -0.31586366874E+03  0.38371790108E+03  0.17211342228E+03 0.  0.
         24    2    3    3    0    0 -0.48541766730E+02 -0.54066315293E+02 -0.74050415739E+02  0.11647053521E+03  0.52938189750E+02 0.  0.
         -6    2    1    2    0  502  0.13147126571E+03 -0.23703302428E+02  0.24407222266E+03  0.32695910857E+03  0.17171042063E+03 0.  0.
        -24    2    5    5    0    0  0.75616272590E+02 -0.77541971470E+02  0.11900849804E+03  0.17971302966E+03  0.80019825065E+02 0.  0.
          5    1    3    3  501    0 -0.82929498975E+02  0.77769617721E+02 -0.24181325300E+03  0.26724736587E+03  0.47000000000E+01 0. -1.
        -13    1    4    4    0    0  0.77516974485E+01 -0.12870841717E+02 -0.31132138554E+02  0.34568156312E+02  0.00000000000E+00 0.  1.
         14    1    4    4    0    0 -0.56293464179E+02 -0.41195473576E+02 -0.42918277185E+02  0.81902378897E+02  0.00000000000E+00 0. -1.
         -5    1    5    5    0  502  0.55854993116E+02  0.53838669042E+02  0.12506372462E+03  0.14724607892E+03  0.47000000000E+01 0.  1.
         13    1    6    6    0    0  0.13287683984E+02 -0.57918182389E+02  0.90853446740E+02  0.10856070736E+03  0.00000000000E+00 0. -1.
        -14    1    6    6    0    0  0.62328588605E+02 -0.19623789080E+02  0.28155051300E+02  0.71152322303E+02  0.00000000000E+00 0.  1.
</event>
<event>
12    1  0.8356052E-002  0.1763223E+03  0.7818608E-02  0.1172093E+00
         21   -1    0    0  503  502  0.00000000000E+00  0.00000000000E+00  0.58245724850E+02  0.58245724850E+02  0.00000000000E+00 0. -1.
         21   -1    0    0  501  503 -0.00000000000E+00 -0.00000000000E+00 -0.63329305825E+03  0.63329305825E+03  0.00000000000E+00 0. -1.
          6    2    1    2  501    0 -0.38436940265E+02 -0.69641169030E+01 -0.42828220007E+03  0.46212747341E+03  0.16914568124E+03 0.  0.
         24    2    3    3    0    0 -0.56783080677E+02  0.76301330797E+01 -0.13018781142E+03  0.16307575958E+03  0.79764026592E+02 0.  0.
         -6    2    1    2    0  502  0.38436940265E+02  0.69641169030E+01 -0.14676513333E+03  0.22941130968E+03  0.17194082514E+03 0.  0.
        -24    2    5    5    0    0  0.52879686629E+02  0.62364223112E+02 -0.75060263843E+02  0.13753398387E+03  0.81215736958E+02 0.  0.
          5    1    3    3  501    0  0.18346140412E+02 -0.14594249983E+02 -0.29809438865E+03  0.29905171383E+03  0.47000000000E+01 0. -1.
        -11    1    4    4    0    0 -0.38674387731E+02  0.34294020085E+02 -0.11762680576E+03  0.12848289191E+03  0.00000000000E+00 0.  1.
         12    1    4    4    0    0 -0.18108692946E+02 -0.26663887005E+02 -0.12561005657E+02  0.34592867669E+02  0.00000000000E+00 0. -1.
         -5    1    5    5    0  502 -0.14442746365E+02 -0.55400106209E+02 -0.71704869482E+02  0.91877325810E+02  0.47000000000E+01 0.  1.
         11    1    6    6    0    0  0.72557711439E+02  0.36080635482E+02 -0.62670789020E+02  0.10244052686E+03  0.00000000000E+00 0. -1.
        -12    1    6    6    0    0 -0.19678024809E+02  0.26283587630E+02 -0.12389474823E+02  0.35093457019E+02  0.00000000000E+00 0.  1.
</event>
<event>
12    1  0.8356052E-002  0.1774943E+03  0.7818608E-02  0.1170424E+00
         21   -1    0    0  503  502  0.00000000000E+00  0.00000000000E+00  0.13707060059E+03  0.13707060059E+03  0.00000000000E+00 0. -1.
         21   -1    0    0  501  503 -0.00000000000E+00 -0.00000000000E+00 -0.23838700224E+03  0.23838700224E+03  0.00000000000E+00 0. -1.
          6    2    1    2  501    0  0.18642548336E+02 -0.39261534844E+02 -0.88144961830E+02  0.19817611855E+03  0.17209075205E+03 0.  0.
         24    2    3    3    0    0 -0.11469861263E+02 -0.21558336374E+01  0.16468565657E+02  0.83068905887E+02  0.80579303387E+02 0.  0.
         -6    2    1    2    0  502 -0.18642548336E+02  0.39261534844E+02 -0.13171439816E+02  0.17728148428E+03  0.17136576413E+03 0.  0.
        -24    2    5    5    0    0 -0.25693467928E+02 -0.57759689873E+01 -0.67341797322E+02  0.10632649961E+03  0.77954414499E+02 0.  0.
          5    1    3    3  501    0  0.30112409599E+02 -0.37105701206E+02 -0.10461352749E+03  0.11510721266E+03  0.47000000000E+01 0. -1.
        -11    1    4    4    0    0 -0.11070698858E+02 -0.22761732207E+02 -0.25738414551E+02  0.36098792360E+02  0.00000000000E+00 0.  1.
         12    1    4    4    0    0 -0.39916240458E+00  0.20605898570E+02  0.42206980207E+02  0.46970113527E+02  0.00000000000E+00 0. -1.
         -5    1    5    5    0  502  0.70509195921E+01  0.45037503831E+02  0.54170357506E+02  0.70954984679E+02  0.47000000000E+01 0.  1.
         11    1    6    6    0    0 -0.36158238069E+02  0.12906239071E+02 -0.74448160958E+02  0.83764657567E+02  0.00000000000E+00 0. -1.
        -12    1    6    6    0    0  0.10464770142E+02 -0.18682208058E+02  0.71063636365E+01  0.22561842038E+02  0.00000000000E+00 0.  1.
</event>
<event>
12    1  0.8356052E-002  0.1808534E+03  0.7818608E-02  0.1167293E+00
         21   -1    0    0  503  502  0.00000000000E+00  0.00000000000E+00  0.15460602744E+03  0.15460602744E+03  0.00000000000E+00 0.  1.
         21   -1    0    0  501  503 -0.00000000000E+00 -0.00000000000E+00 -0.27867300673E+03  0.27867300673E+03  0.00000000000E+00 0.  1.
          6    2    1    2  501    0  0.36231208338E+02  0.43530287265E+02 -0.16937502372E+03  0.24683664267E+03  0.17039026715E+03 0.  0.
         24    2    3    3    0    0 -0.41016191937E+02 -0.57041811478E+00 -0.82014146880E+02  0.12207268207E+03  0.80577701881E+02 0.  0.
         -6    2    1    2    0  502 -0.36231208338E+02 -0.43530287265E+02  0.45308044435E+02  0.18644239149E+03  0.17175668862E+03 0.  0.
        -24    2    5    5    0    0  0.31104147589E+02 -0.51473961061E+02 -0.61429721508E+01  0.10119892125E+03  0.81156939878E+02 0.  0.
          5    1    3    3  501    0  0.77247400276E+02  0.44100705379E+02 -0.87360876842E+02  0.12476396061E+03  0.47000000000E+01 0. -1.
        -13    1    4    4    0    0 -0.44922994230E+02 -0.21382826207E+02 -0.15259653552E+02  0.52039962468E+02  0.00000000000E+00 0.  1.
         14    1    4    4    0    0  0.39068022925E+01  0.20812408092E+02 -0.66754493328E+02  0.70032719598E+02  0.00000000000E+00 0. -1.
         -5    1    5    5    0  502 -0.67335355928E+02  0.79436737960E+01  0.51451016585E+02  0.85243470242E+02  0.47000000000E+01 0.  1.
         13    1    6    6    0    0 -0.26185929068E+02 -0.21720951723E+02  0.83607468842E+01  0.35034336206E+02  0.00000000000E+00 0. -1.
        -14    1    6    6    0    0  0.57290076657E+02 -0.29753009338E+02 -0.14503719035E+02  0.66164585043E+02  0.00000000000E+00 0.  1.
</event>
<event>
12    1  0.8356052E-002  0.1868958E+03  0.7818608E-02  0.1161860E+00
         21   -1    0    0  501  502  0.00000000000E+00  0.00000000000E+00  0.26200721149E+03  0.26200721149E+03  0.00000000000E+00 0. -1.
         21   -1    0    0  502  503 -0.00000000000E+00 -0.00000000000E+00 -0.16979400473E+03  0.16979400473E+03  0.00000000000E+00 0. -1.
         -6    2    1    2    0  503 -0.25770188073E+02  0.59350099492E+02 -0.56559077759E+02  0.19292207767E+03  0.17272365754E+03 0.  0.
        -24    2    3    3    0    0 -0.61605120327E+02  0.16046140656E+02 -0.81762516323E+02  0.13114280497E+03  0.80378210601E+02 0.  0.
          6    2    1    2  501    0  0.25770188073E+02 -0.59350099492E+02  0.14877228452E+03  0.23887913854E+03  0.17533828243E+03 0.  0.
         24    2    5    5    0    0  0.37853850756E+02 -0.27685411950E+02  0.73115042507E+01  0.93339076375E+02  0.80369951053E+02 0.  0.
          5    1    5    5  501    0 -0.12083662682E+02 -0.31664687542E+02  0.14146078027E+03  0.14554006216E+03  0.47000000000E+01 0. -1.
        -11    1    6    6    0    0  0.34690850566E+02  0.20560803955E+02  0.17446629998E+02  0.43938441831E+02  0.00000000000E+00 0.  1.
         12    1    6    6    0    0  0.31630001900E+01 -0.48246215906E+02 -0.10135125747E+02  0.49400634544E+02  0.00000000000E+00 0. -1.
         -5    1    3    3    0  503  0.35834932254E+02  0.43303958836E+02  0.25203438563E+02  0.61779272705E+02  0.47000000000E+01 0.  1.
         13    1    4    4    0    0  0.18792876672E+02  0.98633373919E+01 -0.11226732519E+02  0.24010355290E+02  0.00000000000E+00 0. -1.
        -14    1    4    4    0    0 -0.80397996999E+02  0.61828032642E+01 -0.70535783804E+02  0.10713244968E+03  0.00000000000E+00 0.  1.
</event>
<event>
12    1  0.8356052E-002  0.1725257E+03  0.7818608E-02  0.1175261E+00
         21   -1    0    0  501  502  0.00000000000E+00  0.00000000000E+00  0.12295791468E+03  0.12295791468E+03  0.00000000000E+00 0. -1.
         21   -1    0    0  502  503 -0.00000000000E+00 -0.00000000000E+00 -0.24584669185E+03  0.24584669185E+03  0.00000000000E+00 0. -1.
         -6    2    1    2    0  503  0.71438836751E+00  0.16645062695E+02 -0.38233521786E+02  0.17662854485E+03  0.17163412308E+03 0.  0.
        -24    2    3    3    0    0  0.24806279989E+02  0.72739484748E+02 -0.29228839317E+02  0.11474011512E+03  0.80028649886E+02 0.  0.
          6    2    1    2  501    0 -0.71438836751E+00 -0.16645062695E+02 -0.84655255385E+02  0.19217606168E+03  0.17171941636E+03 0.  0.
         24    2    5    5    0    0  0.25413418675E+02  0.40490497549E+02 -0.74797418628E+01  0.92550339936E+02  0.78894211723E+02 0.  0.
          5    1    5    5  501    0 -0.26127807042E+02 -0.57135560244E+02 -0.77175513522E+02  0.99625721743E+02  0.47000000000E+01 0. -1.
        -13    1    6    6    0    0 -0.13247344364E+01  0.41240852265E+02  0.26700701511E+02  0.49147637563E+02  0.00000000000E+00 0.  1.
         14    1    6    6    0    0  0.26738153111E+02 -0.75035471573E+00 -0.34180443374E+02  0.43402702373E+02  0.00000000000E+00 0. -1.
         -5    1    3    3    0  503 -0.24091891621E+02 -0.56094422053E+02 -0.90046824692E+01  0.61888429724E+02  0.47000000000E+01 0.  1.
         11    1    4    4    0    0 -0.22482627880E+02  0.38010157130E+01  0.66733235490E+01  0.23758146478E+02  0.00000000000E+00 0. -1.
        -12    1    4    4    0    0  0.47288907869E+02  0.68938469035E+02 -0.35902162866E+02  0.90981968647E+02  0.00000000000E+00 0.  1.
</event>
<event>
12    1  0.8356052E-002  0.2427968E+03  0.7818608E-02  0.1117986E+00
         21   -1    0    0  503  502  0.00000000000E+00  0.00000000000E+00  0.60818387971E+03  0.60818387971E+03  0.00000000000E+00 0.  1.
         21   -1    0    0  501  503 -0.00000000000E+00 -0.00000000000E+00 -0.25132376832E+03  0.25132376832E+03  0.00000000000E+00 0. -1.
          6    2    1    2  501    0  0.92584225772E+02  0.14471808727E+03 -0.15855479519E+03  0.28976841549E+03  0.17120440384E+03 0.  0.
         24    2    3    3    0    0 -0.57970890992E+01  0.10273810433E+03 -0.11705434830E+03  0.17493993829E+03  0.79457770108E+02 0.  0.
         -6    2    1    2    0  502 -0.92584225772E+02 -0.14471808727E+03  0.51541490658E+03  0.56973923254E+03  0.17156661541E+03 0.  0.
        -24    2    5    5    0    0  0.10584476914E+01 -0.88303165027E+02  0.36342191451E+03  0.38245454714E+03  0.79983894750E+02 0.  0.
          5    1    3    3  501    0  0.98381314871E+02  0.41979982938E+02 -0.41500446886E+02  0.11482847720E+03  0.47000000000E+01 0. -1.
        -11    1    4    4    0    0 -0.76248536231E+01  0.95328790770E+02 -0.50877808722E+02  0.10832482708E+03  0.00000000000E+00 0.  1.
         12    1    4    4    0    0  0.18277645239E+01  0.74093135579E+01 -0.66176539580E+02  0.66615111209E+02  0.00000000000E+00 0. -1.
         -5    1    5    5    0  502 -0.93642673463E+02 -0.56414922239E+02  0.15199299207E+03  0.18728468540E+03  0.47000000000E+01 0.  1.
         11    1    6    6    0    0  0.11351514524E+02 -0.36536996353E+02  0.42348305943E+02  0.57071779373E+02  0.00000000000E+00 0. -1.
        -12    1    6    6    0    0 -0.10293066833E+02 -0.51766168674E+02  0.32107360856E+03  0.32538276777E+03  0.00000000000E+00 0.  1.
</event>
<event>
12    1  0.8356052E-002  0.1807668E+03  0.7818608E-02  0.1167416E+00
         21   -1    0    0  501  502  0.00000000000E+00  0.00000000000E+00  0.41999449626E+02  0.41999449626E+02  0.00000000000E+00 0.  1.
         21   -1    0    0  502  503 -0.00000000000E+00 -0.00000000000E+00 -0.10082951005E+04  0.10082951005E+04  0.00000000000E+00 0.  1.
         -6    2    1    2    0  503 -0.29464033305E+02 -0.50343624604E+02 -0.73900913719E+03  0.76079639531E+03  0.17109658228E+03 0.  0.
        -24    2    3    3    0    0  0.24103228945E+02  0.91589931945E+01 -0.21320968002E+03  0.22891560766E+03  0.79240993014E+02 0.  0.
          6    2    1    2  501    0  0.29464033305E+02  0.50343624604E+02 -0.22728651366E+03  0.28949815480E+03  0.16955061941E+03 0.  0.
         24    2    5    5    0    0  0.37504185146E+02 -0.31990072706E+02 -0.10074091683E+03  0.13823890770E+03  0.80816672930E+02 0.  0.
          5    1    5    5  501    0 -0.80401518409E+01  0.82333697310E+02 -0.12654559683E+03  0.15125924710E+03  0.47000000000E+01 0. -1.
        -13    1    6    6    0    0  0.66033503113E+01 -0.47140496604E+02 -0.22269420051E+02  0.52552428344E+02  0.00000000000E+00 0.  1.
         14    1    6    6    0    0  0.30900834835E+02  0.15150423899E+02 -0.78471496781E+02  0.85686479358E+02  0.00000000000E+00 0. -1.
         -5    1    3    3    0  503 -0.53567262250E+02 -0.59502617799E+02 -0.52579945717E+03  0.53188078765E+03  0.47000000000E+01 0.  1.
         11    1    4    4    0    0 -0.84665843583E+01  0.12214381028E+02 -0.18535647587E+03  0.18595133047E+03  0.00000000000E+00 0. -1.
        -12    1    4    4    0    0  0.32569813303E+02 -0.30553878331E+01 -0.27853204149E+02  0.42964277193E+02  0.00000000000E+00 0.  1.
</event>
<event>
12    1  0.8356052E-002  0.3223916E+03  0.7818608E-02  0.1074667E+00
         21   -1    0    0  501  502  0.00000000000E+00  0.00000000000E+00  0.13797036789E+03  0.13797036789E+03  0.00000000000E+00 0.  1.
         21   -1    0    0  502  503 -0.00000000000E+00 -0.00000000000E+00 -0.75909990682E+03  0.75909990682E+03  0.00000000000E+00 0. -1.
         -6    2    1    2    0  503 -0.24456955157E+03  0.12066499220E+03 -0.26378536659E+03  0.41578947593E+03  0.17007017013E+03 0.  0.
        -24    2    3    3    0    0 -0.24128470695E+03  0.61422520908E+02 -0.20960510416E+03  0.33530313271E+03  0.80640282904E+02 0.  0.
          6    2    1    2  501    0  0.24456955157E+03 -0.12066499220E+03 -0.35734417233E+03  0.48128079878E+03  0.17193616223E+03 0.  0.
         24    2    5    5    0    0  0.12675849522E+03 -0.97262365029E+01 -0.11275556816E+03  0.18796777861E+03  0.80347693541E+02 0.  0.
          5    1    5    5  501    0  0.11781105635E+03 -0.11093875570E+03 -0.24458860417E+03  0.29331302017E+03  0.47000000000E+01 0. -1.
        -11    1    6    6    0    0  0.12325713659E+03  0.11070642815E+01 -0.12190493081E+03  0.17336193200E+03  0.00000000000E+00 0.  1.
         12    1    6    6    0    0  0.35013586260E+01 -0.10833300784E+02  0.91493626508E+01  0.14605846604E+02  0.00000000000E+00 0. -1.
         -5    1    3    3    0  503 -0.32848446159E+01  0.59242471291E+02 -0.54180262428E+02  0.80486343225E+02  0.47000000000E+01 0.  1.
         11    1    4    4    0    0 -0.55366128589E+02  0.49574199451E+02 -0.46266683755E+02  0.87542078292E+02  0.00000000000E+00 0. -1.
        -12    1    4    4    0    0 -0.18591857836E+03  0.11848321457E+02 -0.16333842041E+03  0.24776105441E+03  0.00000000000E+00 0.  1.
</event>
<event>
12    1  0.8356052E-002  0.2108942E+03  0.7818608E-02  0.1140871E+00
         21   -1    0    0  503  502  0.00000000000E+00  0.00000000000E+00  0.56583328063E+02  0.56583328063E+02  0.00000000000E+00 0. -1.
         21   -1    0    0  501  503 -0.00000000000E+00 -0.00000000000E+00 -0.13266748259E+04  0.13266748259E+04  0.00000000000E+00 0.  1.
          6    2    1    2  501    0  0.30502339231E+02  0.11861990269E+03 -0.10765981856E+04  0.10970483907E+04  0.17161131773E+03 0.  0.
         24    2    3    3    0    0 -0.24309992608E+02  0.97410090975E+02 -0.93370461772E+03  0.94246860688E+03  0.79768792436E+02 0.  0.
         -6    2    1    2    0  502 -0.30502339231E+02 -0.11861990269E+03 -0.19349331228E+03  0.28620976327E+03  0.17168369951E+03 0.  0.
        -24    2    5    5    0    0 -0.31056406824E+01  0.32833482689E+01 -0.11851857019E+03  0.14042127388E+03  0.75173514605E+02 0.  0.
          5    1    3    3  501    0  0.54812331838E+02  0.21209811716E+02 -0.14289356785E+03  0.15457978382E+03  0.47000000000E+01 0. -1.
        -13    1    4    4    0    0  0.93393311599E+01  0.22578724312E+02 -0.52721981859E+03  0.52778571316E+03  0.00000000000E+00 0.  1.
         14    1    4    4    0    0 -0.33649323767E+02  0.74831366664E+02 -0.40648479913E+03  0.41468289372E+03  0.00000000000E+00 0. -1.
         -5    1    5    5    0  502 -0.27396698548E+02 -0.12190325096E+03 -0.74974742089E+02  0.14578848939E+03  0.47000000000E+01 0.  1.
         13    1    6    6    0    0 -0.34645419021E+02  0.17550340555E+02 -0.47033042481E+02  0.60995299800E+02  0.00000000000E+00 0. -1.
        -14    1    6    6    0    0  0.31539778338E+02 -0.14266992286E+02 -0.71485527712E+02  0.79425974082E+02  0.00000000000E+00 0.  1.
</event>
<event>
12    1  0.8356052E-002  0.2129808E+03  0.7818608E-02  0.1140712E+00
         21   -1    0    0  501  502  0.00000000000E+00  0.00000000000E+00  0.14133172049E+03  0.14133172049E+03  0.00000000000E+00 0. -1.
         21   -1    0    0  502  503 -0.00000000000E+00 -0.00000000000E+00 -0.40322538611E+03  0.40322538611E+03  0.00000000000E+00 0. -1.
         -6    2    1    2    0  503  0.11177975265E+03 -0.10952058575E+02 -0.26021683722E+03  0.33156971726E+03  0.17207851215E+03 0.  0.
        -24    2    3    3    0    0  0.13443313025E+03  0.22311993330E+02 -0.17823617531E+03  0.24012251068E+03  0.85560472131E+02 0.  0.
          6    2    1    2  501    0 -0.11177975265E+03  0.10952058575E+02 -0.16768284053E+01  0.21298738933E+03  0.18095898865E+03 0.  0.
         24    2    5    5    0    0 -0.14839709535E+03  0.13706949554E+02 -0.22646301495E+02  0.17044061493E+03  0.79546023610E+02 0.  0.
          5    1    5    5  501    0  0.36617342697E+02 -0.27548909787E+01  0.20969473090E+02  0.42546774404E+02  0.47000000000E+01 0. -1.
        -13    1    6    6    0    0 -0.29801172539E+02  0.30241822683E+02 -0.27522934300E+02  0.50598316537E+02  0.00000000000E+00 0.  1.
         14    1    6    6    0    0 -0.11859592281E+03 -0.16534873129E+02  0.48766328045E+01  0.11984229839E+03  0.00000000000E+00 0. -1.
         -5    1    3    3    0  503 -0.22653377593E+02 -0.33264051905E+02 -0.81980661902E+02  0.91447206581E+02  0.47000000000E+01 0.  1.
         11    1    4    4    0    0  0.76675747344E+02  0.54959467689E+02 -0.98396405963E+02  0.13631421799E+03  0.00000000000E+00 0. -1.
        -12    1    4    4    0    0  0.57757382902E+02 -0.32647474359E+02 -0.79839769352E+02  0.10380829269E+03  0.00000000000E+00 0.  1.
</event>
<event>
12    1  0.8356052E-002  0.2105310E+03  0.7818608E-02  0.1142572E+00
         21   -1    0    0  501  502  0.00000000000E+00  0.00000000000E+00  0.51053578852E+02  0.51053578852E+02  0.00000000000E+00 0. -1.
         21   -1    0    0  502  503 -0.00000000000E+00 -0.00000000000E+00 -0.10995449251E+04  0.10995449251E+04  0.00000000000E+00 0. -1.
         -6    2    1    2    0  503 -0.87753713817E+02 -0.72004713963E+02 -0.25117624648E+03  0.32773895072E+03  0.17730741639E+03 0.  0.
        -24    2    3    3    0    0 -0.72164156299E+02  0.26628428639E+02 -0.14028662768E+03  0.17844016078E+03  0.79017810690E+02 0.  0.
          6    2    1    2  501    0  0.87753713817E+02  0.72004713963E+02 -0.79731509978E+03  0.82285955324E+03  0.16882263738E+03 0.  0.
         24    2    5    5    0    0 -0.21034625176E+02  0.11900264761E+02 -0.24538107242E+03  0.25708512109E+03  0.72779234843E+02 0.  0.
          5    1    5    5  501    0  0.10878833899E+03  0.60104449201E+02 -0.55193402736E+03  0.56577443215E+03  0.47000000000E+01 0. -1.
        -11    1    6    6    0    0 -0.15762203842E+02  0.13764067717E+02 -0.12996822645E+02  0.24633595534E+02  0.00000000000E+00 0.  1.
         12    1    6    6    0    0 -0.52724213337E+01 -0.18638029555E+01 -0.23238424977E+03  0.23245152555E+03  0.00000000000E+00 0. -1.
         -5    1    3    3    0  503 -0.15589557518E+02 -0.98633142602E+02 -0.11088961880E+03  0.14929878995E+03  0.47000000000E+01 0.  1.
         13    1    4    4    0    0 -0.29946912405E+02 -0.16643408268E+02 -0.11447937994E+02  0.36123065840E+02  0.00000000000E+00 0. -1.
        -14    1    4    4    0    0 -0.42217243893E+02  0.43271836908E+02 -0.12883868969E+03  0.14231709494E+03  0.00000000000E+00 0.  1.
</event>
<event>
12    1  0.8356052E-002  0.2196950E+03  0.7818608E-02  0.1134452E+00
         21   -1    0    0  501  502  0.00000000000E+00  0.00000000000E+00  0.69524259372E+03  0.69524259372E+03  0.00000000000E+00 0. -1.
         21   -1    0    0  502  503 -0.00000000000E+00 -0.00000000000E+00 -0.11201357187E+03  0.11201357187E+03  0.00000000000E+00 0. -1.
         -6    2    1    2    0  503  0.37009552770E+02 -0.12848669637E+03  0.40312558490E+02  0.22157351943E+03  0.17202088245E+03 0.  0.
        -24    2    3    3    0    0 -0.16284367963E+02 -0.13448996389E+03  0.37775137014E+01  0.15651062135E+03  0.78285209065E+02 0.  0.
          6    2    1    2  501    0 -0.37009552770E+02  0.12848669637E+03  0.54291646336E+03  0.58568264617E+03  0.17431964232E+03 0.  0.
         24    2    5    5    0    0  0.37968602532E+02  0.10274769277E+03  0.28010679770E+03  0.31113714822E+03  0.79673105499E+02 0.  0.
          5    1    5    5  501    0 -0.74978155302E+02  0.25739003600E+02  0.26280966566E+03  0.27454549795E+03  0.47000000000E+01 0. -1.
        -13    1    6    6    0    0  0.90625443339E+01  0.25503433586E+02  0.10222391141E+02  0.28931852950E+02  0.00000000000E+00 0.  1.
         14    1    6    6    0    0  0.28906058199E+02  0.77244259180E+02  0.26988440655E+03  0.28220529527E+03  0.00000000000E+00 0. -1.
         -5    1    3    3    0  503  0.53293920732E+02  0.60032675273E+01  0.36535044788E+02  0.65062898073E+02  0.47000000000E+01 0.  1.
         13    1    4    4    0    0  0.13559990220E+02 -0.85561990927E+02  0.32348053901E+02  0.92472288916E+02  0.00000000000E+00 0. -1.
        -14    1    4    4    0    0 -0.29844358182E+02 -0.48927972967E+02 -0.28570540200E+02  0.64038332437E+02  0.00000000000E+00 0.  1.
</event>
<event>
12    1  0.8356052E-002  0.3754724E+03  0.7818608E-02  0.1052636E+00
         21   -1    0    0  501  502  0.00000000000E+00  0.00000000000E+00  0.58845828201E+03  0.58845828201E+03  0.00000000000E+00 0. -1.
         21   -1    0    0  502  503 -0.00000000000E+00 -0.00000000000E+00 -0.24176292730E+03  0.24176292730E+03  0.00000000000E+00 0.  1.
         -6    2    1    2    0  503  0.33312118776E+03  0.14034473681E+02  0.13292525330E+03  0.39830724528E+03  0.17266396986E+03 0.  0.
        -24    2    3    3    0    0  0.14919632487E+03 -0.10952590864E+02 -0.69075242820E+00  0.16955402547E+03  0.79803432337E+02 0.  0.
          6    2    1    2  501    0 -0.33312118776E+03 -0.14034473681E+02  0.21377010140E+03  0.43191396403E+03  0.17229429441E+03 0.  0.
         24    2    5    5    0    0 -0.29143591301E+03  0.39026650443E+02  0.19596342818E+03  0.36196889533E+03  0.78497421407E+02 0.  0.
          5    1    5    5  501    0 -0.41685274753E+02 -0.53061124123E+02  0.17806673218E+02  0.69945068701E+02  0.47000000000E+01 0. -1.
        -11    1    6    6    0    0 -0.49405333736E+02 -0.13541808294E+02  0.61868707131E+02  0.80324370496E+02  0.00000000000E+00 0.  1.
         12    1    6    6    0    0 -0.24203057927E+03  0.52568458737E+02  0.13409472105E+03  0.28164452484E+03  0.00000000000E+00 0. -1.
         -5    1    3    3    0  503  0.18392486289E+03  0.24987064544E+02  0.13361600573E+03  0.22875321980E+03  0.47000000000E+01 0.  1.
         11    1    4    4    0    0  0.73391809835E+02 -0.45292333300E+02 -0.31185615015E+01  0.86298775382E+02  0.00000000000E+00 0. -1.
        -12    1    4    4    0    0  0.75804515038E+02  0.34339742436E+02  0.24278090733E+01  0.83255250090E+02  0.00000000000E+00 0.  1.
</event>
<event>
12    1  0.8356052E-002  0.2396502E+03  0.7818608E-02  0.1120198E+00
         21   -1    0    0  501  502  0.00000000000E+00  0.00000000000E+00  0.38255766973E+03  0.38255766973E+03  0.00000000000E+00 0.  1.
         21   -1    0    0  502  503 -0.00000000000E+00 -0.00000000000E+00 -0.21617614823E+03  0.21617614823E+03  0.00000000000E+00 0. -1.
         -6    2    1    2    0  503 -0.16528604106E+03 -0.16632444353E+02  0.24959253691E+03  0.34601831232E+03  0.17273136486E+03 0.  0.
        -24    2    3    3    0    0 -0.36618884020E+02  0.45174918612E+02  0.11406333314E+03  0.14912838751E+03  0.76466437446E+02 0.  0.
          6    2    1    2  501    0  0.16528604106E+03  0.16632444353E+02 -0.83211015406E+02  0.25271550564E+03  0.17130364891E+03 0.  0.
         24    2    5    5    0    0  0.11907427095E+03 -0.20673302840E+02  0.63918663373E+01  0.14511433052E+03  0.80070253619E+02 0.  0.
          5    1    5    5  501    0  0.46211770115E+02  0.37305747192E+02 -0.89602881744E+02  0.10760117512E+03  0.47000000000E+01 0. -1.
        -13    1    6    6    0    0  0.25408816499E+02  0.16296725645E+02  0.29055722420E+02  0.41897806959E+02  0.00000000000E+00 0.  1.
         14    1    6    6    0    0  0.93665454447E+02 -0.36970028485E+02 -0.22663856082E+02  0.10321652356E+03  0.00000000000E+00 0. -1.
         -5    1    3    3    0  503 -0.12866715704E+03 -0.61807362965E+02  0.13552920376E+03  0.19688992481E+03  0.47000000000E+01 0.  1.
         11    1    4    4    0    0 -0.14811309688E+02 -0.19571486507E+02  0.48903606793E+02  0.54717280050E+02  0.00000000000E+00 0. -1.
        -12    1    4    4    0    0 -0.21807574332E+02  0.64746405119E+02  0.65159726352E+02  0.94411107463E+02  0.00000000000E+00 0.  1.
</event>
<event>
12    1  0.8356052E-002  0.2566494E+03  0.7818608E-02  0.1109313E+00
         21   -1    0    0  503  502  0.00000000000E+00  0.00000000000E+00  0.27727813281E+03  0.27727813281E+03  0.00000000000E+00 0. -1.
         21   -1    0    0  501  503 -0.00000000000E+00 -0.00000000000E+00 -0.64027924685E+03  0.64027924685E+03  0.00000000000E+00 0.  1.
          6    2    1    2  501    0  0.18789412602E+03  0.18946835074E+02 -0.54561220578E+03  0.60257208449E+03  0.17244492675E+03 0.  0.
         24    2    3    3    0    0  0.13822292099E+03  0.21867880160E+02 -0.52382844387E+03  0.54805251556E+03  0.79884548803E+02 0.  0.
         -6    2    1    2    0  502 -0.18789412602E+03 -0.18946835074E+02  0.18261109174E+03  0.31498529517E+03  0.17379798674E+03 0.  0.
        -24    2    5    5    0    0 -0.21208750579E+03 -0.17131578419E+02  0.17975434057E+03  0.29010828150E+03  0.81096183326E+02 0.  0.
          5    1    3    3  501    0  0.49671205030E+02 -0.29210450867E+01 -0.21783761911E+02  0.54519568932E+02  0.47000000000E+01 0. -1.
        -11    1    4    4    0    0  0.77776285537E+02 -0.75183665497E+01 -0.15991513778E+03  0.17798462776E+03  0.00000000000E+00 0.  1.
         12    1    4    4    0    0  0.60446635449E+02  0.29386246710E+02 -0.36391330609E+03  0.37006788780E+03  0.00000000000E+00 0. -1.
         -5    1    5    5    0  502  0.24193379776E+02 -0.18152566550E+01  0.28567511740E+01  0.24877013667E+02  0.47000000000E+01 0.  1.
         13    1    6    6    0    0 -0.39072803239E+02  0.27208440443E+02  0.52061535730E+02  0.70550596645E+02  0.00000000000E+00 0. -1.
        -14    1    6    6    0    0 -0.17301470255E+03 -0.44340018861E+02  0.12769280483E+03  0.21955768485E+03  0.00000000000E+00 0.  1.
</event>
<event>
12    1  0.8356052E-002  0.2061911E+03  0.7818608E-02  0.1147129E+00
         21   -1    0    0  501  502  0.00000000000E+00  0.00000000000E+00  0.10598277702E+04  0.10598277702E+04  0.00000000000E+00 0. -1.
         21   -1    0    0  502  503 -0.00000000000E+00 -0.00000000000E+00 -0.93050553738E+02  0.93050553738E+02  0.00000000000E+00 0. -1.
         -6    2    1    2    0  503  0.85637425577E+02  0.43631568791E+02  0.33461350436E+02  0.19705759174E+03  0.16874403704E+03 0.  0.
        -24    2    3    3    0    0  0.25605435319E+01  0.56076300353E+02  0.47745421368E+02  0.11171847787E+03  0.83965976393E+02 0.  0.
          6    2    1    2  501    0 -0.85637425577E+02 -0.43631568791E+02  0.93331586600E+03  0.95582073217E+03  0.18242062345E+03 0.  0.
         24    2    5    5    0    0  0.48093699153E+01  0.90387652764E+01  0.20339695495E+03  0.21842091280E+03  0.78946466329E+02 0.  0.
          5    1    5    5  501    0 -0.90446795492E+02 -0.52670334068E+02  0.72991891105E+03  0.73739981938E+03  0.47000000000E+01 0. -1.
        -11    1    6    6    0    0  0.11600828659E+02  0.17601695406E+02  0.20608954137E+03  0.20716490525E+03  0.00000000000E+00 0.  1.
         12    1    6    6    0    0 -0.67914587440E+01 -0.85629301300E+01 -0.26925864132E+01  0.11256007546E+02  0.00000000000E+00 0. -1.
         -5    1    3    3    0  503  0.83076882045E+02 -0.12444731562E+02 -0.14284070933E+02  0.85339113872E+02  0.47000000000E+01 0.  1.
         11    1    4    4    0    0  0.41533272907E+02  0.19747009567E+02  0.11900027352E+02  0.47503345105E+02  0.00000000000E+00 0. -1.
        -12    1    4    4    0    0 -0.38972729375E+02  0.36329290787E+02  0.35845394017E+02  0.64215132766E+02  0.00000000000E+00 0.  1.
</event>
<event>
12    1  0.8356052E-002  0.2204542E+03  0.7818608E-02  0.1133992E+00
         21   -1    0    0  503  502  0.00000000000E+00  0.00000000000E+00  0.34178545570E+03  0.34178545570E+03  0.00000000000E+00 0. -1.
         21   -1    0    0  501  503 -0.00000000000E+00 -0.00000000000E+00 -0.14303846834E+03  0.14303846834E+03  0.00000000000E+00 0. -1.
          6    2    1    2  501    0  0.14506115200E+02 -0.13623277824E+03  0.67563118609E+02  0.22829079687E+03  0.16965292717E+03 0.  0.
         24    2    3    3    0    0  0.15773301993E+02 -0.14405199969E+03  0.10106878491E+03  0.19354219028E+03  0.79018380552E+02 0.  0.
         -6    2    1    2    0  502 -0.14506115200E+02  0.13623277824E+03  0.13118386876E+03  0.25653312717E+03  0.17271433255E+03 0.  0.
        -24    2    5    5    0    0 -0.36177586008E+02  0.11437351647E+03  0.24979561260E+02  0.14585826596E+03  0.79123550657E+02 0.  0.
          5    1    3    3  501    0 -0.12671867928E+01  0.78192214498E+01 -0.33505666297E+02  0.34748606597E+02  0.47000000000E+01 0. -1.
        -13    1    4    4    0    0 -0.96828508998E+01 -0.13412279661E+03  0.68132237669E+02  0.15074708614E+03  0.00000000000E+00 0.  1.
         14    1    4    4    0    0  0.25456152892E+02 -0.99292030819E+01  0.32936547237E+02  0.42795104134E+02  0.00000000000E+00 0. -1.
         -5    1    5    5    0  502  0.21671470808E+02  0.21859261765E+02  0.10620430750E+03  0.11067486121E+03  0.47000000000E+01 0.  1.
         13    1    6    6    0    0  0.18151651385E+02  0.73456929864E+02  0.11838147625E+02  0.76586844381E+02  0.00000000000E+00 0. -1.
        -14    1    6    6    0    0 -0.54329237392E+02  0.40916586609E+02  0.13141413635E+02  0.69271421580E+02  0.00000000000E+00 0.  1.
</event>
<event>
12    1  0.8356052E-002  0.1972849E+03  0.7818608E-02  0.1152072E+00
         21   -1    0    0  501  502  0.00000000000E+00  0.00000000000E+00  0.72237772751E+02  0.72237772751E+02  0.00000000000E+00 0. -1.
         21   -1    0    0  502  503 -0.00000000000E+00 -0.00000000000E+00 -0.56847151832E+03  0.56847151832E+03  0.00000000000E+00 0. -1.
         -6    2    1    2    0  503  0.77616213270E+02 -0.57083187570E+02 -0.32170597082E+03  0.37738053065E+03  0.17215855013E+03 0.  0.
        -24    2    3    3    0    0  0.46391942449E+02 -0.10484828048E+03 -0.25254492185E+03  0.28759300431E+03  0.76061976931E+02 0.  0.
          6    2    1    2  501    0 -0.77616213270E+02  0.57083187570E+02 -0.17452777475E+03  0.26332876042E+03  0.17204454378E+03 0.  0.
         24    2    5    5    0    0 -0.56857879716E+02  0.35777348864E+00 -0.17723561940E+03  0.20268139084E+03  0.80214306204E+02 0.  0.
          5    1    5    5  501    0 -0.20758333554E+02  0.56725414081E+02  0.27078446592E+01  0.60647369583E+02  0.47000000000E+01 0. -1.
        -11    1    6    6    0    0 -0.15487568590E+02  0.38843381931E+02 -0.75970935334E+02  0.86719410262E+02  0.00000000000E+00 0.  1.
         12    1    6    6    0    0 -0.41370311126E+02 -0.38485608442E+02 -0.10126468407E+03  0.11596198058E+03  0.00000000000E+00 0. -1.
         -5    1    3    3    0  503  0.31224270821E+02  0.47765092915E+02 -0.69161048977E+02  0.89787526334E+02  0.47000000000E+01 0.  1.
         13    1    4    4    0    0  0.57134198209E+02 -0.37004734405E+02 -0.10994348048E+03  0.12931061779E+03  0.00000000000E+00 0. -1.
        -14    1    4    4    0    0 -0.10742255760E+02 -0.67843546080E+02 -0.14260144136E+03  0.15828238652E+03  0.00000000000E+00 0.  1.
</event>
<event>
12    1  0.8356052E-002  0.2103185E+03  0.7818608E-02  0.1141675E+00
         21   -1    0    0  501  502  0.00000000000E+00  0.00000000000E+00  0.19897488746E+03  0.19897488746E+03  0.00000000000E+00 0. -1.
         21   -1    0    0  502  503 -0.00000000000E+00 -0.00000000000E+00 -0.25852380043E+03  0.25852380043E+03  0.00000000000E+00 0.  1.
         -6    2    1    2    0  503  0.15321797481E+02 -0.11596650197E+03 -0.11751574134E+03  0.23933814033E+03  0.17259724475E+03 0.  0.
        -24    2    3    3    0    0  0.45289913463E+02 -0.57554259536E+02 -0.41856847635E+01  0.10828139779E+03  0.79647172570E+02 0.  0.
          6    2    1    2  501    0 -0.15321797481E+02  0.11596650197E+03  0.57966828365E+02  0.21816054756E+03  0.17478811248E+03 0.  0.
         24    2    5    5    0    0 -0.14918121100E+02  0.18214429688E+02  0.53723820142E+02  0.12020278264E+03  0.10491970414E+03 0.  0.
          5    1    5    5  501    0 -0.40367638126E+00  0.97752072284E+02  0.42430082231E+01  0.97957764926E+02  0.47000000000E+01 0. -1.
        -11    1    6    6    0    0 -0.43328219351E+02 -0.52111933399E+01 -0.11652833097E+02  0.45169454805E+02  0.00000000000E+00 0.  1.
         12    1    6    6    0    0  0.28410098251E+02  0.23425623028E+02  0.65376653239E+02  0.75033327833E+02  0.00000000000E+00 0. -1.
         -5    1    3    3    0  503 -0.29968115982E+02 -0.58412242436E+02 -0.11333005657E+03  0.13105674254E+03  0.47000000000E+01 0.  1.
         13    1    4    4    0    0 -0.18984179918E+02 -0.53601770595E+01 -0.14998987559E+02  0.24781045439E+02  0.00000000000E+00 0. -1.
        -14    1    4    4    0    0  0.64274093381E+02 -0.52194082476E+02  0.10813302796E+02  0.83500352352E+02  0.00000000000E+00 0.  1.
</event>
<event>
12    1  0.8356052E-002  0.1719930E+03  0.7818608E-02  0.1175858E+00
         21   -1    0    0  501  502  0.00000000000E+00  0.00000000000E+00  0.52471831169E+03  0.52471831169E+03  0.00000000000E+00 0.  1.
         21   -1    0    0  502  503 -0.00000000000E+00 -0.00000000000E+00 -0.58329766504E+02  0.58329766504E+02  0.00000000000E+00 0.  1.
         -6    2    1    2    0  503 -0.35575526891E+01 -0.22531482198E+01  0.17840019075E+03  0.24760972676E+03  0.17165726280E+03 0.  0.
        -24    2    3    3    0    0  0.20059802828E+02  0.51652039184E+02  0.62392363486E+02  0.11744270061E+03  0.82641708988E+02 0.  0.
          6    2    1    2  501    0  0.35575526891E+01  0.22531482198E+01  0.28798835444E+03  0.33543835143E+03  0.17194145068E+03 0.  0.
         24    2    5    5    0    0  0.58522866504E+02 -0.14713804482E+02  0.24383377843E+03  0.26276937739E+03  0.77145396753E+02 0.  0.
          5    1    5    5  501    0 -0.54965313815E+02  0.16966952701E+02  0.44154576004E+02  0.72668974046E+02  0.47000000000E+01 0. -1.
        -13    1    6    6    0    0  0.45505780255E+02  0.25936385023E+02  0.16510803126E+03  0.17321701444E+03  0.00000000000E+00 0.  1.
         14    1    6    6    0    0  0.13017086250E+02 -0.40650189505E+02  0.78725747170E+02  0.89552362943E+02  0.00000000000E+00 0. -1.
         -5    1    3    3    0  503 -0.23617355517E+02 -0.53905187404E+02  0.11600782726E+03  0.13016702615E+03  0.47000000000E+01 0.  1.
         13    1    4    4    0    0 -0.55266810148E+00 -0.97386158402E+01  0.50708881105E+02  0.51638519570E+02  0.00000000000E+00 0. -1.
        -14    1    4    4    0    0  0.20612470929E+02  0.61390655024E+02  0.11683482381E+02  0.65804181042E+02  0.00000000000E+00 0.  1.
</event>
<event>
12    1  0.8356052E-002  0.1940349E+03  0.7818608E-02  0.1154995E+00
         21   -1    0    0  503  502  0.00000000000E+00  0.00000000000E+00  0.11663025069E+04  0.11663025069E+04  0.00000000000E+00 0.  1.
         21   -1    0    0  501  503 -0.00000000000E+00 -0.00000000000E+00 -0.32779541930E+02  0.32779541930E+02  0.00000000000E+00 0.  1.
          6    2    1    2  501    0 -0.91103229685E+02 -0.18921227103E+02  0.48701427902E+03  0.52424463745E+03  0.17026955286E+03 0.  0.
         24    2    3    3    0    0 -0.42449513870E+02 -0.32077118548E+02  0.43449147008E+03  0.45129947310E+03  0.10980653027E+03 0.  0.
         -6    2    1    2    0  502  0.91103229685E+02  0.18921227103E+02  0.64650868595E+03  0.67483741138E+03  0.16962971290E+03 0.  0.
        -24    2    5    5    0    0 -0.18460802961E+02 -0.16050765683E+01  0.30428167012E+03  0.31488321047E+03  0.78871566146E+02 0.  0.
          5    1    3    3  501    0 -0.48653715815E+02  0.13155891445E+02  0.52522808943E+02  0.72945164347E+02  0.47000000000E+01 0. -1.
        -11    1    4    4    0    0 -0.61222304357E+02  0.12824882326E+02  0.14756936844E+03  0.16027902751E+03  0.00000000000E+00 0.  1.
         12    1    4    4    0    0  0.18772790487E+02 -0.44902000874E+02  0.28692210164E+03  0.29102044559E+03  0.00000000000E+00 0. -1.
         -5    1    5    5    0  502  0.10956403265E+03  0.20526303672E+02  0.34222701582E+03  0.35995420091E+03  0.47000000000E+01 0.  1.
         13    1    6    6    0    0 -0.27518846777E+02  0.71989495948E+01  0.34099591553E+02  0.44406012512E+02  0.00000000000E+00 0. -1.
        -14    1    6    6    0    0  0.90580438163E+01 -0.88040261631E+01  0.27018207857E+03  0.27047719796E+03  0.00000000000E+00 0.  1.
</event>
<event>
12    1  0.8356052E-002  0.2010338E+03  0.7818608E-02  0.1149024E+00
         21   -1    0    0  501  502  0.00000000000E+00  0.00000000000E+00  0.36887677824E+03  0.36887677824E+03  0.00000000000E+00 0. -1.
         21   -1    0    0  502  503 -0.00000000000E+00 -0.00000000000E+00 -0.13193515982E+03  0.13193515982E+03  0.00000000000E+00 0. -1.
         -6    2    1    2    0  503  0.89577603221E+02 -0.50805289027E+02  0.22232699176E+03  0.29924763213E+03  0.17179793270E+03 0.  0.
        -24    2    3    3    0    0 -0.18353818087E+02 -0.32440188545E+02  0.72886840564E+02  0.11393460666E+03  0.79242504982E+02 0.  0.
          6    2    1    2  501    0 -0.89577603221E+02  0.50805289027E+02  0.14614626669E+02  0.20156430593E+03  0.17265357720E+03 0.  0.
         24    2    5    5    0    0 -0.18344215786E+02  0.35744827833E+02 -0.31674971389E+02  0.11515927213E+03  0.10317049567E+03 0.  0.
          5    1    5    5  501    0 -0.71233387435E+02  0.15060461194E+02  0.46289598059E+02  0.86405033796E+02  0.47000000000E+01 0. -1.
        -11    1    6    6    0    0 -0.59268798686E+01 -0.29106322857E+02 -0.38669028192E+02  0.48760636548E+02  0.00000000000E+00 0.  1.
         12    1    6    6    0    0 -0.12417335917E+02  0.64851150690E+02  0.69940568027E+01  0.66398635585E+02  0.00000000000E+00 0. -1.
         -5    1    3    3    0  503  0.10793142131E+03 -0.18365100482E+02  0.14944015119E+03  0.18531302547E+03  0.47000000000E+01 0.  1.
         13    1    4    4    0    0  0.14169024316E+02 -0.86258935445E+01 -0.11655951603E+02  0.20273837754E+02  0.00000000000E+00 0. -1.
        -14    1    4    4    0    0 -0.32522842403E+02 -0.23814295000E+02  0.84542792167E+02  0.93660768904E+02  0.00000000000E+00 0.  1.
</event>
<event>
12    1  0.8356052E-002  0.1830005E+03  0.7818608E-02  0.1164965E+00
         21   -1    0    0  501  502  0.00000000000E+00  0.00000000000E+00  0.99362553427E+02  0.99362553427E+02  0.00000000000E+00 0.  1.
         21   -1    0    0  502  503 -0.00000000000E+00 -0.00000000000E+00 -0.34324033206E+03  0.34324033206E+03  0.00000000000E+00 0.  1.
         -6    2    1    2    0  503 -0.60978710800E+02 -0.44424158000E+01 -0.91599617648E+02  0.20464525227E+03  0.17248493005E+03 0.  0.
        -24    2    3    3    0    0 -0.28364529396E+02  0.58990695758E+02 -0.83612896612E+02  0.13271944200E+03  0.79617115567E+02 0.  0.
          6    2    1    2  501    0  0.60978710800E+02  0.44424158000E+01 -0.15227816098E+03  0.23795763321E+03  0.17232834550E+03 0.  0.
         24    2    5    5    0    0  0.20324656804E+02 -0.14024002484E+00  0.19045901667E+00  0.80025613262E+02  0.77401234886E+02 0.  0.
          5    1    5    5  501    0  0.40654053996E+02  0.45826558249E+01 -0.15246862000E+03  0.15793201995E+03  0.47000000000E+01 0. -1.
        -13    1    6    6    0    0  0.25647178984E+02  0.34688750255E+02 -0.79435395851E+01  0.43865556023E+02  0.00000000000E+00 0.  1.
         14    1    6    6    0    0 -0.53225221805E+01 -0.34828990280E+02  0.81339986018E+01  0.36160057239E+02  0.00000000000E+00 0. -1.
         -5    1    3    3    0  503 -0.32614181404E+02 -0.63433111558E+02 -0.79867210358E+01  0.71925810273E+02  0.47000000000E+01 0.  1.
         13    1    4    4    0    0  0.64802153824E+01  0.30803761333E+02  0.64402137737E+01  0.32130067805E+02  0.00000000000E+00 0. -1.
        -14    1    4    4    0    0 -0.34844744778E+02  0.28186934424E+02 -0.90053110386E+02  0.10058937420E+03  0.00000000000E+00 0.  1.
</event>
<event>
12    1  0.8356052E-002  0.2549918E+03  0.7818608E-02  0.1110471E+00
         21   -1    0    0  503  502  0.00000000000E+00  0.00000000000E+00  0.25748539592E+03  0.25748539592E+03  0.00000000000E+00 0.  1.
         21   -1    0    0  501  503 -0.00000000000E+00 -0.00000000000E+00 -0.25880874804E+03  0.25880874804E+03  0.00000000000E+00 0. -1.
          6    2    1    2  501    0  0.17662954849E+03 -0.60963995358E+02  0.44960338274E+02  0.25713586402E+03  0.17082978200E+03 0.  0.
         24    2    3    3    0    0  0.18822241711E+02 -0.44277254367E+02  0.24801875385E+02  0.97104470151E+02  0.80618813334E+02 0.  0.
         -6    2    1    2    0  502 -0.17662954849E+03  0.60963995358E+02 -0.46283690387E+02  0.25915827994E+03  0.17351146341E+03 0.  0.
        -24    2    5    5    0    0 -0.12703298191E+03 -0.26780471821E+02 -0.13172397781E+02  0.15296337123E+03  0.79810454897E+02 0.  0.
          5    1    3    3  501    0  0.15780730678E+03 -0.16686740991E+02  0.20158462889E+02  0.16003139387E+03  0.47000000000E+01 0. -1.
        -11    1    4    4    0    0  0.19250018483E+02 -0.56984588542E+02  0.43686020992E+02  0.74338919639E+02  0.00000000000E+00 0.  1.
         12    1    4    4    0    0 -0.42777677206E+00  0.12707334176E+02 -0.18884145607E+02  0.22765550512E+02  0.00000000000E+00 0. -1.
         -5    1    5    5    0  502 -0.49596566581E+02  0.87744467179E+02 -0.33111292607E+02  0.10619490871E+03  0.47000000000E+01 0.  1.
         11    1    6    6    0    0 -0.11081248562E+03 -0.44812975792E+02  0.93085651719E+01  0.11989269850E+03  0.00000000000E+00 0. -1.
        -12    1    6    6    0    0 -0.16220496288E+02  0.18032503971E+02 -0.22480962953E+02  0.33070672726E+02  0.00000000000E+00 0.  1.
</event>
<event>
12    1  0.8356052E-002  0.3157184E+03  0.7818608E-02  0.1077808E+00
         21   -1    0    0  501  502  0.00000000000E+00  0.00000000000E+00  0.77241236390E+03  0.77241236390E+03  0.00000000000E+00 0. -1.
         21   -1    0    0  502  503 -0.00000000000E+00 -0.00000000000E+00 -0.13097992274E+03  0.13097992274E+03  0.00000000000E+00 0. -1.
         -6    2    1    2    0  503 -0.21373115531E+03 -0.15752915647E+03  0.38419077856E+03  0.49727322318E+03  0.17082640976E+03 0.  0.
        -24    2    3    3    0    0 -0.76354457365E+02 -0.23968904357E+02  0.21185464136E+03  0.23952813153E+03  0.78018108110E+02 0.  0.
          6    2    1    2  501    0  0.21373115531E+03  0.15752915647E+03  0.25724166260E+03  0.40611906345E+03  0.16811596840E+03 0.  0.
         24    2    5    5    0    0  0.81350583882E+02  0.10984722327E+02  0.73355726890E+02  0.13623758164E+03  0.80256054982E+02 0.  0.
          5    1    5    5  501    0  0.13238057143E+03  0.14654443415E+03  0.18388593571E+03  0.26988148181E+03  0.47000000000E+01 0. -1.
        -11    1    6    6    0    0  0.74114448536E+01  0.34957416655E+01  0.60211692572E+02  0.60766747872E+02  0.00000000000E+00 0.  1.
         12    1    6    6    0    0  0.73939139028E+02  0.74889806612E+01  0.13144034318E+02  0.75470833769E+02  0.00000000000E+00 0. -1.
         -5    1    3    3    0  503 -0.13737669795E+03 -0.13356025212E+03  0.17233613720E+03  0.25774509165E+03  0.47000000000E+01 0.  1.
         13    1    4    4    0    0  0.10960132135E+02 -0.11968529250E+02  0.75097271744E+02  0.76830790782E+02  0.00000000000E+00 0. -1.
        -14    1    4    4    0    0 -0.87314589500E+02 -0.12000375107E+02  0.13675736962E+03  0.16269734075E+03  0.00000000000E+00 0.  1.
</event>
<event>
12    1  0.8356052E-002  0.1930333E+03  0.7818608E-02  0.1157616E+00
         21   -1    0    0  503  502  0.00000000000E+00  0.00000000000E+00  0.22668785886E+03  0.22668785886E+03  0.00000000000E+00 0. -1.
         21   -1    0    0  501  503 -0.00000000000E+00 -0.00000000000E+00 -0.19693776397E+03  0.19693776397E+03  0.00000000000E+00 0.  1.
          6    2    1    2  501    0  0.80310623771E+02  0.18083792793E+02 -0.79708905285E+02  0.20884293176E+03  0.17459965840E+03 0.  0.
         24    2    3    3    0    0 -0.19414248705E+01 -0.27922767365E+02  0.65773463098E+00  0.84895806360E+02  0.80146211731E+02 0.  0.
         -6    2    1    2    0  502 -0.80310623771E+02 -0.18083792793E+02  0.10945900017E+03  0.21478269107E+03  0.16544942373E+03 0.  0.
        -24    2    5    5    0    0 -0.38266091893E+02 -0.63460643807E+02  0.25620484131E+02  0.11048605622E+03  0.77840942382E+02 0.  0.
          5    1    3    3  501    0  0.82252048642E+02  0.46006560158E+02 -0.80366639916E+02  0.12394712540E+03  0.47000000000E+01 0. -1.
        -11    1    4    4    0    0 -0.29924716387E+02  0.48848226538E+01 -0.20762101174E+02  0.36747992984E+02  0.00000000000E+00 0.  1.
         12    1    4    4    0    0  0.27983291517E+02 -0.32807590019E+02  0.21419835805E+02  0.48147813376E+02  0.00000000000E+00 0. -1.
         -5    1    5    5    0  502 -0.42044531878E+02  0.45376851014E+02  0.83838516041E+02  0.10429663485E+03  0.47000000000E+01 0.  1.
         13    1    6    6    0    0 -0.15389233720E+02  0.50559924856E+01  0.34103259960E+02  0.37754786642E+02  0.00000000000E+00 0. -1.
        -14    1    6    6    0    0 -0.22876858173E+02 -0.68516636292E+02 -0.84827758294E+01  0.72731269578E+02  0.00000000000E+00 0.  1.
</event>
<event>
12    1  0.8356052E-002  0.2162484E+03  0.7818608E-02  0.1136737E+00
         21   -1    0    0  503  502  0.00000000000E+00  0.00000000000E+00  0.10148331495E+03  0.10148331495E+03  0.00000000000E+00 0. -1.
         21   -1    0    0  501  503 -0.00000000000E+00 -0.00000000000E+00 -0.63199709089E+03  0.63199709089E+03  0.00000000000E+00 0.  1.
          6    2    1    2  501    0  0.11633631261E+03 -0.60536636942E+02 -0.45634990063E+03  0.50499367736E+03  0.17194348001E+03 0.  0.
         24    2    3    3    0    0  0.24868505082E+02 -0.71968672833E+02 -0.33163501774E+03  0.34983909872E+03  0.81287622571E+02 0.  0.
         -6    2    1    2    0  502 -0.11633631261E+03  0.60536636942E+02 -0.74163875315E+02  0.22848672848E+03  0.17177625752E+03 0.  0.
        -24    2    5    5    0    0 -0.13949998413E+03  0.24127602437E+02 -0.86379935264E+02  0.18339243181E+03  0.78287317337E+02 0.  0.
          5    1    3    3  501    0  0.91467807528E+02  0.11432035891E+02 -0.12471488289E+03  0.15515457864E+03  0.47000000000E+01 0. -1.
        -11    1    4    4    0    0 -0.23502107544E+02  0.71553472041E-01 -0.52326324901E+02  0.57361994880E+02  0.00000000000E+00 0.  1.
         12    1    4    4    0    0  0.48370612626E+02 -0.72040226305E+02 -0.27930869284E+03  0.29247710384E+03  0.00000000000E+00 0. -1.
         -5    1    5    5    0  502  0.23163671522E+02  0.36409034505E+02  0.12216059949E+02  0.45094296675E+02  0.47000000000E+01 0.  1.
         13    1    6    6    0    0 -0.43795094630E+02  0.20644988027E+02  0.78379098519E+01  0.49047514464E+02  0.00000000000E+00 0. -1.
        -14    1    6    6    0    0 -0.95704889502E+02  0.34826144104E+01 -0.94217845116E+02  0.13434491734E+03  0.00000000000E+00 0.  1.
</event>
<event>
12    1  0.8356052E-002  0.1839390E+03  0.7818608E-02  0.1164272E+00
         21   -1    0    0  501  502  0.00000000000E+00  0.00000000000E+00  0.19438892024E+03  0.19438892024E+03  0.00000000000E+00 0. -1.
         21   -1    0    0  502  503 -0.00000000000E+00 -0.00000000000E+00 -0.23037760460E+03  0.23037760460E+03  0.00000000000E+00 0.  1.
         -6    2    1    2    0  503 -0.62175935248E+02  0.20489412652E+02 -0.12382012014E+03  0.22093346414E+03  0.17086401163E+03 0.  0.
        -24    2    3    3    0    0  0.22706808517E+02 -0.20323970802E+02 -0.82027863501E+02  0.11778553555E+03  0.78842875720E+02 0.  0.
          6    2    1    2  501    0  0.62175935248E+02 -0.20489412652E+02  0.87831435779E+02  0.20383306070E+03  0.17189500449E+03 0.  0.
         24    2    5    5    0    0 -0.11401559416E+02  0.35145968554E+00 -0.81937307508E+01  0.80987986366E+02  0.79760877822E+02 0.  0.
          5    1    5    5  501    0  0.73577494664E+02 -0.20840872338E+02  0.96025166530E+02  0.12284507433E+03  0.47000000000E+01 0. -1.
        -11    1    6    6    0    0  0.67557485076E+01  0.36924400424E+02 -0.13330235763E+02  0.39833988880E+02  0.00000000000E+00 0.  1.
         12    1    6    6    0    0 -0.18157307924E+02 -0.36572940739E+02  0.51365050120E+01  0.41153997486E+02  0.00000000000E+00 0. -1.
         -5    1    3    3    0  503 -0.84882743765E+02  0.40813383455E+02 -0.41792256644E+02  0.10314792860E+03  0.47000000000E+01 0.  1.
         11    1    4    4    0    0 -0.81333572691E+01 -0.28004375944E+02 -0.80886743594E+02  0.85982916104E+02  0.00000000000E+00 0. -1.
        -12    1    4    4    0    0  0.30840165787E+02  0.76804051418E+01 -0.11411199065E+01  0.31802619444E+02  0.00000000000E+00 0.  1.
</event>
<event>
12    1  0.8356052E-002  0.2085270E+03  0.7818608E-02  0.1143306E+00
         21   -1    0    0  501  502  0.00000000000E+00  0.00000000000E+00  0.62653456337E+03  0.62653456337E+03  0.00000000000E+00 0.  1.
         21   -1    0    0  502  503 -0.00000000000E+00 -0.00000000000E+00 -0.10211842133E+03  0.10211842133E+03  0.00000000000E+00 0. -1.
         -6    2    1    2    0  503  0.88128486043E+02  0.72496237896E+02  0.47254585056E+03  0.51651050233E+03  0.17453132547E+03 0.  0.
        -24    2    3    3    0    0  0.33560673813E+02  0.78796907355E+02  0.15447891615E+03  0.19370094650E+03  0.79505029433E+02 0.  0.
          6    2    1    2  501    0 -0.88128486043E+02 -0.72496237896E+02  0.51870291474E+02  0.21214248237E+03  0.17114780492E+03 0.  0.
         24    2    5    5    0    0 -0.24991289820E+02 -0.65788193138E+02  0.88309140523E+02  0.13878593439E+03  0.80686928073E+02 0.  0.
          5    1    5    5  501    0 -0.63137196223E+02 -0.67080447583E+01 -0.36438849049E+02  0.73356547979E+02  0.47000000000E+01 0. -1.
        -13    1    6    6    0    0 -0.85113643626E+01 -0.63579074021E+02  0.18123110430E+02  0.66657250981E+02  0.00000000000E+00 0.  1.
         14    1    6    6    0    0 -0.16479925458E+02 -0.22091191169E+01  0.70186030093E+02  0.72128683411E+02  0.00000000000E+00 0. -1.
         -5    1    3    3    0  503  0.54567812231E+02 -0.63006694591E+01  0.31806693441E+03  0.32280955582E+03  0.47000000000E+01 0.  1.
         11    1    4    4    0    0  0.47725100751E+02  0.13065704522E+02  0.70182241943E+02  0.85871677289E+02  0.00000000000E+00 0. -1.
        -12    1    4    4    0    0 -0.14164426939E+02  0.65731202833E+02  0.84296674209E+02  0.10782926921E+03  0.00000000000E+00 0.  1.
</event>
<event>
12    1  0.8356052E-002  0.1834600E+03  0.7818608E-02  0.1165481E+00
         21   -1    0    0  501  502  0.00000000000E+00  0.00000000000E+00  0.42539784144E+02  0.42539784144E+02  0.00000000000E+00 0.  1.
         21   -1    0    0  502  503 -0.00000000000E+00 -0.00000000000E+00 -0.78480996270E+03  0.78480996270E+03  0.00000000000E+00 0. -1.
         -6    2    1    2    0  503  0.61735740906E+02  0.61938590597E+01 -0.42490744687E+03  0.46282168580E+03  0.17264967083E+03 0.  0.
        -24    2    3    3    0    0  0.79216303820E+02  0.54687963934E+02 -0.23953698043E+03  0.27035987629E+03  0.80315014321E+02 0.  0.
          6    2    1    2  501    0 -0.61735740906E+02 -0.61938590597E+01 -0.31736273169E+03  0.36452806105E+03  0.16826151740E+03 0.  0.
         24    2    5    5    0    0  0.28274995392E+02  0.10414549601E+02 -0.13206493208E+03  0.15780327680E+03  0.80949303114E+02 0.  0.
          5    1    5    5  501    0 -0.90010736298E+02 -0.16608408661E+02 -0.18529779961E+03  0.20672478426E+03  0.47000000000E+01 0. -1.
        -13    1    6    6    0    0  0.24726040669E+02 -0.22647222611E+02 -0.11623730868E+03  0.12097679823E+03  0.00000000000E+00 0.  1.
         14    1    6    6    0    0  0.35489547227E+01  0.33061772212E+02 -0.15827623395E+02  0.36826478568E+02  0.00000000000E+00 0. -1.
         -5    1    3    3    0  503 -0.17480562914E+02 -0.48494104875E+02 -0.18537046645E+03  0.19246180951E+03  0.47000000000E+01 0.  1.
         13    1    4    4    0    0  0.48385208152E+02  0.71220251076E+02 -0.19891406307E+03  0.21674929531E+03  0.00000000000E+00 0. -1.
        -14    1    4    4    0    0  0.30831095668E+02 -0.16532287141E+02 -0.40622917354E+02  0.53610580976E+02  0.00000000000E+00 0.  1.
</event>
<event>
12    1  0.8356052E-002  0.1917397E+03  0.7818608E-02  0.1157428E+00
         21   -1    0    0  503  502  0.00000000000E+00  0.00000000000E+00  0.15000550903E+03  0.15000550903E+03  0.00000000000E+00 0.  1.
         21   -1    0    0  501  503 -0.00000000000E+00 -0.00000000000E+00 -0.29190561693E+03  0.29190561693E+03  0.00000000000E+00 0.  1.
          6    2    1    2  501    0  0.74784053772E+02  0.28112016895E+02 -0.16186069598E+03  0.24913522256E+03  0.17171643493E+03 0.  0.
         24    2    3    3    0    0  0.10897975263E+03  0.45799775465E+02 -0.15321760477E+03  0.20939864433E+03  0.79987198478E+02 0.  0.
         -6    2    1    2    0  502 -0.74784053772E+02 -0.28112016895E+02  0.19960588083E+02  0.19277590340E+03  0.17430198985E+03 0.  0.
        -24    2    5    5    0    0 -0.74869014648E+02  0.73828234350E+01 -0.45711458230E+02  0.11797751722E+03  0.78544775259E+02 0.  0.
          5    1    3    3  501    0 -0.34195698856E+02 -0.17687758570E+02 -0.86430912033E+01  0.39736578225E+02  0.47000000000E+01 0. -1.
        -11    1    4    4    0    0  0.75035198757E+02  0.55380512118E+02 -0.63035151919E+02  0.11256425966E+03  0.00000000000E+00 0.  1.
         12    1    4    4    0    0  0.33944553871E+02 -0.95807366533E+01 -0.90182452855E+02  0.96834384675E+02  0.00000000000E+00 0. -1.
         -5    1    5    5    0  502  0.84960875336E-01 -0.35494840330E+02  0.65672046313E+02  0.74798386181E+02  0.47000000000E+01 0.  1.
         11    1    6    6    0    0 -0.17270639567E+02  0.55000749755E+01 -0.56509775256E+02  0.59345433820E+02  0.00000000000E+00 0. -1.
        -12    1    6    6    0    0 -0.57598375080E+02  0.18827484595E+01  0.10798317026E+02  0.58632083404E+02  0.00000000000E+00 0.  1.
</event>
<event>
12    1  0.8356052E-002  0.6288532E+03  0.7818608E-02  0.9847461E-01
         21   -1    0    0  501  502  0.00000000000E+00  0.00000000000E+00  0.40023499876E+03  0.40023499876E+03  0.00000000000E+00 0. -1.
         21   -1    0    0  502  503 -0.00000000000E+00 -0.00000000000E+00 -0.10487293604E+04  0.10487293604E+04  0.00000000000E+00 0.  1.
         -6    2    1    2    0  503 -0.24915248754E+03  0.55087909811E+03 -0.49937696750E+03  0.80301539063E+03  0.17294975901E+03 0.  0.
        -24    2    3    3    0    0 -0.22158187530E+03  0.35253168183E+03 -0.29400774403E+03  0.51613485077E+03  0.81101889458E+02 0.  0.
          6    2    1    2  501    0  0.24915248754E+03 -0.55087909811E+03 -0.14911739412E+03  0.64594896852E+03  0.17166633311E+03 0.  0.
         24    2    5    5    0    0  0.12088942502E+03 -0.19271193236E+03 -0.89397206234E+02  0.26082077861E+03  0.91013604009E+02 0.  0.
          5    1    5    5  501    0  0.12826306252E+03 -0.35816716575E+03 -0.59720187890E+02  0.38512818991E+03  0.47000000000E+01 0. -1.
        -11    1    6    6    0    0  0.11449701684E+02 -0.16915204533E+02  0.18287729601E+02  0.27416434250E+02  0.00000000000E+00 0.  1.
         12    1    6    6    0    0  0.10943972333E+03 -0.17579672783E+03 -0.10768493583E+03  0.23340434436E+03  0.00000000000E+00 0. -1.
         -5    1    3    3    0  503 -0.27570612243E+02  0.19834741628E+03 -0.20536922347E+03  0.28688053986E+03  0.47000000000E+01 0.  1.
         11    1    4    4    0    0 -0.70988477082E+02  0.14657939865E+03 -0.72556649707E+02  0.17829568532E+03  0.00000000000E+00 0. -1.
        -12    1    4    4    0    0 -0.15059339822E+03  0.20595228318E+03 -0.22145109433E+03  0.33783916545E+03  0.00000000000E+00 0.  1.
</event>
<event>
12    1  0.8356052E-002  0.1821663E+03  0.7818608E-02  0.1166946E+00
         21   -1    0    0  503  502  0.00000000000E+00  0.00000000000E+00  0.12254758317E+03  0.12254758317E+03  0.00000000000E+00 0.  1.
         21   -1    0    0  501  503 -0.00000000000E+00 -0.00000000000E+00 -0.81094354758E+03  0.81094354758E+03  0.00000000000E+00 0.  1.
          6    2    1    2  501    0 -0.21459553534E+02 -0.50115650593E+02 -0.72931171124E+03  0.75171812856E+03  0.17381738054E+03 0.  0.
         24    2    3    3    0    0 -0.26069811645E+02  0.39086145193E+02 -0.39941902246E+03  0.40991483577E+03  0.79292214340E+02 0.  0.
         -6    2    1    2    0  502  0.21459553534E+02  0.50115650593E+02  0.40915746826E+02  0.18177300219E+03  0.16850885768E+03 0.  0.
        -24    2    5    5    0    0  0.23189326358E+02  0.85503283824E+02  0.67369183328E+02  0.13730783602E+03  0.80413174102E+02 0.  0.
          5    1    3    3  501    0  0.46102581116E+01 -0.89201795786E+02 -0.32989268877E+03  0.34180329278E+03  0.47000000000E+01 0. -1.
        -13    1    4    4    0    0 -0.23203632109E+02  0.58136244439E+02 -0.36622202549E+03  0.37153304485E+03  0.00000000000E+00 0.  1.
         14    1    4    4    0    0 -0.28661795358E+01 -0.19050099246E+02 -0.33196996976E+02  0.38381790925E+02  0.00000000000E+00 0. -1.
         -5    1    5    5    0  502 -0.17297728242E+01 -0.35387633231E+02 -0.26453436502E+02  0.44465166169E+02  0.47000000000E+01 0.  1.
         11    1    6    6    0    0 -0.34433392633E+01  0.77571495398E+02  0.16557254598E+02  0.79393552405E+02  0.00000000000E+00 0. -1.
        -12    1    6    6    0    0  0.26632665621E+02  0.79317884258E+01  0.50811928729E+02  0.57914283617E+02  0.00000000000E+00 0.  1.
</event>
<event>
12    1  0.8356052E-002  0.1762187E+03  0.7818608E-02  0.1171914E+00
         21   -1    0    0  503  502  0.00000000000E+00  0.00000000000E+00  0.45436628027E+03  0.45436628027E+03  0.00000000000E+00 0.  1.
         21   -1    0    0  501  503 -0.00000000000E+00 -0.00000000000E+00 -0.87499948347E+02  0.87499948347E+02  0.00000000000E+00 0.  1.
          6    2    1    2  501    0 -0.25118449525E+02 -0.23305426576E+02  0.53982570436E+02  0.18277113027E+03  0.17122233714E+03 0.  0.
         24    2    3    3    0    0 -0.62104982175E+02 -0.59434081377E+02  0.14688436378E+02  0.11766043786E+03  0.78986009101E+02 0.  0.
         -6    2    1    2    0  502  0.25118449525E+02  0.23305426576E+02  0.31288376148E+03  0.35909509834E+03  0.17285532112E+03 0.  0.
        -24    2    5    5    0    0  0.80397014867E+02 -0.61078915026E+01  0.20497823648E+03  0.23424897148E+03  0.79721495657E+02 0.  0.
          5    1    3    3  501    0  0.36986532650E+02  0.36128654801E+02  0.39294134058E+02  0.65110692414E+02  0.47000000000E+01 0. -1.
        -13    1    4    4    0    0 -0.12407573706E+02 -0.15606056570E+02 -0.31223756800E+02  0.37046185710E+02  0.00000000000E+00 0.  1.
         14    1    4    4    0    0 -0.49697408468E+02 -0.43828024807E+02  0.45912193178E+02  0.80614252148E+02  0.00000000000E+00 0. -1.
         -5    1    5    5    0  502 -0.55278565342E+02  0.29413318079E+02  0.10790552500E+03  0.12484612686E+03  0.47000000000E+01 0.  1.
         13    1    6    6    0    0 -0.12049884587E+02 -0.37978281503E+01  0.66779252893E+02  0.67963900964E+02  0.00000000000E+00 0. -1.
        -14    1    6    6    0    0  0.92446899454E+02 -0.23100633524E+01  0.13819898359E+03  0.16628507051E+03  0.00000000000E+00 0.  1.
</event>
<event>
12    1  0.8356052E-002  0.1834759E+03  0.7818608E-02  0.1165967E+00
         21   -1    0    0  503  502  0.00000000000E+00  0.00000000000E+00  0.33819666997E+03  0.33819666997E+03  0.00000000000E+00 0. -1.
         21   -1    0    0  501  503 -0.00000000000E+00 -0.00000000000E+00 -0.15386015549E+03  0.15386015549E+03  0.00000000000E+00 0. -1.
          6    2    1    2  501    0 -0.46797809450E+02 -0.29863375216E+01 -0.59403170177E+02  0.18697905535E+03  0.17097800248E+03 0.  0.
         24    2    3    3    0    0  0.77533022968E+01  0.20498803385E+02  0.25169002961E+02  0.83528979925E+02  0.76572169491E+02 0.  0.
         -6    2    1    2    0  502  0.46797809450E+02  0.29863375216E+01  0.24373968466E+03  0.30507777011E+03  0.17738223912E+03 0.  0.
        -24    2    5    5    0    0  0.72978409462E+02 -0.20362282801E+02  0.80837432632E+02  0.13837499388E+03  0.82900407764E+02 0.  0.
          5    1    3    3  501    0 -0.54551111747E+02 -0.23485140906E+02 -0.84572173138E+02  0.10345007543E+03  0.47000000000E+01 0. -1.
        -13    1    4    4    0    0  0.31453498151E+01  0.11728118361E+01  0.50905459931E+02  0.51016022619E+02  0.00000000000E+00 0.  1.
         14    1    4    4    0    0  0.46079524817E+01  0.19325991548E+02 -0.25736456971E+02  0.32512957306E+02  0.00000000000E+00 0. -1.
         -5    1    5    5    0  502 -0.26180600012E+02  0.23348620322E+02  0.16290225203E+03  0.16670277623E+03  0.47000000000E+01 0.  1.
         13    1    6    6    0    0 -0.64699514084E+01  0.21441420884E+02  0.18920470464E+02  0.29318577785E+02  0.00000000000E+00 0. -1.
        -14    1    6    6    0    0  0.79448360870E+02 -0.41803703684E+02  0.61916962168E+02  0.10905641609E+03  0.00000000000E+00 0.  1.
</event>
<event>
12    1  0.8356052E-002  0.2092763E+03  0.7818608E-02  0.1142365E+00
         21   -1    0    0  501  502  0.00000000000E+00  0.00000000000E+00  0.15584766593E+03  0.15584766593E+03  0.00000000000E+00 0.  1.
         21   -1    0    0  502  503 -0.00000000000E+00 -0.00000000000E+00 -0.61115046526E+03  0.61115046526E+03  0.00000000000E+00 0.  1.
         -6    2    1    2    0  503  0.93365277603E+02  0.64906535910E+02 -0.51043317150E+03  0.55166891890E+03  0.17568904360E+03 0.  0.
        -24    2    3    3    0    0  0.71628953633E+01 -0.22623084455E+02 -0.26046880095E+03  0.27310732483E+03  0.78616178909E+02 0.  0.
          6    2    1    2  501    0 -0.93365277603E+02 -0.64906535910E+02  0.55130372179E+02  0.21532921229E+03  0.17434843924E+03 0.  0.
         24    2    5    5    0    0 -0.15554704984E+02 -0.89777123231E+02  0.10229139215E+02  0.12199517752E+03  0.80475507746E+02 0.  0.
          5    1    5    5  501    0 -0.77810572619E+02  0.24870587321E+02  0.44901232964E+02  0.93334034771E+02  0.47000000000E+01 0. -1.
        -13    1    6    6    0    0 -0.19344813602E+02  0.93386988643E+00  0.23267867906E+02  0.30273546259E+02  0.00000000000E+00 0.  1.
         14    1    6    6    0    0  0.37901086176E+01 -0.90710993118E+02 -0.13038728691E+02  0.91721631264E+02  0.00000000000E+00 0. -1.
         -5    1    3    3    0  503  0.86202382240E+02  0.87529620365E+02 -0.24996437055E+03  0.27856159407E+03  0.47000000000E+01 0.  1.
         11    1    4    4    0    0  0.71536516012E+01  0.18743470760E+02 -0.17439113609E+02  0.26582232992E+02  0.00000000000E+00 0. -1.
        -12    1    4    4    0    0  0.92437620855E-02 -0.41366555215E+02 -0.24302968734E+03  0.24652509184E+03  0.00000000000E+00 0.  1.
</event>
<event>
12    1  0.8356052E-002  0.2302798E+03  0.7818608E-02  0.1129610E+00
         21   -1    0    0  501  502  0.00000000000E+00  0.00000000000E+00  0.32041965100E+03  0.32041965100E+03  0.00000000000E+00 0.  1.
         21   -1    0    0  502  503 -0.00000000000E+00 -0.00000000000E+00 -0.15801712254E+03  0.15801712254E+03  0.00000000000E+00 0.  1.
         -6    2    1    2    0  503  0.15272924097E+02  0.13327814564E+03  0.42988868993E+02  0.23425805440E+03  0.18716962061E+03 0.  0.
        -24    2    3    3    0    0  0.27682181593E+02  0.10118455434E+02  0.65622232908E+02  0.10833483126E+03  0.81002912878E+02 0.  0.
          6    2    1    2  501    0 -0.15272924097E+02 -0.13327814564E+03  0.11941365947E+03  0.24417871914E+03  0.16543064558E+03 0.  0.
         24    2    5    5    0    0 -0.32923575747E+01 -0.14981099790E+03  0.58841089532E+02  0.18008507353E+03  0.80710502300E+02 0.  0.
          5    1    5    5  501    0 -0.11980566523E+02  0.16532852262E+02  0.60572569940E+02  0.64093645607E+02  0.47000000000E+01 0. -1.
        -13    1    6    6    0    0 -0.21681146332E+02 -0.79061066995E+02  0.67870398324E+02  0.10642892177E+03  0.00000000000E+00 0.  1.
         14    1    6    6    0    0  0.18388788758E+02 -0.70749930905E+02 -0.90293087914E+01  0.73656151761E+02  0.00000000000E+00 0. -1.
         -5    1    3    3    0  503 -0.12409257495E+02  0.12315969020E+03 -0.22633363915E+02  0.12592322314E+03  0.47000000000E+01 0.  1.
         11    1    4    4    0    0 -0.57743999084E+01 -0.31929080723E+02  0.23656059505E+02  0.40154937945E+02  0.00000000000E+00 0. -1.
        -12    1    4    4    0    0  0.33456581501E+02  0.42047536157E+02  0.41966173404E+02  0.68179893317E+02  0.00000000000E+00 0.  1.
</event>
<event>
12    1  0.8356052E-002  0.3856150E+03  0.7818608E-02  0.1048938E+00
         21   -1    0    0  501  502  0.00000000000E+00  0.00000000000E+00  0.23123496417E+03  0.23123496417E+03  0.00000000000E+00 0. -1.
         21   -1    0    0  502  503 -0.00000000000E+00 -0.00000000000E+00 -0.74777736491E+03  0.74777736491E+03  0.00000000000E+00 0.  1.
         -6    2    1    2    0  503  0.88858781004E+02 -0.33290684989E+03 -0.44221812751E+03  0.58629995031E+03  0.17166218502E+03 0.  0.
        -24    2    3    3    0    0  0.10972122574E+03 -0.26467756155E+03 -0.27803679329E+03  0.40722432970E+03  0.80213697803E+02 0.  0.
          6    2    1    2  501    0 -0.88858781004E+02  0.33290684989E+03 -0.74324273232E+02  0.39271237877E+03  0.17313596157E+03 0.  0.
         24    2    5    5    0    0  0.24634459217E+00  0.11060235254E+03 -0.70349395768E+02  0.15313587200E+03  0.79174596523E+02 0.  0.
          5    1    5    5  501    0 -0.89105125596E+02  0.22230449734E+03 -0.39748774638E+01  0.23957650677E+03  0.47000000000E+01 0. -1.
        -13    1    6    6    0    0 -0.23326174310E+02  0.92257201313E+01  0.37622312521E+01  0.25364910878E+02  0.00000000000E+00 0.  1.
         14    1    6    6    0    0  0.23572518902E+02  0.10137663241E+03 -0.74111627020E+02  0.12777096112E+03  0.00000000000E+00 0. -1.
         -5    1    3    3    0  503 -0.20862444734E+02 -0.68229288339E+02 -0.16418133423E+03  0.17907562061E+03  0.47000000000E+01 0.  1.
         13    1    4    4    0    0  0.77663846844E+02 -0.24924847234E+03 -0.25432773442E+03  0.36447094612E+03  0.00000000000E+00 0. -1.
        -14    1    4    4    0    0  0.32057378893E+02 -0.15429089208E+02 -0.23709058865E+02  0.42753383580E+02  0.00000000000E+00 0.  1.
</event>
<event>
12    1  0.8356052E-002  0.2013268E+03  0.7818608E-02  0.1148749E+00
         21   -1    0    0  503  502  0.00000000000E+00  0.00000000000E+00  0.48188012477E+02  0.48188012477E+02  0.00000000000E+00 0.  1.
         21   -1    0    0  501  503 -0.00000000000E+00 -0.00000000000E+00 -0.95816641862E+03  0.95816641862E+03  0.00000000000E+00 0.  1.
          6    2    1    2  501    0 -0.10266235980E+03  0.22369578456E+01 -0.63210942803E+03  0.66321647890E+03  0.17247957785E+03 0.  0.
         24    2    3    3    0    0 -0.67626787337E+02  0.20126899380E+02 -0.60658738502E+03  0.61608892830E+03  0.81479061536E+02 0.  0.
         -6    2    1    2    0  502  0.10266235980E+03 -0.22369578456E+01 -0.27786897811E+03  0.34313795220E+03  0.17317020859E+03 0.  0.
        -24    2    5    5    0    0  0.10394410162E+03  0.50162050576E+02 -0.15294864056E+03  0.20758545432E+03  0.79861296126E+02 0.  0.
          5    1    3    3  501    0 -0.35035572461E+02 -0.17889941534E+02 -0.25522043015E+02  0.47127550599E+02  0.47000000000E+01 0. -1.
        -13    1    4    4    0    0 -0.61587727766E+01 -0.28111740342E+02 -0.13082359442E+03  0.13395153334E+03  0.00000000000E+00 0.  1.
         14    1    4    4    0    0 -0.61468014560E+02  0.48238639722E+02 -0.47576379060E+03  0.48213739496E+03  0.00000000000E+00 0. -1.
         -5    1    5    5    0  502 -0.12817418200E+01 -0.52399008422E+02 -0.12492033756E+03  0.13555249788E+03  0.47000000000E+01 0.  1.
         11    1    6    6    0    0 -0.22963201437E+01  0.32300301428E+02 -0.40582937205E+02  0.51918757215E+02  0.00000000000E+00 0. -1.
        -12    1    6    6    0    0  0.10624042176E+03  0.17861749148E+02 -0.11236570335E+03  0.15566669711E+03  0.00000000000E+00 0.  1.
</event>
<event>
12    1  0.8356052E-002  0.1938998E+03  0.7818608E-02  0.1155026E+00
         21   -1    0    0  503  502  0.00000000000E+00  0.00000000000E+00  0.23253795186E+03  0.23253795186E+03  0.00000000000E+00 0. -1.
         21   -1    0    0  501  503 -0.00000000000E+00 -0.00000000000E+00 -0.19191283899E+03  0.19191283899E+03  0.00000000000E+00 0.  1.
          6    2    1    2  501    0 -0.27094657782E+02  0.85180140084E+02 -0.64101798088E+02  0.20422084805E+03  0.17206782824E+03 0.  0.
         24    2    3    3    0    0  0.39161799113E+02  0.83476259361E+02 -0.74447099057E+02  0.13697550218E+03  0.68687591690E+02 0.  0.
         -6    2    1    2    0  502  0.27094657782E+02 -0.85180140084E+02  0.10472691096E+03  0.22022994279E+03  0.17188288187E+03 0.  0.
        -24    2    5    5    0    0  0.41766373869E+02 -0.77576252404E+02  0.13839398120E+03  0.18243258866E+03  0.79788786480E+02 0.  0.
          5    1    3    3  501    0 -0.66256456894E+02  0.17038807231E+01  0.10345300969E+02  0.67245345875E+02  0.47000000000E+01 0. -1.
        -13    1    4    4    0    0  0.51381463543E+02  0.34338980487E+02 -0.55018460291E+02  0.82742077261E+02  0.00000000000E+00 0.  1.
         14    1    4    4    0    0 -0.12219664430E+02  0.49137278874E+02 -0.19428638767E+02  0.54233424917E+02  0.00000000000E+00 0. -1.
         -5    1    5    5    0  502 -0.14671716088E+02 -0.76038876795E+01 -0.33667070246E+02  0.37797354137E+02  0.47000000000E+01 0.  1.
         11    1    6    6    0    0  0.10545079271E+01 -0.66981446316E+02  0.47033813444E+02  0.81852341106E+02  0.00000000000E+00 0. -1.
        -12    1    6    6    0    0  0.40711865942E+02 -0.10594806088E+02  0.91360167759E+02  0.10058024755E+03  0.00000000000E+00 0.  1.
</event>
<event>
12    1  0.8356052E-002  0.1823373E+03  0.7818608E-02  0.1166450E+00
         21   -1    0    0  501  502  0.00000000000E+00  0.00000000000E+00  0.18941983241E+03  0.18941983241E+03  0.00000000000E+00 0. -1.
         21   -1    0    0  502  503 -0.00000000000E+00 -0.00000000000E+00 -0.98634169211E+03  0.98634169211E+03  0.00000000000E+00 0. -1.
         -6    2    1    2    0  503 -0.27798766965E+02 -0.47716227291E+02 -0.93192107361E+03  0.94888780624E+03  0.16988693771E+03 0.  0.
        -24    2    3    3    0    0 -0.11485902836E+02 -0.88620312373E+02 -0.82775636454E+03  0.83569933365E+03  0.72300010327E+02 0.  0.
          6    2    1    2  501    0  0.27798766965E+02  0.47716227291E+02  0.13499921390E+03  0.22687371829E+03  0.17377366459E+03 0.  0.
         24    2    5    5    0    0 -0.23144431114E+02 -0.39060971947E+01  0.15359554587E+02  0.86888676598E+02  0.82236268866E+02 0.  0.
          5    1    5    5  501    0  0.50943198080E+02  0.51622324486E+02  0.11963965931E+03  0.13998504169E+03  0.47000000000E+01 0. -1.
        -11    1    6    6    0    0 -0.21152385623E+02  0.16934452769E+02 -0.27861173096E+02  0.38864431997E+02  0.00000000000E+00 0.  1.
         12    1    6    6    0    0 -0.19920454911E+01 -0.20840549963E+02  0.43220727684E+02  0.48024244601E+02  0.00000000000E+00 0. -1.
         -5    1    3    3    0  503 -0.16312864129E+02  0.40904085082E+02 -0.10416470906E+03  0.11318847259E+03  0.47000000000E+01 0.  1.
         11    1    4    4    0    0 -0.36161296901E+02 -0.18687502780E+02 -0.27824609766E+03  0.28120766885E+03  0.00000000000E+00 0. -1.
        -12    1    4    4    0    0  0.24675394065E+02 -0.69932809593E+02 -0.54951026688E+03  0.55449166480E+03  0.00000000000E+00 0.  1.
</event>
<event>
12    1  0.8356052E-002  0.1763583E+03  0.7818608E-02  0.1171633E+00
         21   -1    0    0  501  502  0.00000000000E+00  0.00000000000E+00  0.65917684087E+02  0.65917684087E+02  0.00000000000E+00 0.  1.
         21   -1    0    0  502  503 -0.00000000000E+00 -0.00000000000E+00 -0.64307019303E+03  0.64307019303E+03  0.00000000000E+00 0.  1.
         -6    2    1    2    0  503 -0.39459159437E+02  0.78786680952E+01 -0.47235327531E+03  0.50384126814E+03  0.17064380477E+03 0.  0.
        -24    2    3    3    0    0 -0.53055653101E+02 -0.16459737197E+02 -0.12988840215E+03  0.16021137718E+03  0.75570252675E+02 0.  0.
          6    2    1    2  501    0  0.39459159437E+02 -0.78786680952E+01 -0.10479923363E+03  0.20514660898E+03  0.17170659024E+03 0.  0.
         24    2    5    5    0    0 -0.12805315528E+01 -0.66117671242E+02 -0.49568910153E+02  0.11501347112E+03  0.79986470562E+02 0.  0.
          5    1    5    5  501    0  0.40739690990E+02  0.58239003146E+02 -0.55230323476E+02  0.90133137861E+02  0.47000000000E+01 0. -1.
        -13    1    6    6    0    0  0.30247359521E+02 -0.25454029847E+02  0.51916975240E+01  0.39871846166E+02  0.00000000000E+00 0.  1.
         14    1    6    6    0    0 -0.31527891074E+02 -0.40663641395E+02 -0.54760607677E+02  0.75141624950E+02  0.00000000000E+00 0. -1.
         -5    1    3    3    0  503  0.13596493664E+02  0.24338405292E+02 -0.34246487316E+03  0.34362989096E+03  0.47000000000E+01 0.  1.
         11    1    4    4    0    0 -0.46832891773E+01 -0.33885874608E+02 -0.21927580797E+02  0.40632554622E+02  0.00000000000E+00 0. -1.
        -12    1    4    4    0    0 -0.48372363924E+02  0.17426137411E+02 -0.10796082135E+03  0.11957882255E+03  0.00000000000E+00 0.  1.
</event>
<event>
12    1  0.8356052E-002  0.2038013E+03  0.7818608E-02  0.1147025E+00
         21   -1    0    0  501  502  0.00000000000E+00  0.00000000000E+00  0.17322340784E+04  0.17322340784E+04  0.00000000000E+00 0. -1.
         21   -1    0    0  502  503 -0.00000000000E+00 -0.00000000000E+00 -0.56135781817E+02  0.56135781817E+02  0.00000000000E+00 0.  1.
         -6    2    1    2    0  503 -0.19273727743E+02  0.10557543561E+03  0.16047855111E+03  0.25939998677E+03  0.17325512570E+03 0.  0.
        -24    2    3    3    0    0 -0.23378693028E+01  0.49756891515E+01  0.14207605873E+02  0.81006007862E+02  0.79560631783E+02 0.  0.
          6    2    1    2  501    0  0.19273727743E+02 -0.10557543561E+03  0.15156197455E+04  0.15289698734E+04  0.17066930556E+03 0.  0.
         24    2    5    5    0    0  0.32497575086E+01 -0.54729273912E+01  0.10185848514E+04  0.10216799606E+04  0.79210658910E+02 0.  0.
          5    1    5    5  501    0  0.16023970234E+02 -0.10010250822E+03  0.49703489404E+03  0.50728991284E+03  0.47000000000E+01 0. -1.
        -13    1    6    6    0    0 -0.29044639574E+02  0.81937746856E+01  0.19250227884E+03  0.19485342284E+03  0.00000000000E+00 0.  1.
         14    1    6    6    0    0  0.32294397082E+02 -0.13666702077E+02  0.82608257258E+03  0.82682653776E+03  0.00000000000E+00 0. -1.
         -5    1    3    3    0  503 -0.16935858440E+02  0.10059974646E+03  0.14627094524E+03  0.17839397891E+03  0.47000000000E+01 0.  1.
         11    1    4    4    0    0  0.22344881588E+02  0.21541117076E+02 -0.19036190416E+02  0.36410026142E+02  0.00000000000E+00 0. -1.
        -12    1    4    4    0    0 -0.24682750891E+02 -0.16565427925E+02  0.33243796289E+02  0.44595981720E+02  0.00000000000E+00 0.  1.
</event>
<event>
12    1  0.8356052E-002  0.2119239E+03  0.7818608E-02  0.1140338E+00
         21   -1    0    0  503  502  0.00000000000E+00  0.00000000000E+00  0.57452250446E+03  0.57452250446E+03  0.00000000000E+00 0. -1.
         21   -1    0    0  501  503 -0.00000000000E+00 -0.00000000000E+00 -0.87539579374E+02  0.87539579374E+02  0.00000000000E+00 0. -1.
          6    2    1    2  501    0 -0.99236758729E+02 -0.71951175768E+02  0.13139345788E+03  0.24811087938E+03  0.17108437017E+03 0.  0.
         24    2    3    3    0    0 -0.65318644415E+02  0.14225338423E+02  0.24660178925E+02  0.10672165450E+03  0.79451252679E+02 0.  0.
         -6    2    1    2    0  502  0.99236758729E+02  0.71951175768E+02  0.35558946720E+03  0.41395120445E+03  0.17287806253E+03 0.  0.
        -24    2    5    5    0    0  0.11391155690E+03  0.54795623426E+02  0.36064029699E+03  0.39034477399E+03  0.79556367584E+02 0.  0.
          5    1    3    3  501    0 -0.33918114314E+02 -0.86176514190E+02  0.10673327896E+03  0.14138922489E+03  0.47000000000E+01 0. -1.
        -11    1    4    4    0    0  0.17037472255E+02  0.11407379621E+02  0.10751998160E+02  0.23151873253E+02  0.00000000000E+00 0.  1.
         12    1    4    4    0    0 -0.82356116670E+02  0.28179588020E+01  0.13908180764E+02  0.83569781243E+02  0.00000000000E+00 0. -1.
         -5    1    5    5    0  502 -0.14674798175E+02  0.17155552341E+02 -0.50508297899E+01  0.23606430463E+02  0.47000000000E+01 0.  1.
         13    1    6    6    0    0  0.80321905237E+01  0.41285263027E+02  0.11774802626E+03  0.12503434215E+03  0.00000000000E+00 0. -1.
        -14    1    6    6    0    0  0.10587936638E+03  0.13510360399E+02  0.24289227073E+03  0.26531043184E+03  0.00000000000E+00 0.  1.
</event>
<event>
12    1  0.8356052E-002  0.2205746E+03  0.7818608E-02  0.1134198E+00
         21   -1    0    0  501  502  0.00000000000E+00  0.00000000000E+00  0.67975035504E+03  0.67975035504E+03  0.00000000000E+00 0.  1.
         21   -1    0    0  502  503 -0.00000000000E+00 -0.00000000000E+00 -0.10286326298E+03  0.10286326298E+03  0.00000000000E+00 0.  1.
         -6    2    1    2    0  503  0.20547069358E+02  0.13485159629E+03  0.70055900877E+02  0.23143250080E+03  0.17333793035E+03 0.  0.
        -24    2    3    3    0    0 -0.20032852268E+01  0.11422160058E+02  0.70321659966E+02  0.10587173922E+03  0.78289273929E+02 0.  0.
          6    2    1    2  501    0 -0.20547069358E+02 -0.13485159629E+03  0.50683119118E+03  0.55118111721E+03  0.16827249488E+03 0.  0.
         24    2    5    5    0    0  0.13081322861E+02 -0.44835739677E+01  0.20581542372E+03  0.22139440998E+03  0.80400700771E+02 0.  0.
          5    1    5    5  501    0 -0.33628392219E+02 -0.13036802233E+03  0.30101576747E+03  0.32978670724E+03  0.47000000000E+01 0. -1.
        -11    1    6    6    0    0  0.23280736667E+02 -0.18955866846E+02  0.20074490218E+03  0.20297742076E+03  0.00000000000E+00 0.  1.
         12    1    6    6    0    0 -0.10199413806E+02  0.14472292879E+02  0.50705215438E+01  0.18416989219E+02  0.00000000000E+00 0. -1.
         -5    1    3    3    0  503  0.22550354585E+02  0.12342943624E+03 -0.26575908918E+00  0.12556076158E+03  0.47000000000E+01 0.  1.
         11    1    4    4    0    0 -0.13251466853E+02 -0.26378465449E+02  0.55488588667E+01  0.30036888120E+02  0.00000000000E+00 0. -1.
        -12    1    4    4    0    0  0.11248181627E+02  0.37800625507E+02  0.64772801100E+02  0.75834851097E+02  0.00000000000E+00 0.  1.
</event>
<event>
12    1  0.8356052E-002  0.2501394E+03  0.7818608E-02  0.1113683E+00
         21   -1    0    0  503  502  0.00000000000E+00  0.00000000000E+00  0.16580821022E+04  0.16580821022E+04  0.00000000000E+00 0. -1.
         21   -1    0    0  501  503 -0.00000000000E+00 -0.00000000000E+00 -0.48566506326E+02  0.48566506326E+02  0.00000000000E+00 0.  1.
          6    2    1    2  501    0 -0.31767154742E+02 -0.17737920701E+03  0.39003185505E+03  0.46177499228E+03  0.16922990382E+03 0.  0.
         24    2    3    3    0    0 -0.59647229532E+01 -0.10342966026E+03  0.11369180947E+03  0.17451167799E+03  0.82433158810E+02 0.  0.
         -6    2    1    2    0  502  0.31767154742E+02  0.17737920701E+03  0.12194837409E+04  0.12448736163E+04  0.17348542039E+03 0.  0.
        -24    2    5    5    0    0 -0.81694007038E+01  0.18148503409E+03  0.11222343305E+04  0.11395582609E+04  0.78610308327E+02 0.  0.
          5    1    3    3  501    0 -0.25802431789E+02 -0.73949546744E+02  0.27634004558E+03  0.28726331430E+03  0.47000000000E+01 0. -1.
        -13    1    4    4    0    0  0.36335162665E+02 -0.28839073490E+02  0.45161037893E+02  0.64741451553E+02  0.00000000000E+00 0.  1.
         14    1    4    4    0    0 -0.42299885618E+02 -0.74590586772E+02  0.68530771580E+02  0.10977022644E+03  0.00000000000E+00 0. -1.
         -5    1    5    5    0  502  0.39936555446E+02 -0.41058270803E+01  0.97249410323E+02  0.10531535541E+03  0.47000000000E+01 0.  1.
         11    1    6    6    0    0  0.17200568027E+02  0.16822027995E+03  0.97784098959E+03  0.99235423264E+03  0.00000000000E+00 0. -1.
        -12    1    6    6    0    0 -0.25369968730E+02  0.13264754139E+02  0.14439334095E+03  0.14720402823E+03  0.00000000000E+00 0.  1.
</event>
<event>
12    1  0.8356052E-002  0.1739638E+03  0.7818608E-02  0.1173841E+00
         21   -1    0    0  501  502  0.00000000000E+00  0.00000000000E+00  0.53402672451E+03  0.53402672451E+03  0.00000000000E+00 0.  1.
         21   -1    0    0  502  503 -0.00000000000E+00 -0.00000000000E+00 -0.10132229672E+03  0.10132229672E+03  0.00000000000E+00 0.  1.
         -6    2    1    2    0  503  0.10459888133E+02 -0.19541577551E+02  0.53564416214E+01  0.17404625172E+03  0.17254600476E+03 0.  0.
        -24    2    3    3    0    0 -0.28381005037E+01  0.29844621348E+02 -0.49666216030E+02  0.98777293982E+02  0.79946635662E+02 0.  0.
          6    2    1    2  501    0 -0.10459888133E+02  0.19541577551E+02  0.42734798617E+03  0.46130276952E+03  0.17228656759E+03 0.  0.
         24    2    5    5    0    0  0.46335097584E+02  0.32091982049E+02  0.35629539559E+03  0.36935852727E+03  0.79388136176E+02 0.  0.
          5    1    5    5  501    0 -0.56794985717E+02 -0.12550404498E+02  0.71052590575E+02  0.91944242251E+02  0.47000000000E+01 0. -1.
        -11    1    6    6    0    0  0.11515365117E+01  0.32231158966E+02  0.48373616784E+02  0.58139319271E+02  0.00000000000E+00 0.  1.
         12    1    6    6    0    0  0.45183561073E+02 -0.13917691698E+00  0.30792177881E+03  0.31121920800E+03  0.00000000000E+00 0. -1.
         -5    1    3    3    0  503  0.13297988637E+02 -0.49386198899E+02  0.55022657652E+02  0.75268957735E+02  0.47000000000E+01 0.  1.
         13    1    4    4    0    0  0.24438522583E+02  0.94316702460E+01  0.11620870394E+02  0.28657327481E+02  0.00000000000E+00 0. -1.
        -14    1    4    4    0    0 -0.27276623087E+02  0.20412951102E+02 -0.61287086424E+02  0.70119966500E+02  0.00000000000E+00 0.  1.
</event>
<event>
12    1  0.8356052E-002  0.2027164E+03  0.7818608E-02  0.1147712E+00
         21   -1    0    0  503  502  0.00000000000E+00  0.00000000000E+00  0.37663377997E+02  0.37663377997E+02  0.00000000000E+00 0. -1.
         21   -1    0    0  501  503 -0.00000000000E+00 -0.00000000000E+00 -0.13579918474E+04  0.13579918474E+04  0.00000000000E+00 0. -1.
          6    2    1    2  501    0  0.93643442949E+02 -0.49746129839E+02 -0.34561443416E+03  0.40008434642E+03  0.17138954258E+03 0.  0.
         24    2    3    3    0    0 -0.12996849826E+02  0.50466533524E+00 -0.11076813418E+03  0.13726850010E+03  0.80024301175E+02 0.  0.
         -6    2    1    2    0  502 -0.93643442949E+02  0.49746129839E+02 -0.97471403526E+03  0.99557087900E+03  0.17277196744E+03 0.  0.
        -24    2    5    5    0    0 -0.13947708763E+02 -0.51799471670E+01 -0.21142052490E+03  0.22615073568E+03  0.78893259965E+02 0.  0.
          5    1    3    3  501    0  0.10664029277E+03 -0.50250795174E+02 -0.23484629998E+03  0.26281584632E+03  0.47000000000E+01 0. -1.
        -11    1    4    4    0    0 -0.59073009192E+01  0.40222654028E+02 -0.52652249194E+02  0.66520804613E+02  0.00000000000E+00 0.  1.
         12    1    4    4    0    0 -0.70895489069E+01 -0.39717988693E+02 -0.58115884984E+02  0.70747695489E+02  0.00000000000E+00 0. -1.
         -5    1    5    5    0  502 -0.79695734185E+02  0.54926077006E+02 -0.76329351036E+03  0.76942014331E+03  0.47000000000E+01 0.  1.
         11    1    6    6    0    0 -0.30919900736E+01  0.36386891854E+02 -0.11323223739E+03  0.11897523224E+03  0.00000000000E+00 0. -1.
        -12    1    6    6    0    0 -0.10855718690E+02 -0.41566839022E+02 -0.98188287511E+02  0.10717550345E+03  0.00000000000E+00 0.  1.
</event>
<event>
12    1  0.8356052E-002  0.2476872E+03  0.7818608E-02  0.1115007E+00
         21   -1    0    0  503  502  0.00000000000E+00  0.00000000000E+00  0.30497663442E+04  0.30497663442E+04  0.00000000000E+00 0. -1.
         21   -1    0    0  501  503 -0.00000000000E+00 -0.00000000000E+00 -0.24321985060E+02  0.24321985060E+02  0.00000000000E+00 0.  1.
          6    2    1    2  501    0  0.24277392090E+02 -0.17623011014E+03  0.21570941663E+04  0.21711038248E+04  0.17026488931E+03 0.  0.
         24    2    3    3    0    0  0.21184884740E+02 -0.75983681535E+02  0.16674465915E+04  0.16712681042E+04  0.80849376633E+02 0.  0.
         -6    2    1    2    0  502 -0.24277392090E+02  0.17623011014E+03  0.86835019283E+03  0.90298450440E+03  0.17234417397E+03 0.  0.
        -24    2    5    5    0    0 -0.12738081436E+01  0.11463155043E+03  0.78253075766E+03  0.79476891917E+03  0.78493523648E+02 0.  0.
          5    1    3    3  501    0  0.30925073493E+01 -0.10024642860E+03  0.48964757481E+03  0.49983572058E+03  0.47000000000E+01 0. -1.
        -11    1    4    4    0    0  0.85823856122E+01 -0.15783458734E+02  0.59681790488E+02  0.62327289595E+02  0.00000000000E+00 0.  1.
         12    1    4    4    0    0  0.12602499128E+02 -0.60200222801E+02  0.16077648010E+04  0.16089408147E+04  0.00000000000E+00 0. -1.
         -5    1    5    5    0  502 -0.23003583946E+02  0.61598559709E+02  0.85819435174E+02  0.10821558523E+03  0.47000000000E+01 0.  1.
         11    1    6    6    0    0  0.30369445462E+01  0.74825806546E+02  0.68860880863E+03  0.69266890769E+03  0.00000000000E+00 0. -1.
        -12    1    6    6    0    0 -0.43107526898E+01  0.39805743882E+02  0.93921949030E+02  0.10210001148E+03  0.00000000000E+00 0.  1.
</event>
<event>
12    1  0.8356052E-002  0.2419877E+03  0.7818608E-02  0.1118521E+00
         21   -1    0    0  501  502  0.00000000000E+00  0.00000000000E+00  0.22494339196E+03  0.22494339196E+03  0.00000000000E+00 0. -1.
         21   -1    0    0  502  503 -0.00000000000E+00 -0.00000000000E+00 -0.35336995760E+03  0.35336995760E+03  0.00000000000E+00 0.  1.
         -6    2    1    2    0  503  0.39911854731E+02  0.16504481371E+03  0.84428242282E+02  0.25603209413E+03  0.17202197084E+03 0.  0.
        -24    2    3    3    0    0  0.20833511018E+02  0.64886162469E+02 -0.23666146594E+02  0.10736392160E+03  0.79515255809E+02 0.  0.
          6    2    1    2  501    0 -0.39911854731E+02 -0.16504481371E+03 -0.21285480793E+03  0.32228125543E+03  0.17241024233E+03 0.  0.
         24    2    5    5    0    0 -0.25616358316E+02 -0.19294548174E+03 -0.18474224331E+03  0.27991128040E+03  0.79601957841E+02 0.  0.
          5    1    5    5  501    0 -0.14295496415E+02  0.27900668036E+02 -0.28112564615E+02  0.42369975027E+02  0.47000000000E+01 0. -1.
        -11    1    6    6    0    0 -0.36541677081E+02 -0.84005040947E+02 -0.12563842017E+03  0.15549004370E+03  0.00000000000E+00 0.  1.
         12    1    6    6    0    0  0.10925318765E+02 -0.10894044080E+03 -0.59103823148E+02  0.12442123670E+03  0.00000000000E+00 0. -1.
         -5    1    3    3    0  503  0.19078343713E+02  0.10015865124E+03  0.10809438888E+03  0.14866817253E+03  0.47000000000E+01 0.  1.
         11    1    4    4    0    0 -0.19833211195E+02  0.46642620000E+02  0.98052482772E+01  0.51623959172E+02  0.00000000000E+00 0. -1.
        -12    1    4    4    0    0  0.40666722213E+02  0.18243542469E+02 -0.33471394871E+02  0.55739962432E+02  0.00000000000E+00 0.  1.
</event>
<event>
12    1  0.8356052E-002  0.2354379E+03  0.7818608E-02  0.1123138E+00
         21   -1    0    0  503  502  0.00000000000E+00  0.00000000000E+00  0.90858827963E+03  0.90858827963E+03  0.00000000000E+00 0. -1.
         21   -1    0    0  501  503 -0.00000000000E+00 -0.00000000000E+00 -0.60742674770E+02  0.60742674770E+02  0.00000000000E+00 0.  1.
          6    2    1    2  501    0 -0.13520692629E+03  0.87859626349E+02  0.40203588955E+03  0.46590111338E+03  0.17155396849E+03 0.  0.
         24    2    3    3    0    0  0.10106459456E+01  0.17798305684E+02  0.10653669713E+03  0.13302624446E+03  0.77640922130E+02 0.  0.
         -6    2    1    2    0  502  0.13520692629E+03 -0.87859626349E+02  0.44580971531E+03  0.50342984102E+03  0.16939620924E+03 0.  0.
        -24    2    5    5    0    0  0.71309596169E+02 -0.10349738379E+03  0.20009901894E+03  0.24902220638E+03  0.78585462599E+02 0.  0.
          5    1    3    3  501    0 -0.13621757223E+03  0.70061320665E+02  0.29549919242E+03  0.33287486892E+03  0.47000000000E+01 0. -1.
        -11    1    4    4    0    0 -0.37904399106E+02  0.12145165608E+02  0.61282876593E+02  0.73074205317E+02  0.00000000000E+00 0.  1.
         12    1    4    4    0    0  0.38915045052E+02  0.56531400756E+01  0.45253820537E+02  0.59952039142E+02  0.00000000000E+00 0. -1.
         -5    1    5    5    0  502  0.63897330117E+02  0.15637757437E+02  0.24571069637E+03  0.25440763464E+03  0.47000000000E+01 0.  1.
         11    1    6    6    0    0  0.52094869832E+01 -0.47516466774E+02  0.12693652566E+03  0.13563861882E+03  0.00000000000E+00 0. -1.
        -12    1    6    6    0    0  0.66100109186E+02 -0.55980917012E+02  0.73162493280E+02  0.11338358756E+03  0.00000000000E+00 0.  1.
</event>
<event>
12    1  0.8356052E-002  0.2048859E+03  0.7818608E-02  0.1145689E+00
         21   -1    0    0  503  502  0.00000000000E+00  0.00000000000E+00  0.47413428264E+03  0.47413428264E+03  0.00000000000E+00 0. -1.
         21   -1    0    0  501  503 -0.00000000000E+00 -0.00000000000E+00 -0.97488057602E+02  0.97488057602E+02  0.00000000000E+00 0. -1.
          6    2    1    2  501    0 -0.38385598621E+02 -0.10488708420E+03  0.10162115442E+03  0.22866898533E+03  0.17172038671E+03 0.  0.
         24    2    3    3    0    0 -0.75454267832E+02 -0.12187173591E+03  0.87300874633E+02  0.18519801750E+03  0.78299402468E+02 0.  0.
         -6    2    1    2    0  502  0.38385598621E+02  0.10488708420E+03  0.27502507061E+03  0.34295335491E+03  0.17176571126E+03 0.  0.
        -24    2    5    5    0    0  0.84570677181E+02  0.40182833206E+02  0.18625312718E+03  0.22369628166E+03  0.81135316119E+02 0.  0.
          5    1    3    3  501    0  0.37068669211E+02  0.16984651712E+02  0.14320279790E+02  0.43470967830E+02  0.47000000000E+01 0. -1.
        -11    1    4    4    0    0 -0.52189948699E+02 -0.11369930072E+03  0.97402092024E+02  0.15855121967E+03  0.00000000000E+00 0.  1.
         12    1    4    4    0    0 -0.23264319133E+02 -0.81724351914E+01 -0.10101217391E+02  0.26646797828E+02  0.00000000000E+00 0. -1.
         -5    1    5    5    0  502 -0.46185078560E+02  0.64704250994E+02  0.88771943432E+02  0.11925707325E+03  0.47000000000E+01 0.  1.
         11    1    6    6    0    0  0.77226154172E+02  0.61682473772E+02  0.16632610327E+03  0.19347604267E+03  0.00000000000E+00 0. -1.
        -12    1    6    6    0    0  0.73445230088E+01 -0.21499640566E+02  0.19927023907E+02  0.30220238988E+02  0.00000000000E+00 0.  1.
</event>
<event>
12    1  0.8356052E-002  0.2175860E+03  0.7818608E-02  0.1135725E+00
         21   -1    0    0  501  502  0.00000000000E+00  0.00000000000E+00  0.53694643594E+03  0.53694643594E+03  0.00000000000E+00 0. -1.
         21   -1    0    0  502  503 -0.00000000000E+00 -0.00000000000E+00 -0.12264908216E+03  0.12264908216E+03  0.00000000000E+00 0. -1.
         -6    2    1    2    0  503  0.13090095855E+03 -0.26370790469E+02  0.32077487015E+02  0.21978228837E+03  0.17159489960E+03 0.  0.
        -24    2    3    3    0    0  0.11645311793E+03  0.25244595168E+02 -0.24335032801E+02  0.14182492486E+03  0.72962300058E+02 0.  0.
          6    2    1    2  501    0 -0.13090095855E+03  0.26370790469E+02  0.38221986677E+03  0.43981322973E+03  0.17179397823E+03 0.  0.
         24    2    5    5    0    0 -0.90968149516E+02  0.77701676313E+02  0.19356153205E+03  0.24020474711E+03  0.76938281199E+02 0.  0.
          5    1    5    5  501    0 -0.39932809030E+02 -0.51330885844E+02  0.18865833472E+03  0.19960848263E+03  0.47000000000E+01 0. -1.
        -13    1    6    6    0    0 -0.15039825162E+02 -0.66070620176E+01  0.69694773870E+00  0.16441877799E+02  0.00000000000E+00 0.  1.
         14    1    6    6    0    0 -0.75928324354E+02  0.84308738331E+02  0.19286458431E+03  0.22376286931E+03  0.00000000000E+00 0. -1.
         -5    1    3    3    0  503  0.14447840618E+02 -0.51615385637E+02  0.56412519817E+02  0.77957363508E+02  0.47000000000E+01 0.  1.
         11    1    4    4    0    0  0.31680958919E+02  0.35332431121E+02 -0.30205053200E+02  0.56253080677E+02  0.00000000000E+00 0. -1.
        -12    1    4    4    0    0  0.84772159009E+02 -0.10087835952E+02  0.58700203985E+01  0.85571844182E+02  0.00000000000E+00 0.  1.
</event>
<event>
12    1  0.8356052E-002  0.1966755E+03  0.7818608E-02  0.1152814E+00
         21   -1    0    0  503  502  0.00000000000E+00  0.00000000000E+00  0.11105256170E+04  0.11105256170E+04  0.00000000000E+00 0.  1.
         21   -1    0    0  501  503 -0.00000000000E+00 -0.00000000000E+00 -0.37110181719E+02  0.37110181719E+02  0.00000000000E+00 0.  1.
          6    2    1    2  501    0  0.90178732086E+02  0.35566698633E+02  0.38994690875E+03  0.43673772071E+03  0.17112583463E+03 0.  0.
         24    2    3    3    0    0  0.52724665969E+02  0.69198275979E+02  0.14752618470E+03  0.18910131888E+03  0.80168833284E+02 0.  0.
         -6    2    1    2    0  502 -0.90178732086E+02 -0.35566698633E+02  0.68346852651E+03  0.71089807798E+03  0.16985186717E+03 0.  0.
        -24    2    5    5    0    0 -0.10258440149E+03  0.21936039147E+02  0.34700555978E+03  0.36929906823E+03  0.70457036798E+02 0.  0.
          5    1    3    3  501    0  0.37454066116E+02 -0.33631577345E+02  0.24242072405E+03  0.24763640183E+03  0.47000000000E+01 0. -1.
        -11    1    4    4    0    0  0.36842008926E+02  0.68656529972E+02  0.15348428269E+03  0.17212924726E+03  0.00000000000E+00 0.  1.
         12    1    4    4    0    0  0.15882657043E+02  0.54174600685E+00 -0.59580979885E+01  0.16972071622E+02  0.00000000000E+00 0. -1.
         -5    1    5    5    0  502  0.12405669401E+02 -0.57502737781E+02  0.33646296672E+03  0.34159900975E+03  0.47000000000E+01 0.  1.
         13    1    6    6    0    0 -0.43764885135E+02 -0.10340740501E+02  0.62547363960E+02  0.77035503655E+02  0.00000000000E+00 0. -1.
        -14    1    6    6    0    0 -0.58819516352E+02  0.32276779648E+02  0.28445819582E+03  0.29226356458E+03  0.00000000000E+00 0.  1.
</event>
<event>
12    1  0.8356052E-002  0.1908121E+03  0.7818608E-02  0.1157774E+00
         21   -1    0    0  503  502  0.00000000000E+00  0.00000000000E+00  0.19794428796E+03  0.19794428796E+03  0.00000000000E+00 0. -1.
         21   -1    0    0  501  503 -0.00000000000E+00 -0.00000000000E+00 -0.34052614956E+03  0.34052614956E+03  0.00000000000E+00 0. -1.
          6    2    1    2  501    0  0.67972035608E+02  0.45394641655E+02 -0.25395306617E+03  0.31753423794E+03  0.17220615938E+03 0.  0.
         24    2    3    3    0    0  0.48519839544E+02  0.51279520002E+02 -0.62663747690E+02  0.12511097248E+03  0.82111181689E+02 0.  0.
         -6    2    1    2    0  502 -0.67972035608E+02 -0.45394641655E+02  0.11137120457E+03  0.22093619958E+03  0.17241922156E+03 0.  0.
        -24    2    5    5    0    0 -0.16765190990E+02  0.28048347504E+02  0.97211954695E+02  0.13016953197E+03  0.80163342563E+02 0.  0.
          5    1    3    3  501    0  0.19452196064E+02 -0.58848783476E+01 -0.19128931848E+03  0.19242326546E+03  0.47000000000E+01 0. -1.
        -13    1    4    4    0    0  0.10632296980E+02 -0.22171378348E+02 -0.22035180252E+02  0.33017645671E+02  0.00000000000E+00 0.  1.
         14    1    4    4    0    0  0.37887542564E+02  0.73450898350E+02 -0.40628567437E+02  0.92093326805E+02  0.00000000000E+00 0. -1.
         -5    1    5    5    0  502 -0.51206844618E+02 -0.73442989159E+02  0.14159249875E+02  0.90766667611E+02  0.47000000000E+01 0.  1.
         13    1    6    6    0    0 -0.31092696620E+02 -0.10403388938E+02  0.78496537455E+02  0.85068752647E+02  0.00000000000E+00 0. -1.
        -14    1    6    6    0    0  0.14327505630E+02  0.38451736443E+02  0.18715417240E+02  0.45100779322E+02  0.00000000000E+00 0.  1.
</event>
<event>
12    1  0.8356052E-002  0.2442815E+03  0.7818608E-02  0.1118803E+00
         21   -1    0    0  501  502  0.00000000000E+00  0.00000000000E+00  0.46094768991E+03  0.46094768991E+03  0.00000000000E+00 0. -1.
         21   -1    0    0  502  503 -0.00000000000E+00 -0.00000000000E+00 -0.16151522411E+03  0.16151522411E+03  0.00000000000E+00 0. -1.
         -6    2    1    2    0  503  0.13316814140E+03 -0.10387136979E+03  0.18055147275E+01  0.24428818751E+03  0.17649488188E+03 0.  0.
        -24    2    3    3    0    0  0.35077790464E+02 -0.11085433191E+03  0.22535525582E+02  0.14367853561E+03  0.81342100995E+02 0.  0.
          6    2    1    2  501    0 -0.13316814140E+03  0.10387136979E+03  0.29762695107E+03  0.37817472650E+03  0.16096989287E+03 0.  0.
         24    2    5    5    0    0 -0.87401388495E+02 -0.10292529566E+01  0.16350040717E+03  0.20179231212E+03  0.79672404337E+02 0.  0.
          5    1    5    5  501    0 -0.45766752904E+02  0.10490062274E+03  0.13412654390E+03  0.17638241438E+03  0.47000000000E+01 0. -1.
        -13    1    6    6    0    0 -0.26122359945E+02  0.37293238104E+02  0.54654218796E+02  0.71135412627E+02  0.00000000000E+00 0.  1.
         14    1    6    6    0    0 -0.61279028550E+02 -0.38322491061E+02  0.10884618837E+03  0.13065689949E+03  0.00000000000E+00 0. -1.
         -5    1    3    3    0  503  0.98090350935E+02  0.69829621260E+01 -0.20730010854E+02  0.10060965191E+03  0.47000000000E+01 0.  1.
         11    1    4    4    0    0  0.42180538755E+02 -0.10518080064E+03 -0.62460992413E+01  0.11349542911E+03  0.00000000000E+00 0. -1.
        -12    1    4    4    0    0 -0.71027482902E+01 -0.56735312664E+01  0.28781624823E+02  0.30183106496E+02  0.00000000000E+00 0.  1.
</event>
<event>
12    1  0.8356052E-002  0.1784008E+03  0.7818608E-02  0.1169721E+00
         21   -1    0    0  503  502  0.00000000000E+00  0.00000000000E+00  0.95530768975E+03  0.95530768975E+03  0.00000000000E+00 0. -1.
         21   -1    0    0  501  503 -0.00000000000E+00 -0.00000000000E+00 -0.17280155656E+03  0.17280155656E+03  0.00000000000E+00 0. -1.
          6    2    1    2  501    0 -0.41739125853E+02  0.99042989277E+01 -0.11632437319E+03  0.21174517232E+03  0.17165199806E+03 0.  0.
         24    2    3    3    0    0  0.22559560595E+02 -0.41728543208E+01 -0.95679791533E+01  0.86240172459E+02  0.82580110398E+02 0.  0.
         -6    2    1    2    0  502  0.41739125853E+02 -0.99042989277E+01  0.89883050639E+03  0.91636407399E+03  0.17316635677E+03 0.  0.
        -24    2    5    5    0    0  0.14613284158E+02 -0.62532311604E+02  0.38753486173E+03  0.40163031246E+03  0.83664811992E+02 0.  0.
          5    1    3    3  501    0 -0.64298686448E+02  0.14077153248E+02 -0.10675639404E+03  0.12550499987E+03  0.47000000000E+01 0. -1.
        -13    1    4    4    0    0  0.11428916238E+01 -0.72471885631E+01  0.35498660225E+02  0.36248900964E+02  0.00000000000E+00 0.  1.
         14    1    4    4    0    0  0.21416668971E+02  0.30743342423E+01 -0.45066639378E+02  0.49991271495E+02  0.00000000000E+00 0. -1.
         -5    1    5    5    0  502  0.27125841696E+02  0.52628012677E+02  0.51129564466E+03  0.51473376152E+03  0.47000000000E+01 0.  1.
         11    1    6    6    0    0 -0.19942086031E+02 -0.39845488359E+01  0.21838007796E+03  0.21932492306E+03  0.00000000000E+00 0. -1.
        -12    1    6    6    0    0  0.34555370189E+02 -0.58547762769E+02  0.16915478376E+03  0.18230538940E+03  0.00000000000E+00 0.  1.
</event>
<event>
12    1  0.8356052E-002  0.2127980E+03  0.7818608E-02  0.1139498E+00
         21   -1    0    0  503  502  0.00000000000E+00  0.00000000000E+00  0.24478984915E+04  0.24478984915E+04  0.00000000000E+00 0.  1.
         21   -1    0    0  501  503 -0.00000000000E+00 -0.00000000000E+00 -0.24168374770E+03  0.24168374770E+03  0.00000000000E+00 0. -1.
          6    2    1    2  501    0  0.46503428082E+01  0.12421665875E+03 -0.18922863523E+03  0.28476386196E+03  0.17271820023E+03 0.  0.
         24    2    3    3    0    0  0.12608386065E+02 -0.59895366889E+01 -0.69782897985E+02  0.10782783418E+03  0.81008289844E+02 0.  0.
         -6    2    1    2    0  502 -0.46503428082E+01 -0.12421665875E+03  0.23954433790E+04  0.24048183772E+04  0.17190416320E+03 0.  0.
        -24    2    5    5    0    0 -0.32999358544E+02 -0.14746093456E+03  0.17523884879E+04  0.17607022029E+04  0.79832010017E+02 0.  0.
          5    1    3    3  501    0 -0.79580432572E+01  0.13020619544E+03 -0.11944573724E+03  0.17693602779E+03  0.47000000000E+01 0. -1.
        -13    1    4    4    0    0  0.38954806276E+02 -0.30489784542E+01 -0.70249088659E+01  0.39700409899E+02  0.00000000000E+00 0.  1.
         14    1    4    4    0    0 -0.26346420210E+02 -0.29405582346E+01 -0.62757989120E+02  0.68127424279E+02  0.00000000000E+00 0. -1.
         -5    1    5    5    0  502  0.28349015736E+02  0.23244275803E+02  0.64305489115E+03  0.64411617437E+03  0.47000000000E+01 0.  1.
         11    1    6    6    0    0  0.16028280536E+02 -0.67809653110E+02  0.50083808554E+03  0.50566178693E+03  0.00000000000E+00 0. -1.
        -12    1    6    6    0    0 -0.49027639080E+02 -0.79651281445E+02  0.12515504023E+04  0.12550404159E+04  0.00000000000E+00 0.  1.
</event>
<event>
12    1  0.8356052E-002  0.2175527E+03  0.7818608E-02  0.1138022E+00
         21   -1    0    0  501  502  0.00000000000E+00  0.00000000000E+00  0.10037732559E+03  0.10037732559E+03  0.00000000000E+00 0. -1.
         21   -1    0    0  502  503 -0.00000000000E+00 -0.00000000000E+00 -0.55176032469E+03  0.55176032469E+03  0.00000000000E+00 0. -1.
         -6    2    1    2    0  503 -0.10957922749E+03 -0.32385232423E+02 -0.37331478242E+03  0.43207997014E+03  0.18512904540E+03 0.  0.
        -24    2    3    3    0    0 -0.69753380196E+02 -0.85770939723E+01 -0.75182020245E+02  0.13032152461E+03  0.79951629245E+02 0.  0.
          6    2    1    2  501    0  0.10957922749E+03  0.32385232423E+02 -0.78068216687E+02  0.22005768014E+03  0.17109741598E+03 0.  0.
         24    2    5    5    0    0 -0.32874640587E+01 -0.18130462752E+02 -0.37841023973E+02  0.89938340479E+02  0.79482330698E+02 0.  0.
          5    1    5    5  501    0  0.11286669155E+03  0.50515695175E+02 -0.40227192714E+02  0.13011933966E+03  0.47000000000E+01 0. -1.
        -13    1    6    6    0    0  0.36503110822E+02 -0.10833431581E+02 -0.30583383115E+02  0.48838342133E+02  0.00000000000E+00 0.  1.
         14    1    6    6    0    0 -0.39790574881E+02 -0.72970311713E+01 -0.72576408576E+01  0.41099998346E+02  0.00000000000E+00 0. -1.
         -5    1    3    3    0  503 -0.39825847295E+02 -0.23808138451E+02 -0.29813276217E+03  0.30175844553E+03  0.47000000000E+01 0.  1.
         11    1    4    4    0    0 -0.49063152968E+02 -0.43303409930E+02 -0.39739128636E+02  0.76560934134E+02  0.00000000000E+00 0. -1.
        -12    1    4    4    0    0 -0.20690227228E+02  0.34726315958E+02 -0.35442891609E+02  0.53760590476E+02  0.00000000000E+00 0.  1.
</event>
<event>
12    1  0.8356052E-002  0.1896886E+03  0.7818608E-02  0.1160001E+00
         21   -1    0    0  503  502  0.00000000000E+00  0.00000000000E+00  0.13945104977E+03  0.13945104977E+03  0.00000000000E+00 0.  1.
         21   -1    0    0  501  503 -0.00000000000E+00 -0.00000000000E+00 -0.37139107395E+03  0.37139107395E+03  0.00000000000E+00 0.  1.
          6    2    1    2  501    0 -0.42164228676E+02 -0.48176943650E+02 -0.26275982777E+03  0.32407481665E+03  0.17855788870E+03 0.  0.
         24    2    3    3    0    0  0.31212720628E+02 -0.45949222169E+02 -0.21582989124E+03  0.23681859409E+03  0.80093318139E+02 0.  0.
         -6    2    1    2    0  502  0.42164228676E+02  0.48176943650E+02  0.30819803595E+02  0.18676730706E+03  0.17272326599E+03 0.  0.
        -24    2    5    5    0    0 -0.35796112556E+02  0.30362270181E+02  0.49612388437E+02  0.10448469261E+03  0.79072326248E+02 0.  0.
          5    1    3    3  501    0 -0.73376949304E+02 -0.22277214813E+01 -0.46929936538E+02  0.87256222561E+02  0.47000000000E+01 0. -1.
        -11    1    4    4    0    0  0.41177533133E+02 -0.77115318978E+00 -0.15509557125E+03  0.16047062078E+03  0.00000000000E+00 0.  1.
         12    1    4    4    0    0 -0.99648125051E+01 -0.45178068979E+02 -0.60734319987E+02  0.76347973315E+02  0.00000000000E+00 0. -1.
         -5    1    5    5    0  502  0.77960341232E+02  0.17814673469E+02 -0.18792584842E+02  0.82282614451E+02  0.47000000000E+01 0.  1.
         13    1    6    6    0    0 -0.33422589543E+02 -0.21581560142E+02  0.18353897915E+02  0.43814367491E+02  0.00000000000E+00 0. -1.
        -14    1    6    6    0    0 -0.23735230127E+01  0.51943830323E+02  0.31258490522E+02  0.60670325117E+02  0.00000000000E+00 0.  1.
</event>
<event>
12    1  0.8356052E-002  0.2061089E+03  0.7818608E-02  0.1144732E+00
         21   -1    0    0  501  502  0.00000000000E+00  0.00000000000E+00  0.94017428510E+02  0.94017428510E+02  0.00000000000E+00 0. -1.
         21   -1    0    0  502  503 -0.00000000000E+00 -0.00000000000E+00 -0.57570895898E+03  0.57570895898E+03  0.00000000000E+00 0.  1.
         -6    2    1    2    0  503 -0.38285483636E+02  0.10480632899E+03 -0.39659539135E+03  0.44695502067E+03  0.17329380025E+03 0.  0.
        -24    2    3    3    0    0 -0.32786293003E+02  0.81354227706E+00 -0.98857262989E+02  0.13149531822E+03  0.80266166030E+02 0.  0.
          6    2    1    2  501    0  0.38285483636E+02 -0.10480632899E+03 -0.85096139125E+02  0.22277136683E+03  0.17301902823E+03 0.  0.
         24    2    5    5    0    0 -0.29211062842E+02 -0.52683529431E+02  0.33745302450E+01  0.99800966490E+02  0.79498459056E+02 0.  0.
          5    1    5    5  501    0  0.67496546478E+02 -0.52122799559E+02 -0.88470669370E+02  0.12297040034E+03  0.47000000000E+01 0. -1.
        -11    1    6    6    0    0 -0.22357880385E+01  0.13269871310E+02 -0.20611559045E+02  0.24615535724E+02  0.00000000000E+00 0.  1.
         12    1    6    6    0    0 -0.26975274803E+02 -0.65953400741E+02  0.23986089290E+02  0.75185430766E+02  0.00000000000E+00 0. -1.
         -5    1    3    3    0  503 -0.54991906332E+01  0.10399278671E+03 -0.29773812836E+03  0.31545970244E+03  0.47000000000E+01 0.  1.
         13    1    4    4    0    0 -0.12553306636E+02 -0.25083724332E+02 -0.94218984474E+02  0.98305624300E+02  0.00000000000E+00 0. -1.
        -14    1    4    4    0    0 -0.20232986367E+02  0.25897266609E+02 -0.46382785156E+01  0.33189693923E+02  0.00000000000E+00 0.  1.
</event>
<event>
12    1  0.8356052E-002  0.1806641E+03  0.7818608E-02  0.1167827E+00
         21   -1    0    0  501  502  0.00000000000E+00  0.00000000000E+00  0.81551029428E+02  0.81551029428E+02  0.00000000000E+00 0. -1.
         21   -1    0    0  502  503 -0.00000000000E+00 -0.00000000000E+00 -0.39921215933E+03  0.39921215933E+03  0.00000000000E+00 0. -1.
         -6    2    1    2    0  503  0.52369764030E+02  0.18399465327E+02 -0.18459926445E+03  0.25638628860E+03  0.16904410087E+03 0.  0.
        -24    2    3    3    0    0 -0.21581111609E+02  0.51368123262E+02 -0.10190560224E+03  0.14055884719E+03  0.79168234099E+02 0.  0.
          6    2    1    2  501    0 -0.52369764030E+02 -0.18399465327E+02 -0.13306186545E+03  0.22437690016E+03  0.17192556755E+03 0.  0.
         24    2    5    5    0    0 -0.26131161103E+01  0.36157751396E+02 -0.12216850707E+03  0.14959074392E+03  0.78345613683E+02 0.  0.
          5    1    5    5  501    0 -0.49756647919E+02 -0.54557216723E+02 -0.10893358381E+02  0.74786156243E+02  0.47000000000E+01 0. -1.
        -11    1    6    6    0    0 -0.35790667637E+02 -0.12021100722E+01 -0.42813613843E+02  0.55815969837E+02  0.00000000000E+00 0.  1.
         12    1    6    6    0    0  0.33177551527E+02  0.37359861469E+02 -0.79354893228E+02  0.93774774079E+02  0.00000000000E+00 0. -1.
         -5    1    3    3    0  503  0.73950875638E+02 -0.32968657935E+02 -0.82693662217E+02  0.11582744141E+03  0.47000000000E+01 0.  1.
         11    1    4    4    0    0 -0.34101085057E+02  0.22130110565E+02 -0.80252777063E+01  0.41437071300E+02  0.00000000000E+00 0. -1.
        -12    1    4    4    0    0  0.12519973448E+02  0.29238012697E+02 -0.93880324531E+02  0.99121775890E+02  0.00000000000E+00 0.  1.
</event>
<event>
12    1  0.8356052E-002  0.2078447E+03  0.7818608E-02  0.1143875E+00
         21   -1    0    0  503  502  0.00000000000E+00  0.00000000000E+00  0.35756015198E+03  0.35756015198E+03  0.00000000000E+00 0. -1.
         21   -1    0    0  501  503 -0.00000000000E+00 -0.00000000000E+00 -0.12004643530E+03  0.12004643530E+03  0.00000000000E+00 0. -1.
          6    2    1    2  501    0  0.71462470985E+02 -0.85410453090E+02  0.13885148663E+03  0.24753346250E+03  0.17202107272E+03 0.  0.
         24    2    3    3    0    0  0.44985650132E+02 -0.11140331064E+03  0.15006027646E+03  0.20849018324E+03  0.80719660562E+02 0.  0.
         -6    2    1    2    0  502 -0.71462470985E+02  0.85410453090E+02  0.98662230051E+02  0.23007312478E+03  0.17549238402E+03 0.  0.
        -24    2    5    5    0    0 -0.58645552427E+01  0.32536472441E+02 -0.14848701701E+02  0.88632091102E+02  0.80883549525E+02 0.  0.
          5    1    3    3  501    0  0.26476820852E+02  0.25992857546E+02 -0.11208789822E+02  0.39043279257E+02  0.47000000000E+01 0. -1.
        -13    1    4    4    0    0  0.66022195067E+01 -0.67117002659E+02  0.27870329039E+02  0.72972848300E+02  0.00000000000E+00 0.  1.
         14    1    4    4    0    0  0.38383430625E+02 -0.44286307977E+02  0.12218994742E+03  0.13551733494E+03  0.00000000000E+00 0. -1.
         -5    1    5    5    0  502 -0.65597915742E+02  0.52873980650E+02  0.11351093175E+03  0.14144103367E+03  0.47000000000E+01 0.  1.
         11    1    6    6    0    0 -0.22624863416E+02 -0.18856345422E+02 -0.17941672870E+02  0.34486951628E+02  0.00000000000E+00 0. -1.
        -12    1    6    6    0    0  0.16760308173E+02  0.51392817863E+02  0.30929711685E+01  0.54145139473E+02  0.00000000000E+00 0.  1.
</event>
<event>
12    1  0.8356052E-002  0.1920735E+03  0.7818608E-02  0.1156987E+00
         21   -1    0    0  503  502  0.00000000000E+00  0.00000000000E+00  0.13739102343E+04  0.13739102343E+04  0.00000000000E+00 0. -1.
         21   -1    0    0  501  503 -0.00000000000E+00 -0.00000000000E+00 -0.15361661474E+03  0.15361661474E+03  0.00000000000E+00 0. -1.
          6    2    1    2  501    0  0.12285587109E+02 -0.81387836181E+02 -0.84786160046E+02  0.20838869847E+03  0.17164568502E+03 0.  0.
         24    2    3    3    0    0  0.55059764641E+02 -0.59634101315E+02 -0.10498124838E+03  0.15611263476E+03  0.82233135038E+02 0.  0.
         -6    2    1    2    0  502 -0.12285587109E+02  0.81387836181E+02  0.13050797796E+04  0.13191381506E+04  0.17354340561E+03 0.  0.
        -24    2    5    5    0    0  0.37430779098E+02 -0.64621754632E+01  0.69083989619E+03  0.69664151123E+03  0.81282286287E+02 0.  0.
          5    1    3    3  501    0 -0.42774177532E+02 -0.21753734865E+02  0.20195088337E+02  0.52276063710E+02  0.47000000000E+01 0. -1.
        -13    1    4    4    0    0  0.64128807051E+02 -0.44083827869E+02 -0.37711141511E+02  0.86475533924E+02  0.00000000000E+00 0.  1.
         14    1    4    4    0    0 -0.90690424107E+01 -0.15550273447E+02 -0.67270106872E+02  0.69637100837E+02  0.00000000000E+00 0. -1.
         -5    1    5    5    0  502 -0.49716366207E+02  0.87850011644E+02  0.61423988341E+03  0.62249663933E+03  0.47000000000E+01 0.  1.
         13    1    6    6    0    0 -0.25568234572E+02 -0.70429418288E+01  0.22638271649E+03  0.22793084910E+03  0.00000000000E+00 0. -1.
        -14    1    6    6    0    0  0.62999013670E+02  0.58076636564E+00  0.46445717971E+03  0.46871066213E+03  0.00000000000E+00 0.  1.
</event>
<event>
12    1  0.8356052E-002  0.2053824E+03  0.7818608E-02  0.1146032E+00
         21   -1    0    0  501  502  0.00000000000E+00  0.00000000000E+00  0.13596918022E+03  0.13596918022E+03  0.00000000000E+00 0.  1.
         21   -1    0    0  502  503 -0.00000000000E+00 -0.00000000000E+00 -0.41337814592E+03  0.41337814592E+03  0.00000000000E+00 0. -1.
         -6    2    1    2    0  503 -0.70474068927E+02 -0.78591796728E+02 -0.27860998579E+03  0.34396146408E+03  0.17187989901E+03 0.  0.
        -24    2    3    3    0    0 -0.92732576107E+02 -0.10837453323E+03 -0.23651304854E+03  0.28759929005E+03  0.80190768704E+02 0.  0.
          6    2    1    2  501    0  0.70474068927E+02  0.78591796728E+02  0.12010200870E+01  0.20538586206E+03  0.17617787880E+03 0.  0.
         24    2    5    5    0    0  0.90965479267E+02  0.35488754706E+02  0.50736658073E+02  0.13643921921E+03  0.80667725498E+02 0.  0.
          5    1    5    5  501    0 -0.20491410340E+02  0.43103042022E+02 -0.49535637986E+02  0.68946642848E+02  0.47000000000E+01 0. -1.
        -13    1    6    6    0    0  0.94872566729E+02  0.51444261047E+02  0.52319903070E+02  0.11993618374E+03  0.00000000000E+00 0.  1.
         14    1    6    6    0    0 -0.39070874621E+01 -0.15955506341E+02 -0.15832449966E+01  0.16503035471E+02  0.00000000000E+00 0. -1.
         -5    1    3    3    0  503  0.22258507180E+02  0.29782736497E+02 -0.42096937250E+02  0.56362174026E+02  0.47000000000E+01 0.  1.
         13    1    4    4    0    0 -0.20561697376E+02 -0.45730528985E+01 -0.97270825038E+02  0.99525421955E+02  0.00000000000E+00 0. -1.
        -14    1    4    4    0    0 -0.72170878731E+02 -0.10380148033E+03 -0.13924222350E+03  0.18807386809E+03  0.00000000000E+00 0.  1.
</event>
<event>
12    1  0.8356052E-002  0.3392252E+03  0.7818608E-02  0.1067386E+00
         21   -1    0    0  503  502  0.00000000000E+00  0.00000000000E+00  0.55299917322E+03  0.55299917322E+03  0.00000000000E+00 0.  1.
         21   -1    0    0  501  503 -0.00000000000E+00 -0.00000000000E+00 -0.22934814107E+03  0.22934814107E+03  0.00000000000E+00 0. -1.
          6    2    1    2  501    0 -0.29008760283E+03  0.36969162918E+01  0.28552156651E+03  0.44339183423E+03  0.17581032169E+03 0.  0.
         24    2    3    3    0    0 -0.14592616756E+03  0.65517362628E+02  0.12041545477E+03  0.21560595860E+03  0.79994227606E+02 0.  0.
         -6    2    1    2    0  502  0.29008760283E+03 -0.36969162918E+01  0.38129465645E+02  0.33895548006E+03  0.17109201270E+03 0.  0.
        -24    2    5    5    0    0  0.13339332648E+03  0.65209196874E+02  0.29240135053E+02  0.16748461120E+03  0.71764131592E+02 0.  0.
          5    1    3    3  501    0 -0.14416143527E+03 -0.61820446336E+02  0.16510611174E+03  0.22778587563E+03  0.47000000000E+01 0. -1.
        -13    1    4    4    0    0 -0.14457689207E+03  0.72118892995E+02  0.12751022749E+03  0.20582145311E+03  0.00000000000E+00 0.  1.
         14    1    4    4    0    0 -0.13492754908E+01 -0.66015303670E+01 -0.70947727223E+01  0.97845054815E+01  0.00000000000E+00 0. -1.
         -5    1    5    5    0  502  0.15669427635E+03 -0.68906113166E+02  0.88893305919E+01  0.17147086887E+03  0.47000000000E+01 0.  1.
         11    1    6    6    0    0  0.12596391204E+03  0.63243395034E+02  0.38981092136E+01  0.14100294113E+03  0.00000000000E+00 0. -1.
        -12    1    6    6    0    0  0.74294144392E+01  0.19658018398E+01  0.25342025840E+02  0.26481670065E+02  0.00000000000E+00 0.  1.
</event>
<event>
12    1  0.8356052E-002  0.2388536E+03  0.7818608E-02  0.1120666E+00
         21   -1    0    0  501  502  0.00000000000E+00  0.00000000000E+00  0.18273787132E+03  0.18273787132E+03  0.00000000000E+00 0. -1.
         21   -1    0    0  502  503 -0.00000000000E+00 -0.00000000000E+00 -0.33469744250E+03  0.33469744250E+03  0.00000000000E+00 0. -1.
         -6    2    1    2    0  503 -0.16227243284E+02  0.16449483227E+03 -0.14438115786E+03  0.27910025207E+03  0.17242145658E+03 0.  0.
        -24    2    3    3    0    0  0.50426785914E+02  0.71838188190E+02 -0.41810654675E+02  0.12557236722E+03  0.79477685834E+02 0.  0.
          6    2    1    2  501    0  0.16227243284E+02 -0.16449483227E+03 -0.75784133130E+01  0.23833506175E+03  0.17153511607E+03 0.  0.
         24    2    5    5    0    0 -0.43402552891E+02 -0.55160376026E+02  0.16342985221E+02  0.11143329178E+03  0.84993156609E+02 0.  0.
          5    1    5    5  501    0  0.59629796175E+02 -0.10933445625E+03 -0.23921398534E+02  0.12690176997E+03  0.47000000000E+01 0. -1.
        -13    1    6    6    0    0 -0.13489203834E+02  0.20354596301E+02 -0.94936565706E+01  0.26199193227E+02  0.00000000000E+00 0.  1.
         14    1    6    6    0    0 -0.29913349056E+02 -0.75514972327E+02  0.25836641791E+02  0.85234098554E+02  0.00000000000E+00 0. -1.
         -5    1    3    3    0  503 -0.66654029198E+02  0.92656644083E+02 -0.10257050318E+03  0.15352788484E+03  0.47000000000E+01 0.  1.
         11    1    4    4    0    0 -0.44703676295E+01  0.51793749206E+02 -0.42466509469E+02  0.67126604786E+02  0.00000000000E+00 0. -1.
        -12    1    4    4    0    0  0.54897153543E+02  0.20044438984E+02  0.65585479397E+00  0.58445762437E+02  0.00000000000E+00 0.  1.
</event>
<event>
12    1  0.8356052E-002  0.1962218E+03  0.7818608E-02  0.1153329E+00
         21   -1    0    0  503  502  0.00000000000E+00  0.00000000000E+00  0.64882872272E+03  0.64882872272E+03  0.00000000000E+00 0.  1.
         21   -1    0    0  501  503 -0.00000000000E+00 -0.00000000000E+00 -0.61836930514E+02  0.61836930514E+02  0.00000000000E+00 0. -1.
          6    2    1    2  501    0  0.82827577162E+02 -0.44667844236E+02  0.37054307579E+03  0.41851323163E+03  0.17028073933E+03 0.  0.
         24    2    3    3    0    0  0.78811154159E+01  0.72922410514E+01  0.76396560788E+02  0.11051796401E+03  0.79135940685E+02 0.  0.
         -6    2    1    2    0  502 -0.82827577162E+02  0.44667844236E+02  0.21644871642E+03  0.29215242160E+03  0.17218410717E+03 0.  0.
        -24    2    5    5    0    0 -0.50817039998E+02  0.90913156544E+02  0.10815094136E+03  0.17003034546E+03  0.79787960700E+02 0.  0.
          5    1    3    3  501    0  0.74946461746E+02 -0.51960085288E+02  0.29414651500E+03  0.30799526762E+03  0.47000000000E+01 0. -1.
        -13    1    4    4    0    0  0.38827712819E+01 -0.21855893644E+02  0.77956682767E+02  0.81055538909E+02  0.00000000000E+00 0.  1.
         14    1    4    4    0    0  0.39983441340E+01  0.29148134695E+02 -0.15601219788E+01  0.29462425097E+02  0.00000000000E+00 0. -1.
         -5    1    5    5    0  502 -0.32010537163E+02 -0.46245312308E+02  0.10829777505E+03  0.12212207614E+03  0.47000000000E+01 0.  1.
         11    1    6    6    0    0 -0.61773519980E+02  0.44307267223E+02  0.92348620665E+02  0.11961341663E+03  0.00000000000E+00 0. -1.
        -12    1    6    6    0    0  0.10956479982E+02  0.46605889321E+02  0.15802320696E+02  0.50416928828E+02  0.00000000000E+00 0.  1.
</event>
<event>
12    1  0.8356052E-002  0.2040542E+03  0.7818608E-02  0.1146654E+00
         21   -1    0    0  503  502  0.00000000000E+00  0.00000000000E+00  0.71311318081E+03  0.71311318081E+03  0.00000000000E+00 0.  1.
         21   -1    0    0  501  503 -0.00000000000E+00 -0.00000000000E+00 -0.72703975207E+02  0.72703975207E+02  0.00000000000E+00 0.  1.
          6    2    1    2  501    0  0.45070269866E+02 -0.99886429743E+02  0.49609611758E+03  0.53588836647E+03  0.17045924841E+03 0.  0.
         24    2    3    3    0    0 -0.10202627811E+02 -0.97329958083E+02  0.20397919865E+03  0.23854006382E+03  0.75608426842E+02 0.  0.
         -6    2    1    2    0  502 -0.45070269866E+02  0.99886429743E+02  0.14431308802E+03  0.24992878954E+03  0.17213222939E+03 0.  0.
        -24    2    5    5    0    0  0.42286376881E+02  0.34003308786E+02  0.72629443601E+02  0.11903797919E+03  0.77140402733E+02 0.  0.
          5    1    3    3  501    0  0.55272897677E+02 -0.25564716602E+01  0.29211691894E+03  0.29734830266E+03  0.47000000000E+01 0. -1.
        -11    1    4    4    0    0 -0.39052506276E+02 -0.82211161871E+02  0.15397675272E+03  0.17886479184E+03  0.00000000000E+00 0.  1.
         12    1    4    4    0    0  0.28849878465E+02 -0.15118796211E+02  0.50002445929E+02  0.59675271975E+02  0.00000000000E+00 0. -1.
         -5    1    5    5    0  502 -0.87356646747E+02  0.65883120957E+02  0.71683644420E+02  0.13089081035E+03  0.47000000000E+01 0.  1.
         13    1    6    6    0    0 -0.19331337390E+02 -0.40738516800E+01  0.26906635034E+02  0.33380591392E+02  0.00000000000E+00 0. -1.
        -14    1    6    6    0    0  0.61617714271E+02  0.38077160466E+02  0.45722808567E+02  0.85657387798E+02  0.00000000000E+00 0.  1.
</event>
<event>
12    1  0.8356052E-002  0.1853653E+03  0.7818608E-02  0.1163014E+00
         21   -1    0    0  501  502  0.00000000000E+00  0.00000000000E+00  0.13272220865E+03  0.13272220865E+03  0.00000000000E+00 0.  1.
         21   -1    0    0  502  503 -0.00000000000E+00 -0.00000000000E+00 -0.33711123096E+03  0.33711123096E+03  0.00000000000E+00 0. -1.
         -6    2    1    2    0  503  0.67096724651E+02  0.24798011418E+01 -0.21693467181E+03  0.28534355833E+03  0.17277781853E+03 0.  0.
        -24    2    3    3    0    0  0.67043081659E+02  0.18959368077E+02 -0.23679396504E+03  0.25911265038E+03  0.78827351034E+02 0.  0.
          6    2    1    2  501    0 -0.67096724651E+02 -0.24798011418E+01  0.12545649500E+02  0.18448988128E+03  0.17137970446E+03 0.  0.
         24    2    5    5    0    0 -0.13685357452E+02  0.56112617664E+02 -0.17076085354E+02  0.99723243598E+02  0.79480926976E+02 0.  0.
          5    1    5    5  501    0 -0.53411367199E+02 -0.58592418805E+02  0.29621734853E+02  0.84766637678E+02  0.47000000000E+01 0. -1.
        -13    1    6    6    0    0  0.14601491549E+02  0.14346855676E+02  0.26207950541E+02  0.33254961958E+02  0.00000000000E+00 0.  1.
         14    1    6    6    0    0 -0.28286849000E+02  0.41765761988E+02 -0.43284035895E+02  0.66468281640E+02  0.00000000000E+00 0. -1.
         -5    1    3    3    0  503  0.53642992297E-01 -0.16479566935E+02  0.19859293236E+02  0.26230907948E+02  0.47000000000E+01 0.  1.
         11    1    4    4    0    0  0.58659415134E+02 -0.18512365609E+02 -0.18269207653E+03  0.19276936865E+03  0.00000000000E+00 0. -1.
        -12    1    4    4    0    0  0.83836665246E+01  0.37471733686E+02 -0.54101888515E+02  0.66343281730E+02  0.00000000000E+00 0.  1.
</event>
<event>
12    1  0.8356052E-002  0.2147193E+03  0.7818608E-02  0.1138379E+00
         21   -1    0    0  503  502  0.00000000000E+00  0.00000000000E+00  0.79741817366E+03  0.79741817366E+03  0.00000000000E+00 0. -1.
         21   -1    0    0  501  503 -0.00000000000E+00 -0.00000000000E+00 -0.76271574744E+02  0.76271574744E+02  0.00000000000E+00 0. -1.
          6    2    1    2  501    0  0.90422130005E+02 -0.90577029143E+02  0.14009765931E+03  0.25423657228E+03  0.16919964757E+03 0.  0.
         24    2    3    3    0    0  0.46087589680E+02 -0.54745195995E+02  0.12679968941E+02  0.11456972027E+03  0.88568260583E+02 0.  0.
         -6    2    1    2    0  502 -0.90422130005E+02  0.90577029143E+02  0.58104893960E+03  0.61945317612E+03  0.17240651782E+03 0.  0.
        -24    2    5    5    0    0 -0.10790313229E+03  0.86566645583E+02  0.57918638218E+03  0.60081912832E+03  0.79936784818E+02 0.  0.
          5    1    3    3  501    0  0.44334540325E+02 -0.35831833148E+02  0.12741769037E+03  0.13966685201E+03  0.47000000000E+01 0. -1.
        -11    1    4    4    0    0  0.24415857532E+02 -0.48294113861E+02  0.48196479187E+02  0.72466241373E+02  0.00000000000E+00 0.  1.
         12    1    4    4    0    0  0.21671732148E+02 -0.64510821341E+01 -0.35516510246E+02  0.42103478895E+02  0.00000000000E+00 0. -1.
         -5    1    5    5    0  502  0.17481002285E+02  0.40103835591E+01  0.18625574214E+01  0.18634047798E+02  0.47000000000E+01 0.  1.
         13    1    6    6    0    0 -0.68715240852E+02  0.84946464818E+02  0.50726609092E+03  0.51889938640E+03  0.00000000000E+00 0. -1.
        -14    1    6    6    0    0 -0.39187891439E+02  0.16201807652E+01  0.71920291260E+02  0.81919741919E+02  0.00000000000E+00 0.  1.
</event>
<event>
12    1  0.8356052E-002  0.2214819E+03  0.7818608E-02  0.1132900E+00
         21   -1    0    0  501  502  0.00000000000E+00  0.00000000000E+00  0.14154178111E+03  0.14154178111E+03  0.00000000000E+00 0. -1.
         21   -1    0    0  502  503 -0.00000000000E+00 -0.00000000000E+00 -0.35418876378E+03  0.35418876378E+03  0.00000000000E+00 0.  1.
         -6    2    1    2    0  503 -0.13722864997E+03  0.23358204768E+02 -0.14511560718E+03  0.26478813657E+03  0.17226987467E+03 0.  0.
        -24    2    3    3    0    0 -0.20227381542E+02 -0.56386745911E+01 -0.11153884097E+03  0.13956990685E+03  0.81227484487E+02 0.  0.
          6    2    1    2  501    0  0.13722864997E+03 -0.23358204768E+02 -0.67531375493E+02  0.23094240833E+03  0.17145437057E+03 0.  0.
         24    2    5    5    0    0  0.23217739097E+01 -0.21997748472E+02 -0.12368068519E+02  0.85111010871E+02  0.81250375264E+02 0.  0.
          5    1    5    5  501    0  0.13490687606E+03 -0.13604562956E+01 -0.55163306975E+02  0.14583139746E+03  0.47000000000E+01 0. -1.
        -11    1    6    6    0    0  0.78960453618E+01  0.92461132552E+01 -0.40755476463E+02  0.42530542019E+02  0.00000000000E+00 0.  1.
         12    1    6    6    0    0 -0.55742714521E+01 -0.31243861727E+02  0.28387407944E+02  0.42580468852E+02  0.00000000000E+00 0. -1.
         -5    1    3    3    0  503 -0.11700126842E+03  0.28996879359E+02 -0.33576766203E+02  0.12521822972E+03  0.47000000000E+01 0.  1.
         11    1    4    4    0    0  0.25398134359E+02 -0.22071307573E+01 -0.85743289485E+01  0.26897133156E+02  0.00000000000E+00 0. -1.
        -12    1    4    4    0    0 -0.45625515902E+02 -0.34315438338E+01 -0.10296451203E+03  0.11267277369E+03  0.00000000000E+00 0.  1.
</event>
<event>
12    1  0.8356052E-002  0.3554755E+03  0.7818608E-02  0.1061055E+00
         21   -1    0    0  503  502  0.00000000000E+00  0.00000000000E+00  0.11927453134E+03  0.11927453134E+03  0.00000000000E+00 0.  1.
         21   -1    0    0  501  503 -0.00000000000E+00 -0.00000000000E+00 -0.11340257956E+04  0.11340257956E+04  0.00000000000E+00 0. -1.
          6    2    1    2  501    0  0.51338356223E+02 -0.30440116128E+03 -0.33127699538E+03  0.48590873616E+03  0.17625878246E+03 0.  0.
         24    2    3    3    0    0 -0.29374147312E+02 -0.19901241897E+03 -0.16045136863E+03  0.26951839444E+03  0.80166949623E+02 0.  0.
         -6    2    1    2    0  502 -0.51338356223E+02  0.30440116128E+03 -0.68347426887E+03  0.76739159078E+03  0.16265633582E+03 0.  0.
        -24    2    5    5    0    0 -0.10344232657E+01  0.77940197255E+02 -0.15871422220E+03  0.19362312661E+03  0.78892119051E+02 0.  0.
          5    1    3    3  501    0  0.80712503536E+02 -0.10538874231E+03 -0.17082562675E+03  0.21639034171E+03  0.47000000000E+01 0. -1.
        -13    1    4    4    0    0  0.12953285890E+01 -0.16597619394E+03 -0.14890487470E+03  0.22298528324E+03  0.00000000000E+00 0.  1.
         14    1    4    4    0    0 -0.30669475901E+02 -0.33036225033E+02 -0.11546493934E+02  0.46533111207E+02  0.00000000000E+00 0. -1.
         -5    1    5    5    0  502 -0.50303932958E+02  0.22646096403E+03 -0.52476004667E+03  0.57376846417E+03  0.47000000000E+01 0.  1.
         13    1    6    6    0    0 -0.15761104936E+02  0.75718500073E+02 -0.16094495954E+03  0.17856366843E+03  0.00000000000E+00 0. -1.
        -14    1    6    6    0    0  0.14726681670E+02  0.22216971822E+01  0.22307373417E+01  0.15059458173E+02  0.00000000000E+00 0.  1.
</event>
<event>
12    1  0.8356052E-002  0.1932749E+03  0.7818608E-02  0.1155772E+00
         21   -1    0    0  503  502  0.00000000000E+00  0.00000000000E+00  0.16314079522E+04  0.16314079522E+04  0.00000000000E+00 0. -1.
         21   -1    0    0  501  503 -0.00000000000E+00 -0.00000000000E+00 -0.28911810226E+02  0.28911810226E+02  0.00000000000E+00 0. -1.
          6    2    1    2  501    0  0.49457388993E+01  0.86851103332E+02  0.41701997978E+03  0.45919157304E+03  0.17141663493E+03 0.  0.
         24    2    3    3    0    0  0.28413683984E+02  0.72784047889E+02  0.41659958921E+03  0.43142660909E+03  0.80429137934E+02 0.  0.
         -6    2    1    2    0  502 -0.49457388993E+01 -0.86851103332E+02  0.11854761622E+04  0.12011281894E+04  0.17259090859E+03 0.  0.
        -24    2    5    5    0    0 -0.62133824172E+02 -0.88266085531E+02  0.88828179769E+03  0.89844178473E+03  0.80632341406E+02 0.  0.
          5    1    3    3  501    0 -0.23467945084E+02  0.14067055443E+02  0.42039056896E+00  0.27764963957E+02  0.47000000000E+01 0. -1.
        -11    1    4    4    0    0  0.58655954730E+01  0.71833442842E+02  0.38972383377E+03  0.39633207709E+03  0.00000000000E+00 0.  1.
         12    1    4    4    0    0  0.22548088511E+02  0.95060504759E+00  0.26875755447E+02  0.35094532000E+02  0.00000000000E+00 0. -1.
         -5    1    5    5    0  502  0.57188085273E+02  0.14149821993E+01  0.29719436453E+03  0.30268640468E+03  0.47000000000E+01 0.  1.
         13    1    6    6    0    0 -0.43864033073E+02 -0.28966437974E+01  0.40087307488E+03  0.40327616605E+03  0.00000000000E+00 0. -1.
        -14    1    6    6    0    0 -0.18269791099E+02 -0.85369441734E+02  0.48740872282E+03  0.49516561868E+03  0.00000000000E+00 0.  1.
</event>
<event>
12    1  0.8356052E-002  0.1798340E+03  0.7818608E-02  0.1168503E+00
         21   -1    0    0  503  502  0.00000000000E+00  0.00000000000E+00  0.28182410671E+02  0.28182410671E+02  0.00000000000E+00 0. -1.
         21   -1    0    0  501  503 -0.00000000000E+00 -0.00000000000E+00 -0.12456510163E+04  0.12456510163E+04  0.00000000000E+00 0. -1.
          6    2    1    2  501    0 -0.35263765993E+02  0.18580881913E+02 -0.42101846106E+03  0.45781745541E+03  0.17536104346E+03 0.  0.
         24    2    3    3    0    0 -0.58225438692E+02  0.14772287511E+02 -0.42172897484E+03  0.43406164277E+03  0.83341222160E+02 0.  0.
         -6    2    1    2    0  502  0.35263765993E+02 -0.18580881913E+02 -0.79645014459E+03  0.81601597157E+03  0.17309087408E+03 0.  0.
        -24    2    5    5    0    0 -0.18087845638E+02  0.35459507462E+02 -0.54684413273E+03  0.55507151522E+03  0.86494708964E+02 0.  0.
          5    1    3    3  501    0  0.22961672699E+02  0.38085944025E+01  0.71051378519E+00  0.23755812642E+02  0.47000000000E+01 0. -1.
        -11    1    4    4    0    0 -0.56411174432E+02 -0.21631209496E+02 -0.18694137469E+03  0.19646171992E+03  0.00000000000E+00 0.  1.
         12    1    4    4    0    0 -0.18142642599E+01  0.36403497007E+02 -0.23478760016E+03  0.23759992285E+03  0.00000000000E+00 0. -1.
         -5    1    5    5    0  502  0.53351611631E+02 -0.54040389375E+02 -0.24960601185E+03  0.26094445635E+03  0.47000000000E+01 0.  1.
         11    1    6    6    0    0 -0.29461603972E+02 -0.17134477413E+02 -0.11670660084E+03  0.12158127777E+03  0.00000000000E+00 0. -1.
        -12    1    6    6    0    0  0.11373758334E+02  0.52593984875E+02 -0.43013753189E+03  0.43349023745E+03  0.00000000000E+00 0.  1.
</event>
<event>
12    1  0.8356052E-002  0.2387764E+03  0.7818608E-02  0.1120774E+00
         21   -1    0    0  503  502  0.00000000000E+00  0.00000000000E+00  0.98598372909E+02  0.98598372909E+02  0.00000000000E+00 0. -1.
         21   -1    0    0  501  503 -0.00000000000E+00 -0.00000000000E+00 -0.13372707187E+04  0.13372707187E+04  0.00000000000E+00 0. -1.
          6    2    1    2  501    0  0.16029367616E+03  0.34487146147E+02 -0.11616010466E+04  0.11858883381E+04  0.17358206432E+03 0.  0.
         24    2    3    3    0    0  0.22612817552E+02  0.40267502470E+02 -0.30888001446E+03  0.32209167219E+03  0.78761479707E+02 0.  0.
         -6    2    1    2    0  502 -0.16029367616E+03 -0.34487146147E+02 -0.77071299119E+02  0.24998075346E+03  0.17224101163E+03 0.  0.
        -24    2    5    5    0    0 -0.15846836279E+03 -0.73712834561E+01 -0.10819063618E+03  0.20839824611E+03  0.80981833772E+02 0.  0.
          5    1    3    3  501    0  0.13768085861E+03 -0.57803563237E+01 -0.85272103217E+03  0.86379666592E+03  0.47000000000E+01 0. -1.
        -13    1    4    4    0    0  0.42829462839E+01  0.39826095626E+02 -0.29818883211E+03  0.30086714862E+03  0.00000000000E+00 0.  1.
         14    1    4    4    0    0  0.18329871269E+02  0.44140684477E+00 -0.10691182352E+02  0.21224523571E+02  0.00000000000E+00 0. -1.
         -5    1    5    5    0  502 -0.18253133732E+01 -0.27115862691E+02  0.31119337063E+02  0.41582507351E+02  0.47000000000E+01 0.  1.
         13    1    6    6    0    0 -0.75505082443E+02  0.19703451906E+02 -0.90243202078E+02  0.11930246860E+03  0.00000000000E+00 0. -1.
        -14    1    6    6    0    0 -0.82963280344E+02 -0.27074735362E+02 -0.17947434104E+02  0.89095777516E+02  0.00000000000E+00 0.  1.
</event>
<event>
12    1  0.8356052E-002  0.3198064E+03  0.7818608E-02  0.1075907E+00
         21   -1    0    0  503  502  0.00000000000E+00  0.00000000000E+00  0.61467165736E+03  0.61467165736E+03  0.00000000000E+00 0.  1.
         21   -1    0    0  501  503 -0.00000000000E+00 -0.00000000000E+00 -0.21609993849E+03  0.21609993849E+03  0.00000000000E+00 0.  1.
          6    2    1    2  501    0  0.25069670111E+03 -0.10169548596E+03 -0.17958343525E+01  0.31835544745E+03  0.16779796805E+03 0.  0.
         24    2    3    3    0    0  0.15732383161E+03 -0.96587934154E+02  0.52923444097E+02  0.20990790584E+03  0.84737364753E+02 0.  0.
         -6    2    1    2    0  502 -0.25069670111E+03  0.10169548596E+03  0.40036755322E+03  0.51241614841E+03  0.17054419856E+03 0.  0.
        -24    2    5    5    0    0 -0.16472145447E+03  0.18431134677E+02  0.31615438810E+03  0.36599674256E+03  0.80790804900E+02 0.  0.
          5    1    3    3  501    0  0.93372869507E+02 -0.51075518071E+01 -0.54719278449E+02  0.10844754160E+03  0.47000000000E+01 0. -1.
        -13    1    4    4    0    0  0.79075927280E+02 -0.47739964602E+01  0.27831629448E+01  0.79268778932E+02  0.00000000000E+00 0.  1.
         14    1    4    4    0    0  0.78247904326E+02 -0.91813937694E+02  0.50140281152E+02  0.13063912691E+03  0.00000000000E+00 0. -1.
         -5    1    5    5    0  502 -0.85975246646E+02  0.83264351284E+02  0.84213165115E+02  0.14641940585E+03  0.47000000000E+01 0.  1.
         11    1    6    6    0    0 -0.68605632721E+02 -0.10460589819E+02  0.63218077238E+02  0.93875886521E+02  0.00000000000E+00 0. -1.
        -12    1    6    6    0    0 -0.96115821745E+02  0.28891724496E+02  0.25293631087E+03  0.27212085603E+03  0.00000000000E+00 0.  1.
</event>
<event>
12    1  0.8356052E-002  0.1949613E+03  0.7818608E-02  0.1155265E+00
         21   -1    0    0  501  502  0.00000000000E+00  0.00000000000E+00  0.60372443015E+02  0.60372443015E+02  0.00000000000E+00 0. -1.
         21   -1    0    0  502  503 -0.00000000000E+00 -0.00000000000E+00 -0.79844717249E+03  0.79844717249E+03  0.00000000000E+00 0. -1.
         -6    2    1    2    0  503  0.83117527835E+02  0.15858914086E+02 -0.16563317586E+03  0.25582072067E+03  0.17564129238E+03 0.  0.
        -24    2    3    3    0    0  0.28133244163E+02 -0.58545583851E+02 -0.10115675463E+03  0.14295531561E+03  0.77359346163E+02 0.  0.
          6    2    1    2  501    0 -0.83117527835E+02 -0.15858914086E+02 -0.57244155362E+03  0.60299889484E+03  0.16958274169E+03 0.  0.
         24    2    5    5    0    0 -0.59880812781E+02 -0.57339568631E+01 -0.14889393038E+03  0.17866749271E+03  0.78320370565E+02 0.  0.
          5    1    5    5  501    0 -0.23236715053E+02 -0.10124957223E+02 -0.42354762324E+03  0.42433140213E+03  0.47000000000E+01 0. -1.
        -11    1    6    6    0    0 -0.60438045788E+01 -0.35211537844E+02 -0.39726619976E+02  0.53428309966E+02  0.00000000000E+00 0.  1.
         12    1    6    6    0    0 -0.53837008202E+02  0.29477580981E+02 -0.10916731040E+03  0.12523918274E+03  0.00000000000E+00 0. -1.
         -5    1    3    3    0  503  0.54984283672E+02  0.74404497937E+02 -0.64476421233E+02  0.11286540506E+03  0.47000000000E+01 0.  1.
         13    1    4    4    0    0 -0.24451244908E+02 -0.19002062959E+02 -0.14612379481E+02  0.34241253020E+02  0.00000000000E+00 0. -1.
        -14    1    4    4    0    0  0.52584489071E+02 -0.39543520892E+02 -0.86544375146E+02  0.10871406259E+03  0.00000000000E+00 0.  1.
</event>
<event>
12    1  0.8356052E-002  0.1734808E+03  0.7818608E-02  0.1175089E+00
         21   -1    0    0  501  502  0.00000000000E+00  0.00000000000E+00  0.14484329462E+02  0.14484329462E+02  0.00000000000E+00 0. -1.
         21   -1    0    0  502  503 -0.00000000000E+00 -0.00000000000E+00 -0.20955689456E+04  0.20955689456E+04  0.00000000000E+00 0. -1.
         -6    2    1    2    0  503 -0.80104923148E+01 -0.12344807390E+02 -0.12036158951E+04  0.12155998381E+04  0.16963248875E+03 0.  0.
        -24    2    3    3    0    0 -0.57078270868E+02  0.23959192475E+02 -0.91955601112E+03  0.92501811986E+03  0.79014508643E+02 0.  0.
          6    2    1    2  501    0  0.80104923148E+01  0.12344807390E+02 -0.87746872097E+03  0.89445343688E+03  0.17285552408E+03 0.  0.
         24    2    5    5    0    0 -0.32275427631E+02 -0.42354081189E+02 -0.36057052698E+03  0.37308911445E+03  0.79679426245E+02 0.  0.
          5    1    5    5  501    0  0.40285919946E+02  0.54698888579E+02 -0.51689819399E+03  0.52136432243E+03  0.47000000000E+01 0. -1.
        -11    1    6    6    0    0 -0.38094362093E+01 -0.41974232877E+02 -0.74419931534E+02  0.85525868831E+02  0.00000000000E+00 0.  1.
         12    1    6    6    0    0 -0.28465991422E+02 -0.37984831252E+00 -0.28615059545E+03  0.28756324562E+03  0.00000000000E+00 0. -1.
         -5    1    3    3    0  503  0.49067778553E+02 -0.36303999866E+02 -0.28405988401E+03  0.29058171829E+03  0.47000000000E+01 0.  1.
         13    1    4    4    0    0 -0.47112969922E+02  0.41369159056E+02 -0.85774381379E+03  0.86003226065E+03  0.00000000000E+00 0. -1.
        -14    1    4    4    0    0 -0.99653009454E+01 -0.17409966581E+02 -0.61812197327E+02  0.64985859213E+02  0.00000000000E+00 0.  1.
</event>
<event>
12    1  0.8356052E-002  0.1899921E+03  0.7818608E-02  0.1158949E+00
         21   -1    0    0  503  502  0.00000000000E+00  0.00000000000E+00  0.18884475750E+03  0.18884475750E+03  0.00000000000E+00 0. -1.
         21   -1    0    0  501  503 -0.00000000000E+00 -0.00000000000E+00 -0.30174081019E+03  0.30174081019E+03  0.00000000000E+00 0. -1.
          6    2    1    2  501    0  0.57363672615E+02 -0.53871334940E+02 -0.20617024248E+03  0.27893236484E+03  0.17060006919E+03 0.  0.
         24    2    3    3    0    0  0.53990787540E+02 -0.43827756868E+02 -0.40935415969E+02  0.11329152535E+03  0.79519708406E+02 0.  0.
         -6    2    1    2    0  502 -0.57363672615E+02  0.53871334940E+02  0.93274189790E+02  0.21165320284E+03  0.17292857522E+03 0.  0.
        -24    2    5    5    0    0 -0.53844302170E+02  0.71675964311E+02  0.12617955705E+03  0.17378178896E+03  0.79007447885E+02 0.  0.
          5    1    3    3  501    0  0.33728850748E+01 -0.10043578072E+02 -0.16523482651E+03  0.16564083949E+03  0.47000000000E+01 0. -1.
        -11    1    4    4    0    0 -0.10417017481E+02 -0.14509258715E+01  0.14800263880E+02  0.18156741172E+02  0.00000000000E+00 0.  1.
         12    1    4    4    0    0  0.64407805020E+02 -0.42376830996E+02 -0.55735679849E+02  0.95134784181E+02  0.00000000000E+00 0. -1.
         -5    1    5    5    0  502 -0.35193704449E+01 -0.17804629371E+02 -0.32905367255E+02  0.37871413884E+02  0.47000000000E+01 0.  1.
         11    1    6    6    0    0 -0.16202475552E+01  0.11085530432E+01  0.68965910994E+02  0.68993847343E+02  0.00000000000E+00 0. -1.
        -12    1    6    6    0    0 -0.52224054614E+02  0.70567411267E+02  0.57213646052E+02  0.10478794161E+03  0.00000000000E+00 0.  1.
</event>
<event>
12    1  0.8356052E-002  0.2218226E+03  0.7818608E-02  0.1132896E+00
         21   -1    0    0  501  502  0.00000000000E+00  0.00000000000E+00  0.39884023425E+03  0.39884023425E+03  0.00000000000E+00 0. -1.
         21   -1    0    0  502  503 -0.00000000000E+00 -0.00000000000E+00 -0.10911177499E+04  0.10911177499E+04  0.00000000000E+00 0.  1.
         -6    2    1    2    0  503  0.11763910428E+03 -0.74049301323E+02 -0.10479602048E+04  0.10707737399E+04  0.17033365318E+03 0.  0.
        -24    2    3    3    0    0  0.11620259090E+03  0.58918476030E+01 -0.66817834786E+03  0.68263845459E+03  0.77428671342E+02 0.  0.
          6    2    1    2  501    0 -0.11763910428E+03  0.74049301323E+02  0.35568268919E+03  0.41918424417E+03  0.17286699307E+03 0.  0.
         24    2    5    5    0    0 -0.30512520014E+02 -0.75578768838E+01  0.23097339618E+03  0.24648429923E+03  0.80110327941E+02 0.  0.
          5    1    5    5  501    0 -0.87126584265E+02  0.81607178207E+02  0.12470929300E+03  0.17269994494E+03  0.47000000000E+01 0. -1.
        -11    1    6    6    0    0 -0.85087315023E+00 -0.81588832187E+01 -0.43588949559E+01  0.92893124466E+01  0.00000000000E+00 0.  1.
         12    1    6    6    0    0 -0.29661646864E+02  0.60100633484E+00  0.23533229114E+03  0.23719498679E+03  0.00000000000E+00 0. -1.
         -5    1    3    3    0  503  0.14365133796E+01 -0.79941148926E+02 -0.37978185695E+03  0.38813528534E+03  0.47000000000E+01 0.  1.
         13    1    4    4    0    0  0.22490590825E+02 -0.21549987712E+02 -0.71038216718E+02  0.77567112107E+02  0.00000000000E+00 0. -1.
        -14    1    4    4    0    0  0.93712000074E+02  0.27441835315E+02 -0.59714013114E+03  0.60507134249E+03  0.00000000000E+00 0.  1.
</event>
<event>
12    1  0.8356052E-002  0.2200046E+03  0.7818608E-02  0.1135209E+00
         21   -1    0    0  503  502  0.00000000000E+00  0.00000000000E+00  0.34959911145E+03  0.34959911145E+03  0.00000000000E+00 0.  1.
         21   -1    0    0  501  503 -0.00000000000E+00 -0.00000000000E+00 -0.13498206322E+03  0.13498206322E+03  0.00000000000E+00 0. -1.
          6    2    1    2  501    0  0.55846840990E+01 -0.13615332469E+03  0.12547068282E+03  0.24720156421E+03  0.16369729558E+03 0.  0.
         24    2    3    3    0    0 -0.95494774744E+01 -0.41339128469E+02  0.11991520496E+03  0.15091175174E+03  0.81207046305E+02 0.  0.
         -6    2    1    2    0  502 -0.55846840990E+01  0.13615332469E+03  0.89146365405E+02  0.23737961045E+03  0.17272257662E+03 0.  0.
        -24    2    5    5    0    0 -0.33836626456E+02  0.12084079381E+03  0.74890733026E+01  0.14950100553E+03  0.80913841211E+02 0.  0.
          5    1    3    3  501    0  0.15134161573E+02 -0.94814196225E+02  0.55554778572E+01  0.96289812475E+02  0.47000000000E+01 0. -1.
        -13    1    4    4    0    0 -0.33880850415E+02 -0.38958756309E+02  0.11488314731E+03  0.12595171398E+03  0.00000000000E+00 0.  1.
         14    1    4    4    0    0  0.24331372941E+02 -0.23803721596E+01  0.50320576492E+01  0.24960037760E+02  0.00000000000E+00 0. -1.
         -5    1    5    5    0  502  0.28251942357E+02  0.15312530888E+02  0.81657292103E+02  0.87878604920E+02  0.47000000000E+01 0.  1.
         11    1    6    6    0    0 -0.57898693991E+02  0.10526088248E+03  0.11324297164E+01  0.12013906335E+03  0.00000000000E+00 0. -1.
        -12    1    6    6    0    0  0.24062067536E+02  0.15579911327E+02  0.63566435863E+01  0.29361942183E+02  0.00000000000E+00 0.  1.
</event>
<event>
12    1  0.8356052E-002  0.1986139E+03  0.7818608E-02  0.1151022E+00
         21   -1    0    0  501  502  0.00000000000E+00  0.00000000000E+00  0.17776237444E+03  0.17776237444E+03  0.00000000000E+00 0. -1.
         21   -1    0    0  502  503 -0.00000000000E+00 -0.00000000000E+00 -0.22782545871E+03  0.22782545871E+03  0.00000000000E+00 0. -1.
         -6    2    1    2    0  503 -0.95138370938E+02  0.24878790558E+02 -0.59263617227E+02  0.20726716184E+03  0.17256081886E+03 0.  0.
        -24    2    3    3    0    0 -0.85528693108E+02 -0.41524978553E+02 -0.11864857892E+02  0.12498387771E+03  0.80254056882E+02 0.  0.
          6    2    1    2  501    0  0.95138370938E+02 -0.24878790558E+02  0.92005329629E+01  0.19832067132E+03  0.17197725146E+03 0.  0.
         24    2    5    5    0    0  0.12858667322E+03 -0.52898229923E+01 -0.15277297035E+02  0.15223628419E+03  0.79874749838E+02 0.  0.
          5    1    5    5  501    0 -0.33448302281E+02 -0.19588967565E+02  0.24477829998E+02  0.46084387130E+02  0.47000000000E+01 0. -1.
        -11    1    6    6    0    0  0.24406069663E+02  0.32453837527E+02 -0.59019349339E+01  0.41033408859E+02  0.00000000000E+00 0.  1.
         12    1    6    6    0    0  0.10418060356E+03 -0.37743660520E+02 -0.93753621012E+01  0.11120287533E+03  0.00000000000E+00 0. -1.
         -5    1    3    3    0  503 -0.96096778303E+01  0.66403769111E+02 -0.47398759334E+02  0.82283284126E+02  0.47000000000E+01 0.  1.
         11    1    4    4    0    0 -0.35102873051E+02  0.16963329360E+02  0.17012095754E+02  0.42536779866E+02  0.00000000000E+00 0. -1.
        -12    1    4    4    0    0 -0.50425820057E+02 -0.58488307913E+02 -0.28876953646E+02  0.82447097844E+02  0.00000000000E+00 0.  1.
</event>
<event>
12    1  0.8356052E-002  0.1980159E+03  0.7818608E-02  0.1152681E+00
         21   -1    0    0  503  502  0.00000000000E+00  0.00000000000E+00  0.10988727478E+04  0.10988727478E+04  0.00000000000E+00 0. -1.
         21   -1    0    0  501  503 -0.00000000000E+00 -0.00000000000E+00 -0.82085895260E+02  0.82085895260E+02  0.00000000000E+00 0. -1.
          6    2    1    2  501    0 -0.35701563215E+02  0.80539624014E+02  0.56337846698E+02  0.20030958220E+03  0.17084713371E+03 0.  0.
         24    2    3    3    0    0 -0.61796591336E+02  0.33672289333E+02  0.86611070615E+02  0.13853535101E+03  0.82084859485E+02 0.  0.
         -6    2    1    2    0  502  0.35701563215E+02 -0.80539624014E+02  0.96044900585E+03  0.98064906087E+03  0.17733881441E+03 0.  0.
        -24    2    5    5    0    0  0.78660041003E+02 -0.83055489648E+02  0.53927663502E+03  0.55725796939E+03  0.81434261583E+02 0.  0.
          5    1    3    3  501    0  0.26095028120E+02  0.46867334681E+02 -0.30273223917E+02  0.61774231189E+02  0.47000000000E+01 0. -1.
        -11    1    4    4    0    0 -0.54104223975E+02  0.86760172964E+01  0.76143399850E+01  0.55321953161E+02  0.00000000000E+00 0.  1.
         12    1    4    4    0    0 -0.76923673601E+01  0.24996272037E+02  0.78996730630E+02  0.83213397849E+02  0.00000000000E+00 0. -1.
         -5    1    5    5    0  502 -0.42958477788E+02  0.25158656344E+01  0.42117237083E+03  0.42339109148E+03  0.47000000000E+01 0.  1.
         11    1    6    6    0    0  0.80083820014E+02 -0.77223291988E+02  0.53988076329E+03  0.55122417729E+03  0.00000000000E+00 0. -1.
        -12    1    6    6    0    0 -0.14237790112E+01 -0.58321976607E+01 -0.60412826815E+00  0.60337921070E+01  0.00000000000E+00 0.  1.
</event>
<event>
12    1  0.8356052E-002  0.1994588E+03  0.7818608E-02  0.1150980E+00
         21   -1    0    0  503  502  0.00000000000E+00  0.00000000000E+00  0.30683628305E+02  0.30683628305E+02  0.00000000000E+00 0. -1.
         21   -1    0    0  501  503 -0.00000000000E+00 -0.00000000000E+00 -0.14018767723E+04  0.14018767723E+04  0.00000000000E+00 0. -1.
          6    2    1    2  501    0 -0.15683361079E+02  0.93339536075E+02 -0.89711168417E+03  0.91822873391E+03  0.17139544072E+03 0.  0.
         24    2    3    3    0    0 -0.66093155867E+02  0.32069940963E+02 -0.63642869499E+03  0.64569832911E+03  0.80548507375E+02 0.  0.
         -6    2    1    2    0  502  0.15683361079E+02 -0.93339536075E+02 -0.47408145983E+03  0.51433166670E+03  0.17557219598E+03 0.  0.
        -24    2    5    5    0    0 -0.57362434218E+02 -0.26975194739E+02 -0.22820111730E+03  0.24934271060E+03  0.77961063362E+02 0.  0.
          5    1    3    3  501    0  0.50409794788E+02  0.61269595112E+02 -0.26068298918E+03  0.27253040480E+03  0.47000000000E+01 0. -1.
        -13    1    4    4    0    0 -0.49372988429E+02  0.11934584753E+02 -0.14622124781E+03  0.15479269883E+03  0.00000000000E+00 0.  1.
         14    1    4    4    0    0 -0.16720167438E+02  0.20135356210E+02 -0.49020744718E+03  0.49090563028E+03  0.00000000000E+00 0. -1.
         -5    1    5    5    0  502  0.73045795297E+02 -0.66364341336E+02 -0.24588034253E+03  0.26498895610E+03  0.47000000000E+01 0.  1.
         11    1    6    6    0    0  0.27823049017E+01 -0.34723939829E+02 -0.48711829930E+02  0.59886021682E+02  0.00000000000E+00 0. -1.
        -12    1    6    6    0    0 -0.60144739119E+02  0.77487450898E+01 -0.17948928737E+03  0.18945668892E+03  0.00000000000E+00 0.  1.
</event>
<event>
12    1  0.8356052E-002  0.2277136E+03  0.7818608E-02  0.1128441E+00
         21   -1    0    0  503  502  0.00000000000E+00  0.00000000000E+00  0.31933622876E+03  0.31933622876E+03  0.00000000000E+00 0.  1.
         21   -1    0    0  501  503 -0.00000000000E+00 -0.00000000000E+00 -0.20895170700E+03  0.20895170700E+03  0.00000000000E+00 0. -1.
          6    2    1    2  501    0 -0.11914642632E+03 -0.91744871111E+02 -0.70381361106E+02  0.23834220826E+03  0.17099847942E+03 0.  0.
         24    2    3    3    0    0 -0.10759660246E+03 -0.80607925347E+02  0.98618215602E+01  0.15637582273E+03  0.79255762686E+02 0.  0.
         -6    2    1    2    0  502  0.11914642632E+03  0.91744871111E+02  0.18076588287E+03  0.28994572750E+03  0.16964441695E+03 0.  0.
        -24    2    5    5    0    0  0.90239108196E+01  0.12181213912E+02  0.26816012443E+02  0.84568035008E+02  0.78758117568E+02 0.  0.
          5    1    3    3  501    0 -0.11549823861E+02 -0.11136945765E+02 -0.80243182666E+02  0.81966385529E+02  0.47000000000E+01 0. -1.
        -13    1    4    4    0    0 -0.90702579896E+02 -0.20710622543E+02  0.13617953826E+02  0.94028381632E+02  0.00000000000E+00 0.  1.
         14    1    4    4    0    0 -0.16894022568E+02 -0.59897302803E+02 -0.37561322660E+01  0.62347441096E+02  0.00000000000E+00 0. -1.
         -5    1    5    5    0  502  0.11012251551E+03  0.79563657200E+02  0.15394987043E+03  0.20537769249E+03  0.47000000000E+01 0.  1.
         11    1    6    6    0    0  0.29148253206E+02 -0.24545888489E+02  0.15890361287E+02  0.41287103174E+02  0.00000000000E+00 0. -1.
        -12    1    6    6    0    0 -0.20124342386E+02  0.36727102400E+02  0.10925651156E+02  0.43280931834E+02  0.00000000000E+00 0.  1.
</event>
<event>
12    1  0.8356052E-002  0.2329227E+03  0.7818608E-02  0.1124713E+00
         21   -1    0    0  501  502  0.00000000000E+00  0.00000000000E+00  0.25920312922E+03  0.25920312922E+03  0.00000000000E+00 0.  1.
         21   -1    0    0  502  503 -0.00000000000E+00 -0.00000000000E+00 -0.22395202229E+03  0.22395202229E+03  0.00000000000E+00 0.  1.
         -6    2    1    2    0  503  0.14872406071E+03  0.51789307831E+02 -0.45399986397E+02  0.23666457308E+03  0.17072780308E+03 0.  0.
        -24    2    3    3    0    0  0.19627288209E+02  0.71499569577E+01  0.20986966551E+02  0.84717326183E+02  0.79373926850E+02 0.  0.
          6    2    1    2  501    0 -0.14872406071E+03 -0.51789307831E+02  0.80651093324E+02  0.24649057843E+03  0.17161593096E+03 0.  0.
         24    2    5    5    0    0 -0.67367053188E+02 -0.14130694349E+02 -0.25081848509E+02  0.10778701383E+03  0.79062917024E+02 0.  0.
          5    1    5    5  501    0 -0.81357007525E+02 -0.37658613482E+02  0.10573294183E+03  0.13870356459E+03  0.47000000000E+01 0. -1.
        -11    1    6    6    0    0  0.55180147067E+01 -0.21706925528E+02  0.12270644265E+02  0.25538359636E+02  0.00000000000E+00 0.  1.
         12    1    6    6    0    0 -0.72885067894E+02  0.75762311791E+01 -0.37352492773E+02  0.82248654197E+02  0.00000000000E+00 0. -1.
         -5    1    3    3    0  503  0.12909677250E+03  0.44639350873E+02 -0.66386952948E+02  0.15194724689E+03  0.47000000000E+01 0.  1.
         11    1    4    4    0    0  0.90094553442E+01 -0.34822261341E+02  0.20540385718E+02  0.41420618247E+02  0.00000000000E+00 0. -1.
        -12    1    4    4    0    0  0.10617832864E+02  0.41972218299E+02  0.44658083332E+00  0.43296707936E+02  0.00000000000E+00 0.  1.
</event>
<event>
12    1  0.8356052E-002  0.2003314E+03  0.7818608E-02  0.1150996E+00
         21   -1    0    0  501  502  0.00000000000E+00  0.00000000000E+00  0.18885379145E+03  0.18885379145E+03  0.00000000000E+00 0. -1.
         21   -1    0    0  502  503 -0.00000000000E+00 -0.00000000000E+00 -0.30442745169E+03  0.30442745169E+03  0.00000000000E+00 0. -1.
         -6    2    1    2    0  503  0.86534984104E+02  0.55813579859E+01 -0.19802956126E+03  0.27664410181E+03  0.17261748725E+03 0.  0.
        -24    2    3    3    0    0  0.13522756543E+02  0.56948291745E+02 -0.80147160275E+02  0.12869918734E+03  0.81938639507E+02 0.  0.
          6    2    1    2  501    0 -0.86534984104E+02 -0.55813579859E+01  0.82455901021E+02  0.21663714133E+03  0.18059130754E+03 0.  0.
         24    2    5    5    0    0  0.25762514192E+02 -0.14022980527E+02  0.23924513881E+02  0.89633194953E+02  0.81248853239E+02 0.  0.
          5    1    5    5  501    0 -0.11229749830E+03  0.84416225408E+01  0.58531387140E+02  0.12700394638E+03  0.47000000000E+01 0. -1.
        -13    1    6    6    0    0  0.42888596560E+01 -0.95202159593E+01 -0.29813249979E+02  0.31588901585E+02  0.00000000000E+00 0.  1.
         14    1    6    6    0    0  0.21473654536E+02 -0.45027645673E+01  0.53737763860E+02  0.58044293368E+02  0.00000000000E+00 0. -1.
         -5    1    3    3    0  503  0.73012227560E+02 -0.51366933759E+02 -0.11788240098E+03  0.14794491447E+03  0.47000000000E+01 0.  1.
         11    1    4    4    0    0  0.28177669336E+02  0.41736120739E+02 -0.91704495192E+02  0.10462121803E+03  0.00000000000E+00 0. -1.
        -12    1    4    4    0    0 -0.14654912793E+02  0.15212171006E+02  0.11557334917E+02  0.24077969309E+02  0.00000000000E+00 0.  1.
</event>
<event>
12    1  0.8356052E-002  0.2588969E+03  0.7818608E-02  0.1108014E+00
         21   -1    0    0  503  502  0.00000000000E+00  0.00000000000E+00  0.41146935084E+03  0.41146935084E+03  0.00000000000E+00 0.  1.
         21   -1    0    0  501  503 -0.00000000000E+00 -0.00000000000E+00 -0.18419282351E+03  0.18419282351E+03  0.00000000000E+00 0. -1.
          6    2    1    2  501    0  0.22727364987E+02 -0.19601111760E+03  0.10095213280E+02  0.25773416467E+03  0.16549348920E+03 0.  0.
         24    2    3    3    0    0  0.29860902482E+02 -0.20519030123E+03 -0.22446746158E+02  0.22285990635E+03  0.78536286082E+02 0.  0.
         -6    2    1    2    0  502 -0.22727364987E+02  0.19601111760E+03  0.21718131405E+03  0.33792800967E+03  0.16760287947E+03 0.  0.
        -24    2    5    5    0    0 -0.22377807046E+02  0.43233629345E+02  0.44284927656E+02  0.10715467166E+03  0.84563915989E+02 0.  0.
          5    1    3    3  501    0 -0.71335374951E+01  0.91791836303E+01  0.32541959438E+02  0.34874258320E+02  0.47000000000E+01 0. -1.
        -11    1    4    4    0    0  0.22495092203E+02 -0.84209820703E+01  0.34169350611E+01  0.24261441784E+02  0.00000000000E+00 0.  1.
         12    1    4    4    0    0  0.73658102796E+01 -0.19676931916E+03 -0.25863681219E+02  0.19859846457E+03  0.00000000000E+00 0. -1.
         -5    1    5    5    0  502 -0.34955794107E+00  0.15277748825E+03  0.17289638640E+03  0.23077333801E+03  0.47000000000E+01 0.  1.
         13    1    6    6    0    0  0.21068994327E+01  0.33392840270E+02  0.65331514409E+02  0.73401141554E+02  0.00000000000E+00 0. -1.
        -14    1    6    6    0    0 -0.24484706479E+02  0.98407890756E+01 -0.21046586752E+02  0.33753530110E+02  0.00000000000E+00 0.  1.
</event>
<event>
12    1  0.8356052E-002  0.1903269E+03  0.7818608E-02  0.1158347E+00
         21   -1    0    0  503  502  0.00000000000E+00  0.00000000000E+00  0.11315303238E+04  0.11315303238E+04  0.00000000000E+00 0.  1.
         21   -1    0    0  501  503 -0.00000000000E+00 -0.00000000000E+00 -0.38527853740E+03  0.38527853740E+03  0.00000000000E+00 0.  1.
          6    2    1    2  501    0  0.36472273017E+02 -0.71703843334E+02 -0.35315957341E+03  0.40118077797E+03  0.17248960685E+03 0.  0.
         24    2    3    3    0    0  0.37688576471E+00 -0.10833333957E+03 -0.29552345914E+03  0.32379467687E+03  0.75977782014E+02 0.  0.
         -6    2    1    2    0  502 -0.36472273017E+02  0.71703843334E+02  0.10994113598E+04  0.11156280832E+04  0.17160715070E+03 0.  0.
        -24    2    5    5    0    0 -0.74501699545E+02  0.49667506825E+02  0.48122703801E+03  0.49586540033E+03  0.79282208949E+02 0.  0.
          5    1    3    3  501    0  0.36095387252E+02  0.36629496240E+02 -0.57636114274E+02  0.77386101105E+02  0.47000000000E+01 0. -1.
        -11    1    4    4    0    0 -0.33492662149E+02 -0.44187753034E+02 -0.17006337798E+03  0.17887388984E+03  0.00000000000E+00 0.  1.
         12    1    4    4    0    0  0.33869547914E+02 -0.64145586540E+02 -0.12546008116E+03  0.14492078703E+03  0.00000000000E+00 0. -1.
         -5    1    5    5    0  502  0.38029426528E+02  0.22036336508E+02  0.61818432178E+03  0.61976268289E+03  0.47000000000E+01 0.  1.
         13    1    6    6    0    0  0.53529526812E+01  0.23315028796E+02  0.39291601115E+02  0.46000810735E+02  0.00000000000E+00 0. -1.
        -14    1    6    6    0    0 -0.79854652227E+02  0.26352478029E+02  0.44193543690E+03  0.44986458959E+03  0.00000000000E+00 0.  1.
</event>
<event>
12    1  0.8356052E-002  0.1894206E+03  0.7818608E-02  0.1159748E+00
         21   -1    0    0  503  502  0.00000000000E+00  0.00000000000E+00  0.31315870363E+02  0.31315870363E+02  0.00000000000E+00 0.  1.
         21   -1    0    0  501  503 -0.00000000000E+00 -0.00000000000E+00 -0.19286561376E+04  0.19286561376E+04  0.00000000000E+00 0.  1.
          6    2    1    2  501    0  0.67530430363E+02  0.22903035547E+02 -0.15760776997E+04  0.15870245792E+04  0.17187551128E+03 0.  0.
         24    2    3    3    0    0  0.92426675190E+02  0.63446742531E+02 -0.12349834574E+04  0.12425960854E+04  0.79326616193E+02 0.  0.
         -6    2    1    2    0  502 -0.67530430363E+02 -0.22903035547E+02 -0.32126256752E+03  0.37294742876E+03  0.17548572383E+03 0.  0.
        -24    2    5    5    0    0 -0.10359859046E+03 -0.52911897573E+02 -0.24092379111E+03  0.27979243444E+03  0.81897474904E+02 0.  0.
          5    1    3    3  501    0 -0.24896244828E+02 -0.40543706984E+02 -0.34109424232E+03  0.34442849378E+03  0.47000000000E+01 0. -1.
        -11    1    4    4    0    0  0.28001868058E+02  0.16538444421E+02 -0.10779310711E+03  0.11259208986E+03  0.00000000000E+00 0.  1.
         12    1    4    4    0    0  0.64424807133E+02  0.46908298110E+02 -0.11271903503E+04  0.11300039955E+04  0.00000000000E+00 0. -1.
         -5    1    5    5    0  502  0.36068160095E+02  0.30008862026E+02 -0.80338776405E+02  0.93154994321E+02  0.47000000000E+01 0.  1.
         11    1    6    6    0    0 -0.20997281627E+02  0.19538423731E+02 -0.27439471175E+02  0.39693329616E+02  0.00000000000E+00 0. -1.
        -12    1    6    6    0    0 -0.82601308831E+02 -0.72450321304E+02 -0.21348431994E+03  0.24009910482E+03  0.00000000000E+00 0.  1.
</event>
<event>
12    1  0.8356052E-002  0.2342527E+03  0.7818608E-02  0.1123999E+00
         21   -1    0    0  503  502  0.00000000000E+00  0.00000000000E+00  0.19089177726E+03  0.19089177726E+03  0.00000000000E+00 0. -1.
         21   -1    0    0  501  503 -0.00000000000E+00 -0.00000000000E+00 -0.98283830989E+03  0.98283830989E+03  0.00000000000E+00 0.  1.
          6    2    1    2  501    0 -0.12985327778E+03  0.86492532117E+02 -0.89085745895E+03  0.92114131429E+03  0.17473258670E+03 0.  0.
         24    2    3    3    0    0 -0.61024133661E+02  0.68818695799E+02 -0.26774934059E+03  0.29397655704E+03  0.79199424999E+02 0.  0.
         -6    2    1    2    0  502  0.12985327778E+03 -0.86492532117E+02  0.98910926331E+02  0.25258877286E+03  0.17226399788E+03 0.  0.
        -24    2    5    5    0    0  0.11322935193E+03 -0.28779855482E+02  0.11897389572E+03  0.18909294075E+03  0.89175031023E+02 0.  0.
          5    1    3    3  501    0 -0.68829144116E+02  0.17673836318E+02 -0.62310811836E+03  0.62716475725E+03  0.47000000000E+01 0. -1.
        -13    1    4    4    0    0 -0.13834207362E+02  0.32330733469E+01 -0.15286924957E+03  0.15352799589E+03  0.00000000000E+00 0.  1.
         14    1    4    4    0    0 -0.47189926299E+02  0.65585622452E+02 -0.11488009102E+03  0.14044856115E+03  0.00000000000E+00 0. -1.
         -5    1    5    5    0  502  0.16623925842E+02 -0.57712676634E+02 -0.20062969387E+02  0.63495832110E+02  0.47000000000E+01 0.  1.
         11    1    6    6    0    0  0.17446762768E+02  0.26002551813E+02  0.49908009384E+02  0.58918007711E+02  0.00000000000E+00 0. -1.
        -12    1    6    6    0    0  0.95782589167E+02 -0.54782407296E+02  0.69065886333E+02  0.13017493304E+03  0.00000000000E+00 0.  1.
</event>
<event>
12    1  0.8356052E-002  0.1800181E+03  0.7818608E-02  0.1169343E+00
         21   -1    0    0  501  502  0.00000000000E+00  0.00000000000E+00  0.32116254760E+02  0.32116254760E+02  0.00000000000E+00 0. -1.
         21   -1    0    0  502  503 -0.00000000000E+00 -0.00000000000E+00 -0.10278042661E+04  0.10278042661E+04  0.00000000000E+00 0. -1.
         -6    2    1    2    0  503  0.46054788107E+02  0.12391885393E+02 -0.62755931958E+03  0.65286845287E+03  0.17358546840E+03 0.  0.
        -24    2    3    3    0    0  0.61497350523E+02  0.30693949114E+01 -0.62194873664E+03  0.63340180951E+03  0.10288963011E+03 0.  0.
          6    2    1    2  501    0 -0.46054788107E+02 -0.12391885393E+02 -0.36812869173E+03  0.40705206795E+03  0.16702709367E+03 0.  0.
         24    2    5    5    0    0 -0.91392834817E+02  0.44242338441E+00 -0.27312384382E+03  0.30089996440E+03  0.87128115561E+02 0.  0.
          5    1    5    5  501    0  0.45338046710E+02 -0.12834308778E+02 -0.95004847910E+02  0.10615210355E+03  0.47000000000E+01 0. -1.
        -11    1    6    6    0    0 -0.14801093022E+02  0.14496493728E+02 -0.44783097849E+01  0.21196130392E+02  0.00000000000E+00 0.  1.
         12    1    6    6    0    0 -0.76591741795E+02 -0.14054070344E+02 -0.26864553403E+03  0.27970383401E+03  0.00000000000E+00 0. -1.
         -5    1    3    3    0  503 -0.15442562416E+02  0.93224904821E+01 -0.56105829400E+01  0.19466643360E+02  0.47000000000E+01 0.  1.
         13    1    4    4    0    0  0.19118602899E+02 -0.84301531791E+01 -0.17206802677E+02  0.27067739429E+02  0.00000000000E+00 0. -1.
        -14    1    4    4    0    0  0.42378747625E+02  0.11499548090E+02 -0.60474193396E+03  0.60633407008E+03  0.00000000000E+00 0.  1.
</event>
<event>
12    1  0.8356052E-002  0.1756849E+03  0.7818608E-02  0.1172910E+00
         21   -1    0    0  501  502  0.00000000000E+00  0.00000000000E+00  0.11241719993E+03  0.11241719993E+03  0.00000000000E+00 0.  1.
         21   -1    0    0  502  503 -0.00000000000E+00 -0.00000000000E+00 -0.43032365793E+03  0.43032365793E+03  0.00000000000E+00 0.  1.
         -6    2    1    2    0  503  0.39204827396E+01 -0.33445166191E+02 -0.32400325072E+03  0.36695017419E+03  0.16893896690E+03 0.  0.
        -24    2    3    3    0    0 -0.45854376914E+02  0.98272940017E+01 -0.11397912820E+03  0.14676328879E+03  0.79680748495E+02 0.  0.
          6    2    1    2  501    0 -0.39204827396E+01  0.33445166191E+02  0.60967927181E+01  0.17579068366E+03  0.17242750435E+03 0.  0.
         24    2    5    5    0    0  0.60818247449E+02  0.33757552338E+02  0.19140453486E+02  0.10958322292E+03  0.82484508994E+02 0.  0.
          5    1    5    5  501    0 -0.64738730188E+02 -0.31238614611E+00 -0.13043660768E+02  0.66207460741E+02  0.47000000000E+01 0. -1.
        -13    1    6    6    0    0  0.11111066373E+02 -0.27092861582E+02  0.38110936876E+01  0.29529703347E+02  0.00000000000E+00 0.  1.
         14    1    6    6    0    0  0.49707181076E+02  0.60850413920E+02  0.15329359798E+02  0.80053519576E+02  0.00000000000E+00 0. -1.
         -5    1    3    3    0  503  0.49774859654E+02 -0.43272460193E+02 -0.21002412252E+03  0.22018688540E+03  0.47000000000E+01 0.  1.
         13    1    4    4    0    0 -0.27921942568E+02  0.18550921505E+02 -0.26114259045E+01  0.33624263720E+02  0.00000000000E+00 0. -1.
        -14    1    4    4    0    0 -0.17932434346E+02 -0.87236275037E+01 -0.11136770230E+03  0.11313902507E+03  0.00000000000E+00 0.  1.
</event>
<event>
12    1  0.8356052E-002  0.2104683E+03  0.7818608E-02  0.1141513E+00
         21   -1    0    0  501  502  0.00000000000E+00  0.00000000000E+00  0.12350684187E+03  0.12350684187E+03  0.00000000000E+00 0. -1.
         21   -1    0    0  502  503 -0.00000000000E+00 -0.00000000000E+00 -0.45214706483E+03  0.45214706483E+03  0.00000000000E+00 0. -1.
         -6    2    1    2    0  503  0.11704842366E+03 -0.25439478724E+02 -0.32044251386E+02  0.21289372413E+03  0.17305895865E+03 0.  0.
        -24    2    3    3    0    0  0.13365389591E+03 -0.14649404843E+02  0.18612296025E+02  0.15830120451E+03  0.81454802384E+02 0.  0.
          6    2    1    2  501    0 -0.11704842366E+03  0.25439478724E+02 -0.29659597158E+03  0.36276018257E+03  0.17110896862E+03 0.  0.
         24    2    5    5    0    0  0.60458015965E+01  0.14225433897E+02 -0.10949972543E+03  0.13847233534E+03  0.83339565028E+02 0.  0.
          5    1    5    5  501    0 -0.12309422525E+03  0.11214044827E+02 -0.18709624615E+03  0.22428784723E+03  0.47000000000E+01 0. -1.
        -11    1    6    6    0    0 -0.44138695273E+01 -0.15496073816E+01  0.13364061602E+02  0.14159154980E+02  0.00000000000E+00 0.  1.
         12    1    6    6    0    0  0.10459671124E+02  0.15775041279E+02 -0.12286378703E+03  0.12431318036E+03  0.00000000000E+00 0. -1.
         -5    1    3    3    0  503 -0.16605472250E+02 -0.10790073881E+02 -0.50656547411E+02  0.54592519622E+02  0.47000000000E+01 0.  1.
         13    1    4    4    0    0  0.10709835878E+03 -0.33634237088E+02 -0.12818956472E+02  0.11298515833E+03  0.00000000000E+00 0. -1.
        -14    1    4    4    0    0  0.26555537127E+02  0.18984832245E+02  0.31431252497E+02  0.45316046176E+02  0.00000000000E+00 0.  1.
</event>
<event>
12    1  0.8356052E-002  0.2010801E+03  0.7818608E-02  0.1149225E+00
         21   -1    0    0  503  502  0.00000000000E+00  0.00000000000E+00  0.33013566805E+03  0.33013566805E+03  0.00000000000E+00 0.  1.
         21   -1    0    0  501  503 -0.00000000000E+00 -0.00000000000E+00 -0.19827025843E+03  0.19827025843E+03  0.00000000000E+00 0.  1.
          6    2    1    2  501    0 -0.63065141793E+02  0.79221387187E+02 -0.98452616039E+02  0.22388866415E+03  0.17372384992E+03 0.  0.
         24    2    3    3    0    0 -0.36346203923E+02  0.62933460530E+01 -0.11412238377E+03  0.14451592043E+03  0.80624314171E+02 0.  0.
         -6    2    1    2    0  502  0.63065141793E+02 -0.79221387187E+02  0.23031802566E+03  0.30451726234E+03  0.17155503438E+03 0.  0.
        -24    2    5    5    0    0  0.69917150421E+02 -0.11856577944E+03  0.18055861542E+03  0.24054054680E+03  0.79448656834E+02 0.  0.
          5    1    3    3  501    0 -0.26718937870E+02  0.72928041134E+02  0.15669767734E+02  0.79372743718E+02  0.47000000000E+01 0. -1.
        -11    1    4    4    0    0  0.13491465001E+02 -0.20754322437E+02 -0.64782528250E+02  0.69350829080E+02  0.00000000000E+00 0.  1.
         12    1    4    4    0    0 -0.49837668925E+02  0.27047668490E+02 -0.49339855524E+02  0.75165091351E+02  0.00000000000E+00 0. -1.
         -5    1    5    5    0  502 -0.68520086273E+01  0.39344392254E+02  0.49759410238E+02  0.63976715540E+02  0.47000000000E+01 0.  1.
         11    1    6    6    0    0 -0.27588348904E+01 -0.72391222856E+02  0.90830527445E+02  0.11618212011E+03  0.00000000000E+00 0. -1.
        -12    1    6    6    0    0  0.72675985311E+02 -0.46174556585E+02  0.89728087976E+02  0.12435842669E+03  0.00000000000E+00 0.  1.
</event>
<event>
12    1  0.8356052E-002  0.1900255E+03  0.7818608E-02  0.1158996E+00
         21   -1    0    0  503  502  0.00000000000E+00  0.00000000000E+00  0.47111272635E+03  0.47111272635E+03  0.00000000000E+00 0.  1.
         21   -1    0    0  501  503 -0.00000000000E+00 -0.00000000000E+00 -0.80605568538E+02  0.80605568538E+02  0.00000000000E+00 0.  1.
          6    2    1    2  501    0  0.78843749751E+02  0.12618337725E+02  0.12573528981E+03  0.22581367554E+03  0.16972593684E+03 0.  0.
         24    2    3    3    0    0  0.45826164007E+02  0.18589270587E+02 -0.89274417126E+00  0.94731403674E+02  0.80793833683E+02 0.  0.
         -6    2    1    2    0  502 -0.78843749751E+02 -0.12618337725E+02  0.26477186800E+03  0.32590461935E+03  0.17243584171E+03 0.  0.
        -24    2    5    5    0    0 -0.43011734755E+02  0.37715346645E+02  0.64363354962E+02  0.11613551967E+03  0.77925353819E+02 0.  0.
          5    1    3    3  501    0  0.33017585743E+02 -0.59709328629E+01  0.12662803398E+03  0.13108227187E+03  0.47000000000E+01 0. -1.
        -13    1    4    4    0    0 -0.18352053122E+02  0.13708200335E+02 -0.16829268364E+02  0.28424230577E+02  0.00000000000E+00 0.  1.
         14    1    4    4    0    0  0.64178217130E+02  0.48810702526E+01  0.15936524193E+02  0.66307173097E+02  0.00000000000E+00 0. -1.
         -5    1    5    5    0  502 -0.35832014996E+02 -0.50333684370E+02  0.20040851304E+03  0.20976909968E+03  0.47000000000E+01 0.  1.
         13    1    6    6    0    0 -0.64985927961E+02  0.36660277120E+02  0.51341618787E+02  0.90571013968E+02  0.00000000000E+00 0. -1.
        -14    1    6    6    0    0  0.21974193206E+02  0.10550695251E+01  0.13021736176E+02  0.25564505702E+02  0.00000000000E+00 0.  1.
</event>
<event>
12    1  0.8356052E-002  0.1796353E+03  0.7818608E-02  0.1168290E+00
         21   -1    0    0  501  502  0.00000000000E+00  0.00000000000E+00  0.17303863919E+03  0.17303863919E+03  0.00000000000E+00 0.  1.
         21   -1    0    0  502  503 -0.00000000000E+00 -0.00000000000E+00 -0.23031150949E+03  0.23031150949E+03  0.00000000000E+00 0.  1.
         -6    2    1    2    0  503 -0.20515433592E+02 -0.47443581185E+02 -0.11722143819E+03  0.21449873582E+03  0.17203797745E+03 0.  0.
        -24    2    3    3    0    0  0.37317764630E+02  0.23687596583E+02 -0.64053556157E+02  0.10841746063E+03  0.75483573865E+02 0.  0.
          6    2    1    2  501    0  0.20515433592E+02  0.47443581185E+02  0.59948567891E+02  0.18885141286E+03  0.17146209184E+03 0.  0.
         24    2    5    5    0    0 -0.43828235152E+02  0.62205818110E+02  0.53274148288E+02  0.12233322570E+03  0.79604052855E+02 0.  0.
          5    1    5    5  501    0  0.64343668744E+02 -0.14762236925E+02  0.66744196032E+01  0.66518187164E+02  0.47000000000E+01 0. -1.
        -11    1    6    6    0    0 -0.18624542889E+02 -0.12470816783E+02  0.34780769009E+02  0.41377491006E+02  0.00000000000E+00 0.  1.
         12    1    6    6    0    0 -0.25203692263E+02  0.74676634893E+02  0.18493379278E+02  0.80955734693E+02  0.00000000000E+00 0. -1.
         -5    1    3    3    0  503 -0.57833198222E+02 -0.71131177769E+02 -0.53167882031E+02  0.10608127519E+03  0.47000000000E+01 0.  1.
         11    1    4    4    0    0  0.96688098447E+01  0.40416916634E+02 -0.60176152446E+01  0.41990769548E+02  0.00000000000E+00 0. -1.
        -12    1    4    4    0    0  0.27648954785E+02 -0.16729320050E+02 -0.58035940912E+02  0.66426691078E+02  0.00000000000E+00 0.  1.
</event>
<event>
12    1  0.8356052E-002  0.2097898E+03  0.7818608E-02  0.1141784E+00
         21   -1    0    0  503  502  0.00000000000E+00  0.00000000000E+00  0.28025813467E+02  0.28025813467E+02  0.00000000000E+00 0.  1.
         21   -1    0    0  501  503 -0.00000000000E+00 -0.00000000000E+00 -0.22655290203E+04  0.22655290203E+04  0.00000000000E+00 0.  1.
          6    2    1    2  501    0  0.11773430673E+03  0.22980913275E+02 -0.17543829584E+04  0.17668509964E+04  0.17179461415E+03 0.  0.
         24    2    3    3    0    0  0.94128745509E+01  0.10101030856E+02 -0.41559487500E+03  0.42361793909E+03  0.80885259220E+02 0.  0.
         -6    2    1    2    0  502 -0.11773430673E+03 -0.22980913275E+02 -0.48312024846E+03  0.52670383738E+03  0.17211120964E+03 0.  0.
        -24    2    5    5    0    0  0.22016213433E+01 -0.24626020465E+02 -0.13824745664E+03  0.16153720999E+03  0.79816182096E+02 0.  0.
          5    1    3    3  501    0  0.10832143218E+03  0.12879882419E+02 -0.13387880834E+04  0.13432330573E+04  0.47000000000E+01 0. -1.
        -13    1    4    4    0    0  0.35894362876E+02  0.31137045009E+02 -0.26974414741E+03  0.27389747337E+03  0.00000000000E+00 0.  1.
         14    1    4    4    0    0 -0.26481488325E+02 -0.21036014153E+02 -0.14585072760E+03  0.14972046572E+03  0.00000000000E+00 0. -1.
         -5    1    5    5    0  502 -0.11993592807E+03  0.16451071903E+01 -0.34487279182E+03  0.36516662739E+03  0.47000000000E+01 0.  1.
         11    1    6    6    0    0  0.38328416818E+01 -0.28537411511E+02 -0.62403817034E+01  0.29462126450E+02  0.00000000000E+00 0. -1.
        -12    1    6    6    0    0 -0.16312203385E+01  0.39113910465E+01 -0.13200707493E+03  0.13207508354E+03  0.00000000000E+00 0.  1.
</event>
<event>
12    1  0.8356052E-002  0.1834487E+03  0.7818608E-02  0.1166051E+00
         21   -1    0    0  503  502  0.00000000000E+00  0.00000000000E+00  0.30441367133E+02  0.30441367133E+02  0.00000000000E+00 0. -1.
         21   -1    0    0  501  503 -0.00000000000E+00 -0.00000000000E+00 -0.10764487349E+04  0.10764487349E+04  0.00000000000E+00 0. -1.
          6    2    1    2  501    0 -0.19173672630E+02 -0.44875776075E+02 -0.48083392018E+03  0.51464035991E+03  0.17683884259E+03 0.  0.
         24    2    3    3    0    0  0.59435855275E+02 -0.30794390919E+02 -0.23778626639E+03  0.25876539963E+03  0.77047440941E+02 0.  0.
         -6    2    1    2    0  502  0.19173672630E+02  0.44875776075E+02 -0.56517344758E+03  0.59224974212E+03  0.17016834662E+03 0.  0.
        -24    2    5    5    0    0  0.70297797595E+02  0.59440616726E+02 -0.33563376186E+03  0.35658818807E+03  0.77654017976E+02 0.  0.
          5    1    3    3  501    0 -0.78609527905E+02 -0.14081385156E+02 -0.24304765379E+03  0.25587496028E+03  0.47000000000E+01 0. -1.
        -11    1    4    4    0    0  0.32621549120E+02 -0.55718819735E+02 -0.13478100500E+03  0.14944788941E+03  0.00000000000E+00 0.  1.
         12    1    4    4    0    0  0.26814306155E+02  0.24924428816E+02 -0.10300526139E+03  0.10931751022E+03  0.00000000000E+00 0. -1.
         -5    1    5    5    0  502 -0.51124124965E+02 -0.14564840651E+02 -0.22953968573E+03  0.23566155405E+03  0.47000000000E+01 0.  1.
         13    1    6    6    0    0  0.49891950841E+02  0.37823535432E+02 -0.31306667427E+03  0.31926567171E+03  0.00000000000E+00 0. -1.
        -14    1    6    6    0    0  0.20405846754E+02  0.21617081294E+02 -0.22567087586E+02  0.37322516361E+02  0.00000000000E+00 0.  1.
</event>
<event>
12    1  0.8356052E-002  0.2196485E+03  0.7818608E-02  0.1134452E+00
         21   -1    0    0  501  502  0.00000000000E+00  0.00000000000E+00  0.26428923040E+03  0.26428923040E+03  0.00000000000E+00 0. -1.
         21   -1    0    0  502  503 -0.00000000000E+00 -0.00000000000E+00 -0.23896572856E+03  0.23896572856E+03  0.00000000000E+00 0. -1.
         -6    2    1    2    0  503 -0.56512132170E+02  0.12124482444E+03 -0.11102571728E+03  0.24611412302E+03  0.17421688527E+03 0.  0.
        -24    2    3    3    0    0 -0.27015192471E+02  0.13933540096E+03 -0.12750957070E+03  0.20749876554E+03  0.81565142651E+02 0.  0.
          6    2    1    2  501    0  0.56512132170E+02 -0.12124482444E+03  0.13634921912E+03  0.25714083594E+03  0.17215217517E+03 0.  0.
         24    2    5    5    0    0  0.35966758681E+02 -0.28097485611E+02  0.13327347540E+03  0.16158933515E+03  0.79159443925E+02 0.  0.
          5    1    5    5  501    0  0.20545373489E+02 -0.93147338831E+02  0.30757437199E+01  0.95551500786E+02  0.47000000000E+01 0. -1.
        -11    1    6    6    0    0  0.38806310968E+02  0.14028206120E+02  0.33159592392E+02  0.52936555475E+02  0.00000000000E+00 0.  1.
         12    1    6    6    0    0 -0.28395522874E+01 -0.42125691731E+02  0.10011388301E+03  0.10865277968E+03  0.00000000000E+00 0. -1.
         -5    1    3    3    0  503 -0.29496939699E+02 -0.18090576515E+02  0.16483853413E+02  0.38615357484E+02  0.47000000000E+01 0.  1.
         11    1    4    4    0    0  0.28350838704E+02  0.33910628200E+02 -0.28074238071E+02  0.52362807444E+02  0.00000000000E+00 0. -1.
        -12    1    4    4    0    0 -0.55366031175E+02  0.10542477276E+03 -0.99435332624E+02  0.15513595809E+03  0.00000000000E+00 0.  1.
</event>
<event>
12    1  0.8356052E-002  0.1866380E+03  0.7818608E-02  0.1161827E+00
         21   -1    0    0  503  502  0.00000000000E+00  0.00000000000E+00  0.42107540924E+03  0.42107540924E+03  0.00000000000E+00 0.  1.
         21   -1    0    0  501  503 -0.00000000000E+00 -0.00000000000E+00 -0.13968361622E+03  0.13968361622E+03  0.00000000000E+00 0. -1.
          6    2    1    2  501    0  0.12152257320E+01 -0.70645298331E+02 -0.39522243953E+02  0.18951843111E+03  0.17135633345E+03 0.  0.
         24    2    3    3    0    0  0.11499777174E+02  0.26540575543E+02 -0.33253134187E+02  0.91476308444E+02  0.80159198150E+02 0.  0.
         -6    2    1    2    0  502 -0.12152257320E+01  0.70645298331E+02  0.32091403697E+03  0.37124059436E+03  0.17274699657E+03 0.  0.
        -24    2    5    5    0    0 -0.23412130883E+02  0.28469401225E+02  0.30990449111E+03  0.32209988827E+03  0.79680046030E+02 0.  0.
          5    1    3    3  501    0 -0.10284551442E+02 -0.97185873873E+02 -0.62691097667E+01  0.98042122663E+02  0.47000000000E+01 0. -1.
        -11    1    4    4    0    0 -0.14522969734E+02  0.13047926104E+02  0.21702491681E+02  0.29191833973E+02  0.00000000000E+00 0.  1.
         12    1    4    4    0    0  0.26022746909E+02  0.13492649438E+02 -0.54955625868E+02  0.62284474471E+02  0.00000000000E+00 0. -1.
         -5    1    5    5    0  502  0.22196905151E+02  0.42175897106E+02  0.11009545864E+02  0.49140706091E+02  0.47000000000E+01 0.  1.
         13    1    6    6    0    0  0.30634326976E+01 -0.14539252135E+02  0.98550122142E+01  0.17829630907E+02  0.00000000000E+00 0. -1.
        -14    1    6    6    0    0 -0.26475563580E+02  0.43008653360E+02  0.30004947889E+03  0.30427025736E+03  0.00000000000E+00 0.  1.
</event>
<event>
12    1  0.8356052E-002  0.2436978E+03  0.7818608E-02  0.1118066E+00
         21   -1    0    0  501  502  0.00000000000E+00  0.00000000000E+00  0.13292492340E+04  0.13292492340E+04  0.00000000000E+00 0.  1.
         21   -1    0    0  502  503 -0.00000000000E+00 -0.00000000000E+00 -0.44759300326E+02  0.44759300326E+02  0.00000000000E+00 0.  1.
         -6    2    1    2    0  503  0.65838153112E+02  0.15295856694E+03  0.54086013557E+03  0.59146531630E+03  0.17196089245E+03 0.  0.
        -24    2    3    3    0    0  0.75734914377E+02  0.62544851878E+02  0.42756859406E+03  0.44610490514E+03  0.80913830769E+02 0.  0.
          6    2    1    2  501    0 -0.65838153112E+02 -0.15295856694E+03  0.74362979809E+03  0.78254321801E+03  0.17792589986E+03 0.  0.
         24    2    5    5    0    0 -0.75270136390E+02 -0.13894006037E+03  0.74414502195E+03  0.76499795396E+03  0.80623334482E+02 0.  0.
          5    1    5    5  501    0  0.94319832778E+01 -0.14018506573E+02 -0.51522385711E+00  0.17545264054E+02  0.47000000000E+01 0. -1.
        -13    1    6    6    0    0 -0.91076523712E+02 -0.11480093051E+03  0.57322666560E+03  0.59166121807E+03  0.00000000000E+00 0.  1.
         14    1    6    6    0    0  0.15806387323E+02 -0.24139129864E+02  0.17091835635E+03  0.17333673589E+03  0.00000000000E+00 0. -1.
         -5    1    3    3    0  503 -0.98967612655E+01  0.90413715065E+02  0.11329154151E+03  0.14536041116E+03  0.47000000000E+01 0.  1.
         13    1    4    4    0    0 -0.26962511635E+01 -0.10503806621E+02  0.11819508138E+03  0.11869152028E+03  0.00000000000E+00 0. -1.
        -14    1    4    4    0    0  0.78431165541E+02  0.73048658499E+02  0.30937351268E+03  0.32741338486E+03  0.00000000000E+00 0.  1.
</event>
<event>
12    1  0.8356052E-002  0.2037449E+03  0.7818608E-02  0.1148047E+00
         21   -1    0    0  503  502  0.00000000000E+00  0.00000000000E+00  0.23993522190E+04  0.23993522190E+04  0.00000000000E+00 0.  1.
         21   -1    0    0  501  503 -0.00000000000E+00 -0.00000000000E+00 -0.39291237685E+02  0.39291237685E+02  0.00000000000E+00 0.  1.
          6    2    1    2  501    0  0.90249934637E+02  0.32851995010E+02  0.26462122840E+03  0.33397060174E+03  0.17968768470E+03 0.  0.
         24    2    3    3    0    0  0.40165860996E+02  0.50352802377E+02  0.26117760155E+03  0.28059793780E+03  0.79829581277E+02 0.  0.
         -6    2    1    2    0  502 -0.90249934637E+02 -0.32851995010E+02  0.20954397529E+04  0.21046728549E+04  0.17191789882E+03 0.  0.
        -24    2    5    5    0    0 -0.10529800350E+03  0.18322904686E+02  0.17367620621E+04  0.17420200035E+04  0.82872395999E+02 0.  0.
          5    1    3    3  501    0  0.50084073641E+02 -0.17500807367E+02  0.34436268450E+01  0.53372663947E+02  0.47000000000E+01 0. -1.
        -11    1    4    4    0    0  0.43349053229E+02  0.49101573501E+02  0.10097003329E+03  0.12035386391E+03  0.00000000000E+00 0.  1.
         12    1    4    4    0    0 -0.31831922326E+01  0.12512288754E+01  0.16020756827E+03  0.16024407389E+03  0.00000000000E+00 0. -1.
         -5    1    5    5    0  502  0.15048068863E+02 -0.51174899695E+02  0.35867769078E+03  0.36265285136E+03  0.47000000000E+01 0.  1.
         13    1    6    6    0    0 -0.20761395610E+02  0.41659174722E+02  0.70685027131E+03  0.70838113219E+03  0.00000000000E+00 0. -1.
        -14    1    6    6    0    0 -0.84536607890E+02 -0.23336270036E+02  0.10299117908E+04  0.10336388714E+04  0.00000000000E+00 0.  1.
</event>
<event>
12    1  0.8356052E-002  0.2054111E+03  0.7818608E-02  0.1145574E+00
         21   -1    0    0  501  502  0.00000000000E+00  0.00000000000E+00  0.13876217114E+03  0.13876217114E+03  0.00000000000E+00 0.  1.
         21   -1    0    0  502  503 -0.00000000000E+00 -0.00000000000E+00 -0.31118480111E+03  0.31118480111E+03  0.00000000000E+00 0. -1.
         -6    2    1    2    0  503 -0.17865526661E+02 -0.10983438964E+03 -0.12506965415E+03  0.23914843636E+03  0.17078286224E+03 0.  0.
        -24    2    3    3    0    0 -0.71447969233E+01 -0.10996779842E+03 -0.23938276315E+02  0.13734176945E+03  0.78394870693E+02 0.  0.
          6    2    1    2  501    0  0.17865526661E+02  0.10983438964E+03 -0.47352975831E+02  0.21079853589E+03  0.17265847279E+03 0.  0.
         24    2    5    5    0    0 -0.84628444383E+01  0.17518027917E+02 -0.74495521911E+02  0.11092711068E+03  0.79854493057E+02 0.  0.
          5    1    5    5  501    0  0.26328371099E+02  0.92316361720E+02  0.27142546080E+02  0.99871425211E+02  0.47000000000E+01 0. -1.
        -11    1    6    6    0    0 -0.27759776798E+02  0.23012329716E+02 -0.24511970086E+01  0.36141124686E+02  0.00000000000E+00 0.  1.
         12    1    6    6    0    0  0.19296932359E+02 -0.54943017994E+01 -0.72044324902E+02  0.74785985996E+02  0.00000000000E+00 0. -1.
         -5    1    3    3    0  503 -0.10720729737E+02  0.13340878346E+00 -0.10113137783E+03  0.10180666691E+03  0.47000000000E+01 0.  1.
         13    1    4    4    0    0  0.17423958096E+02 -0.75928288077E+02 -0.45429413973E+02  0.90180546128E+02  0.00000000000E+00 0. -1.
        -14    1    4    4    0    0 -0.24568755019E+02 -0.34039510343E+02  0.21491137658E+02  0.47161223324E+02  0.00000000000E+00 0.  1.
</event>
<event>
12    1  0.8356052E-002  0.1908443E+03  0.7818608E-02  0.1158365E+00
         21   -1    0    0  501  502  0.00000000000E+00  0.00000000000E+00  0.69460583511E+03  0.69460583511E+03  0.00000000000E+00 0. -1.
         21   -1    0    0  502  503 -0.00000000000E+00 -0.00000000000E+00 -0.56304448716E+02  0.56304448716E+02  0.00000000000E+00 0. -1.
         -6    2    1    2    0  503  0.69032644642E+02  0.31917385035E+02  0.21326037199E+03  0.28618442105E+03  0.17503517104E+03 0.  0.
        -24    2    3    3    0    0  0.10360479338E+02  0.54250347282E+02  0.47058190467E+02  0.10845867918E+03  0.80612480958E+02 0.  0.
          6    2    1    2  501    0 -0.69032644642E+02 -0.31917385035E+02  0.42504101441E+03  0.46472586277E+03  0.17183142352E+03 0.  0.
         24    2    5    5    0    0 -0.35410323170E+02  0.61013487935E+01  0.39652314253E+03  0.40632000999E+03  0.81081628679E+02 0.  0.
          5    1    5    5  501    0 -0.33622321472E+02 -0.38018733828E+02  0.28517871872E+02  0.58405852782E+02  0.47000000000E+01 0. -1.
        -11    1    6    6    0    0 -0.51385974289E+00  0.40016492115E+02  0.18106889644E+03  0.18543874717E+03  0.00000000000E+00 0.  1.
         12    1    6    6    0    0 -0.34896463427E+02 -0.33915143322E+02  0.21545424609E+03  0.22088126282E+03  0.00000000000E+00 0. -1.
         -5    1    3    3    0  503  0.58672165304E+02 -0.22332962247E+02  0.16620218152E+03  0.17772574188E+03  0.47000000000E+01 0.  1.
         13    1    4    4    0    0  0.21935888235E+02 -0.57863683451E+01 -0.10033041145E+02  0.24805788960E+02  0.00000000000E+00 0. -1.
        -14    1    4    4    0    0 -0.11575408897E+02  0.60036715627E+02  0.57091231612E+02  0.83652890216E+02  0.00000000000E+00 0.  1.
</event>
<event>
12    1  0.8356052E-002  0.1717946E+03  0.7818608E-02  0.1176015E+00
         21   -1    0    0  501  502  0.00000000000E+00  0.00000000000E+00  0.17439316137E+03  0.17439316137E+03  0.00000000000E+00 0. -1.
         21   -1    0    0  502  503 -0.00000000000E+00 -0.00000000000E+00 -0.48825463923E+03  0.48825463923E+03  0.00000000000E+00 0. -1.
         -6    2    1    2    0  503 -0.10485413746E+01  0.94901032664E+01 -0.42477342837E+03  0.45816098512E+03  0.17142888130E+03 0.  0.
        -24    2    3    3    0    0 -0.57592587386E+02  0.12216025407E+02 -0.35462324682E+03  0.36789583259E+03  0.78253172791E+02 0.  0.
          6    2    1    2  501    0  0.10485413746E+01 -0.94901032664E+01  0.11091195051E+03  0.20448681547E+03  0.17152910959E+03 0.  0.
         24    2    5    5    0    0  0.63722431586E+02 -0.26234059674E+02  0.84803091160E+02  0.13440016106E+03  0.78250014998E+02 0.  0.
          5    1    5    5  501    0 -0.62673890211E+02  0.16743956407E+02  0.26108859349E+02  0.70086654414E+02  0.47000000000E+01 0. -1.
        -11    1    6    6    0    0 -0.11811271078E+02  0.95987441709E+01 -0.13505049633E+00  0.15220389376E+02  0.00000000000E+00 0.  1.
         12    1    6    6    0    0  0.75533702664E+02 -0.35832803845E+02  0.84938141656E+02  0.11917977168E+03  0.00000000000E+00 0. -1.
         -5    1    3    3    0  503  0.56544046012E+02 -0.27259221404E+01 -0.70150181547E+02  0.90265152534E+02  0.47000000000E+01 0.  1.
         11    1    4    4    0    0 -0.26544871419E+02  0.45244315954E+02 -0.20001448480E+03  0.20677880078E+03  0.00000000000E+00 0. -1.
        -12    1    4    4    0    0 -0.31047715968E+02 -0.33028290547E+02 -0.15460876202E+03  0.16111703180E+03  0.00000000000E+00 0.  1.
</event>
<event>
12    1  0.8356052E-002  0.2719391E+03  0.7818608E-02  0.1100221E+00
         21   -1    0    0  501  502  0.00000000000E+00  0.00000000000E+00  0.92588640784E+02  0.92588640784E+02  0.00000000000E+00 0.  1.
         21   -1    0    0  502  503 -0.00000000000E+00 -0.00000000000E+00 -0.86731991131E+03  0.86731991131E+03  0.00000000000E+00 0.  1.
         -6    2    1    2    0  503 -0.21022757792E+03  0.97096192744E+01 -0.52350904103E+03  0.58992593880E+03  0.17222365111E+03 0.  0.
        -24    2    3    3    0    0 -0.13233242068E+03  0.57823704548E+02 -0.18889424993E+03  0.24297958971E+03  0.50025923164E+02 0.  0.
          6    2    1    2  501    0  0.21022757792E+03 -0.97096192744E+01 -0.25122222950E+03  0.36998261330E+03  0.17171084510E+03 0.  0.
         24    2    5    5    0    0  0.22319040713E+03 -0.15972343988E+02 -0.26009883900E+03  0.35242867191E+03  0.80532534591E+02 0.  0.
          5    1    5    5  501    0 -0.12962829213E+02  0.62627247138E+01  0.88766095013E+01  0.17553941389E+02  0.47000000000E+01 0. -1.
        -11    1    6    6    0    0  0.15403419285E+03 -0.40564166185E+02 -0.14206603640E+03  0.21343557071E+03  0.00000000000E+00 0.  1.
         12    1    6    6    0    0  0.69156214286E+02  0.24591822197E+02 -0.11803280260E+03  0.13899310120E+03  0.00000000000E+00 0. -1.
         -5    1    3    3    0  503 -0.77895157242E+02 -0.48114085273E+02 -0.33461479110E+03  0.34694634909E+03  0.47000000000E+01 0.  1.
         13    1    4    4    0    0 -0.33007319850E+02  0.40024943259E+02 -0.67002052221E+02  0.84739331178E+02  0.00000000000E+00 0. -1.
        -14    1    4    4    0    0 -0.99325100826E+02  0.17798761289E+02 -0.12189219771E+03  0.15824025853E+03  0.00000000000E+00 0.  1.
</event>
<event>
12    1  0.8356052E-002  0.2947487E+03  0.7818608E-02  0.1087925E+00
         21   -1    0    0  501  502  0.00000000000E+00  0.00000000000E+00  0.79920687099E+03  0.79920687099E+03  0.00000000000E+00 0. -1.
         21   -1    0    0  502  503 -0.00000000000E+00 -0.00000000000E+00 -0.11408620164E+03  0.11408620164E+03  0.00000000000E+00 0.  1.
         -6    2    1    2    0  503 -0.19964097162E+03 -0.13211261015E+03  0.44240797038E+03  0.53147341372E+03  0.17154858766E+03 0.  0.
        -24    2    3    3    0    0 -0.20903928866E+03 -0.14884001869E+03  0.43394143899E+03  0.50998139861E+03  0.76974535333E+02 0.  0.
          6    2    1    2  501    0  0.19964097162E+03  0.13211261015E+03  0.24271269897E+03  0.38181965891E+03  0.17194923199E+03 0.  0.
         24    2    5    5    0    0  0.15542478118E+03  0.63201328817E+02  0.88792692972E+02  0.20741411302E+03  0.83577517218E+02 0.  0.
          5    1    5    5  501    0  0.44216190434E+02  0.68911281334E+02  0.15392000600E+03  0.17440554589E+03  0.47000000000E+01 0. -1.
        -13    1    6    6    0    0  0.11053520371E+01  0.19980371344E+02 -0.64082616334E+01  0.21011969430E+02  0.00000000000E+00 0.  1.
         14    1    6    6    0    0  0.15431942915E+03  0.43220957473E+02  0.95200954605E+02  0.18640214359E+03  0.00000000000E+00 0. -1.
         -5    1    3    3    0  503  0.93983170370E+01  0.16727408544E+02  0.84665313911E+01  0.21492015111E+02  0.47000000000E+01 0.  1.
         11    1    4    4    0    0 -0.20507718877E+02 -0.47915834313E+02  0.62495678295E+02  0.81376922509E+02  0.00000000000E+00 0. -1.
        -12    1    4    4    0    0 -0.18853156978E+03 -0.10092418438E+03  0.37144576070E+03  0.42860447610E+03  0.00000000000E+00 0.  1.
</event>
<event>
12    1  0.8356052E-002  0.1729671E+03  0.7818608E-02  0.1174842E+00
         21   -1    0    0  503  502  0.00000000000E+00  0.00000000000E+00  0.45286395234E+03  0.45286395234E+03  0.00000000000E+00 0.  1.
         21   -1    0    0  501  503 -0.00000000000E+00 -0.00000000000E+00 -0.10080760400E+03  0.10080760400E+03  0.00000000000E+00 0.  1.
          6    2    1    2  501    0 -0.79175986913E+01  0.17905743193E+02  0.13246361425E+02  0.17326411526E+03  0.17164406059E+03 0.  0.
         24    2    3    3    0    0  0.58738619093E+02 -0.36805797890E+02  0.59083147733E+01  0.86590353222E+02  0.51556657731E+02 0.  0.
         -6    2    1    2    0  502  0.79175986913E+01 -0.17905743193E+02  0.33880998691E+03  0.38040744108E+03  0.17185549160E+03 0.  0.
        -24    2    5    5    0    0  0.31782182818E+02  0.11555527852E+02  0.76717135242E+02  0.11554476390E+03  0.79507460385E+02 0.  0.
          5    1    3    3  501    0 -0.66656217785E+02  0.54711541083E+02  0.73380466516E+01  0.86673762038E+02  0.47000000000E+01 0. -1.
        -13    1    4    4    0    0  0.62710746899E+02 -0.29778254150E+02 -0.86351483952E+01  0.69956757963E+02  0.00000000000E+00 0.  1.
         14    1    4    4    0    0 -0.39721278056E+01 -0.70275437396E+01  0.14543463168E+02  0.16633595259E+02  0.00000000000E+00 0. -1.
         -5    1    5    5    0  502 -0.23864584126E+02 -0.29461271045E+02  0.26209285167E+03  0.26486267718E+03  0.47000000000E+01 0.  1.
         11    1    6    6    0    0  0.14400374844E+02  0.15229527662E+02  0.90603201377E+02  0.92995964473E+02  0.00000000000E+00 0. -1.
        -12    1    6    6    0    0  0.17381807974E+02 -0.36739998097E+01 -0.13886066135E+02  0.22548799430E+02  0.00000000000E+00 0.  1.
</event>
<event>
12    1  0.8356052E-002  0.1902600E+03  0.7818608E-02  0.1158432E+00
         21   -1    0    0  501  502  0.00000000000E+00  0.00000000000E+00  0.88633876991E+02  0.88633876991E+02  0.00000000000E+00 0. -1.
         21   -1    0    0  502  503 -0.00000000000E+00 -0.00000000000E+00 -0.96962399198E+03  0.96962399198E+03  0.00000000000E+00 0. -1.
         -6    2    1    2    0  503  0.78612576981E+02  0.22930155274E+02 -0.84419125955E+03  0.86536567734E+03  0.17173567926E+03 0.  0.
        -24    2    3    3    0    0  0.72495055808E+02  0.26063845842E+02 -0.84861127431E+03  0.85593855623E+03  0.80962089738E+02 0.  0.
          6    2    1    2  501    0 -0.78612576981E+02 -0.22930155274E+02 -0.36798855439E+02  0.19289219164E+03  0.17072642605E+03 0.  0.
         24    2    5    5    0    0 -0.45056225009E+02 -0.45326124350E+02 -0.82643975539E+02  0.13164292041E+03  0.80095635591E+02 0.  0.
          5    1    5    5  501    0 -0.33556351972E+02  0.22395969076E+02  0.45845120100E+02  0.61249271224E+02  0.47000000000E+01 0. -1.
        -11    1    6    6    0    0  0.13309954766E+02 -0.29345735589E+02 -0.40880777153E+01  0.32481371162E+02  0.00000000000E+00 0.  1.
         12    1    6    6    0    0 -0.58366179776E+02 -0.15980388761E+02 -0.78555897824E+02  0.99161549249E+02  0.00000000000E+00 0. -1.
         -5    1    3    3    0  503  0.61175211733E+01 -0.31336905676E+01  0.44200147611E+01  0.94271211071E+01  0.47000000000E+01 0.  1.
         11    1    4    4    0    0  0.98718036326E+01 -0.17254222212E+02 -0.51576494260E+02  0.55274727057E+02  0.00000000000E+00 0. -1.
        -12    1    4    4    0    0  0.62623252175E+02  0.43318068053E+02 -0.79703478005E+03  0.80066382918E+03  0.00000000000E+00 0.  1.
</event>
<event>
12    1  0.8356052E-002  0.1931534E+03  0.7818608E-02  0.1155725E+00
         21   -1    0    0  501  502  0.00000000000E+00  0.00000000000E+00  0.31594517573E+03  0.31594517573E+03  0.00000000000E+00 0.  1.
         21   -1    0    0  502  503 -0.00000000000E+00 -0.00000000000E+00 -0.18380626158E+03  0.18380626158E+03  0.00000000000E+00 0.  1.
         -6    2    1    2    0  503  0.85680227562E+02 -0.23218106211E+02 -0.83627996990E+02  0.21015933494E+03  0.17115233662E+03 0.  0.
        -24    2    3    3    0    0  0.58720390114E+02  0.12188923304E+02  0.13401097949E+02  0.10330791549E+03  0.83043855342E+02 0.  0.
          6    2    1    2  501    0 -0.85680227562E+02  0.23218106211E+02  0.21576691115E+03  0.28959210237E+03  0.17154604035E+03 0.  0.
         24    2    5    5    0    0 -0.33817621133E+02  0.75488844095E+02  0.15878068970E+03  0.19636399814E+03  0.80655534590E+02 0.  0.
          5    1    5    5  501    0 -0.51862606429E+02 -0.52270737885E+02  0.56986221442E+02  0.93228104233E+02  0.47000000000E+01 0. -1.
        -13    1    6    6    0    0 -0.46313950909E+02  0.21989745542E+02  0.38451815848E+02  0.64086450205E+02  0.00000000000E+00 0.  1.
         14    1    6    6    0    0  0.12496329776E+02  0.53499098554E+02  0.12032887386E+03  0.13227754793E+03  0.00000000000E+00 0. -1.
         -5    1    3    3    0  503  0.26959837449E+02 -0.35407029515E+02 -0.97029094939E+02  0.10685141945E+03  0.47000000000E+01 0.  1.
         11    1    4    4    0    0  0.66354127955E+02  0.17115327470E+02 -0.17809020695E+02  0.70802301863E+02  0.00000000000E+00 0. -1.
        -12    1    4    4    0    0 -0.76337378408E+01 -0.49264041664E+01  0.31210118644E+02  0.32505613626E+02  0.00000000000E+00 0.  1.
</event>
<event>
12    1  0.8356052E-002  0.2056364E+03  0.7818608E-02  0.1145149E+00
         21   -1    0    0  503  502  0.00000000000E+00  0.00000000000E+00  0.13916155973E+02  0.13916155973E+02  0.00000000000E+00 0.  1.
         21   -1    0    0  501  503 -0.00000000000E+00 -0.00000000000E+00 -0.34448606004E+04  0.34448606004E+04  0.00000000000E+00 0.  1.
          6    2    1    2  501    0  0.96255490236E+02  0.56843162386E+02 -0.23150265126E+04  0.23241415821E+04  0.17259801515E+03 0.  0.
         24    2    3    3    0    0  0.12941175104E+03  0.70935105883E+02 -0.18173912685E+04  0.18251818174E+04  0.81230864930E+02 0.  0.
         -6    2    1    2    0  502 -0.96255490236E+02 -0.56843162386E+02 -0.11159179317E+04  0.11346351743E+04  0.17212752173E+03 0.  0.
        -24    2    5    5    0    0 -0.40851927676E+02  0.89802120886E+01 -0.16931449078E+03  0.18411824340E+03  0.59013613362E+02 0.  0.
          5    1    3    3  501    0 -0.33156260803E+02 -0.14091943497E+02 -0.49763524415E+03  0.49895976463E+03  0.47000000000E+01 0. -1.
        -13    1    4    4    0    0  0.51554276519E+02  0.16322259785E+02 -0.30156056337E+03  0.30637074431E+03  0.00000000000E+00 0.  1.
         14    1    4    4    0    0  0.77857474520E+02  0.54612846097E+02 -0.15158307051E+04  0.15188110731E+04  0.00000000000E+00 0. -1.
         -5    1    5    5    0  502 -0.55403562560E+02 -0.65823374475E+02 -0.94660344097E+03  0.95051693085E+03  0.47000000000E+01 0.  1.
         13    1    6    6    0    0  0.10294415251E+02  0.13240080646E+02 -0.73867364089E+02  0.75747357699E+02  0.00000000000E+00 0. -1.
        -14    1    6    6    0    0 -0.51146342927E+02 -0.42598685577E+01 -0.95447126689E+02  0.10837088570E+03  0.00000000000E+00 0.  1.
</event>
<event>
12    1  0.8356052E-002  0.1911824E+03  0.7818608E-02  0.1157918E+00
         21   -1    0    0  501  502  0.00000000000E+00  0.00000000000E+00  0.64541424992E+03  0.64541424992E+03  0.00000000000E+00 0. -1.
         21   -1    0    0  502  503 -0.00000000000E+00 -0.00000000000E+00 -0.62870927609E+02  0.62870927609E+02  0.00000000000E+00 0. -1.
         -6    2    1    2    0  503 -0.69182429403E+02  0.35793375704E+02  0.41034060429E+03  0.45269209504E+03  0.17459480833E+03 0.  0.
        -24    2    3    3    0    0 -0.88292159754E+02  0.36288779728E+02  0.41431610420E+03  0.43260922127E+03  0.79878176712E+02 0.  0.
          6    2    1    2  501    0  0.69182429403E+02 -0.35793375704E+02  0.17220271802E+03  0.25559308249E+03  0.17206589854E+03 0.  0.
         24    2    5    5    0    0  0.11270288030E+03 -0.10101253099E+02  0.10702431968E+03  0.17298298371E+03  0.75265749906E+02 0.  0.
          5    1    5    5  501    0 -0.43520450897E+02 -0.25692122605E+02  0.65178398342E+02  0.82610098782E+02  0.47000000000E+01 0. -1.
        -13    1    6    6    0    0  0.60519359709E+01 -0.18608214016E+02 -0.26739769628E+01  0.19749473681E+02  0.00000000000E+00 0.  1.
         14    1    6    6    0    0  0.10665094433E+03  0.85069609173E+01  0.10969829664E+03  0.15323351003E+03  0.00000000000E+00 0. -1.
         -5    1    3    3    0  503  0.19109730351E+02 -0.49540402401E+00 -0.39754999141E+01  0.20082873769E+02  0.47000000000E+01 0.  1.
         11    1    4    4    0    0 -0.15431801268E+02  0.47328857889E+02  0.19449993865E+03  0.20076948825E+03  0.00000000000E+00 0. -1.
        -12    1    4    4    0    0 -0.72860358485E+02 -0.11040078160E+02  0.21981616556E+03  0.23183973302E+03  0.00000000000E+00 0.  1.
</event>
<event>
12    1  0.8356052E-002  0.1823703E+03  0.7818608E-02  0.1165575E+00
         21   -1    0    0  501  502  0.00000000000E+00  0.00000000000E+00  0.18514523973E+02  0.18514523973E+02  0.00000000000E+00 0. -1.
         21   -1    0    0  502  503 -0.00000000000E+00 -0.00000000000E+00 -0.18191675613E+04  0.18191675613E+04  0.00000000000E+00 0. -1.
         -6    2    1    2    0  503  0.31515065635E+02 -0.51488747623E+02 -0.79366884935E+03  0.81435198604E+03  0.17208900093E+03 0.  0.
        -24    2    3    3    0    0 -0.21132980146E+01 -0.73907330840E+02 -0.29662864956E+03  0.31564915877E+03  0.78607099636E+02 0.  0.
          6    2    1    2  501    0 -0.31515065635E+02  0.51488747623E+02 -0.10069841880E+04  0.10233300993E+04  0.17188090840E+03 0.  0.
         24    2    5    5    0    0  0.37713253651E+02  0.30837682212E+02 -0.75566525254E+03  0.76179171964E+03  0.83206959251E+02 0.  0.
          5    1    5    5  501    0 -0.69228319287E+02  0.20651065410E+02 -0.25131893548E+03  0.26153837964E+03  0.47000000000E+01 0. -1.
        -13    1    6    6    0    0  0.65550012518E+00 -0.16778294498E+02 -0.37396448421E+02  0.40993111631E+02  0.00000000000E+00 0.  1.
         14    1    6    6    0    0  0.37057753526E+02  0.47615976711E+02 -0.71826880412E+03  0.72079860801E+03  0.00000000000E+00 0. -1.
         -5    1    3    3    0  503  0.33628363650E+02  0.22418583217E+02 -0.49704019979E+03  0.49870282726E+03  0.47000000000E+01 0.  1.
         13    1    4    4    0    0  0.13824164325E+02 -0.60869565085E+01 -0.51475764652E+01  0.15957947935E+02  0.00000000000E+00 0. -1.
        -14    1    4    4    0    0 -0.15937462340E+02 -0.67820374331E+02 -0.29148107310E+03  0.29969121084E+03  0.00000000000E+00 0.  1.
</event>
<event>
12    1  0.8356052E-002  0.1996710E+03  0.7818608E-02  0.1150376E+00
         21   -1    0    0  501  502  0.00000000000E+00  0.00000000000E+00  0.23706764497E+03  0.23706764497E+03  0.00000000000E+00 0. -1.
         21   -1    0    0  502  503 -0.00000000000E+00 -0.00000000000E+00 -0.16876988980E+03  0.16876988980E+03  0.00000000000E+00 0. -1.
         -6    2    1    2    0  503  0.96701800593E+02  0.18919228746E+02  0.12097520534E+02  0.20003713861E+03  0.17366442170E+03 0.  0.
        -24    2    3    3    0    0  0.63681791402E+02 -0.58845262215E+02 -0.11769451661E+01  0.11438704520E+03  0.74598092921E+02 0.  0.
          6    2    1    2  501    0 -0.96701800593E+02 -0.18919228746E+02  0.56200234640E+02  0.20580039617E+03  0.17171534944E+03 0.  0.
         24    2    5    5    0    0 -0.10118473732E+03  0.41126925315E+02  0.24642169817E+02  0.13765614626E+03  0.80076232546E+02 0.  0.
          5    1    5    5  501    0  0.44829367257E+01 -0.60046154062E+02  0.31558064823E+02  0.68144249902E+02  0.47000000000E+01 0. -1.
        -11    1    6    6    0    0 -0.37548643028E+00 -0.14457446485E+02 -0.98310656334E+01  0.17487384035E+02  0.00000000000E+00 0.  1.
         12    1    6    6    0    0 -0.10080925089E+03  0.55584371800E+02  0.34473235451E+02  0.12016876223E+03  0.00000000000E+00 0. -1.
         -5    1    3    3    0  503  0.33020009191E+02  0.77764490961E+02  0.13274465700E+02  0.85650093409E+02  0.47000000000E+01 0.  1.
         13    1    4    4    0    0  0.46757939315E+02 -0.72952909376E+01  0.25685020431E+02  0.53844650926E+02  0.00000000000E+00 0. -1.
        -14    1    4    4    0    0  0.16923852087E+02 -0.51549971277E+02 -0.26861965597E+02  0.60542394269E+02  0.00000000000E+00 0.  1.
</event>
<event>
12    1  0.8356052E-002  0.1944381E+03  0.7818608E-02  0.1154542E+00
         21   -1    0    0  501  502  0.00000000000E+00  0.00000000000E+00  0.55468355397E+02  0.55468355397E+02  0.00000000000E+00 0. -1.
         21   -1    0    0  502  503 -0.00000000000E+00 -0.00000000000E+00 -0.98910201604E+03  0.98910201604E+03  0.00000000000E+00 0. -1.
         -6    2    1    2    0  503  0.47248784951E+02 -0.79178777154E+02 -0.75830350167E+03  0.78283483303E+03  0.17118542207E+03 0.  0.
        -24    2    3    3    0    0  0.76855739492E+02 -0.10257161054E+03 -0.51960412556E+03  0.54112575466E+03  0.80005594026E+02 0.  0.
          6    2    1    2  501    0 -0.47248784951E+02  0.79178777154E+02 -0.17533015898E+03  0.26173553841E+03  0.17106461057E+03 0.  0.
         24    2    5    5    0    0  0.21130520616E+02  0.21723533826E+02 -0.14381544974E+03  0.16690884748E+03  0.79102901072E+02 0.  0.
          5    1    5    5  501    0 -0.68379305568E+02  0.57455243327E+02 -0.31514709235E+02  0.94826690936E+02  0.47000000000E+01 0. -1.
        -13    1    6    6    0    0  0.74589268672E+00  0.49715469127E+02 -0.77096826875E+02  0.91739331481E+02  0.00000000000E+00 0.  1.
         14    1    6    6    0    0  0.20384627930E+02 -0.27991935300E+02 -0.66718622869E+02  0.75169515997E+02  0.00000000000E+00 0. -1.
         -5    1    3    3    0  503 -0.29606954540E+02  0.23392833386E+02 -0.23869937610E+03  0.24170907836E+03  0.47000000000E+01 0.  1.
         11    1    4    4    0    0  0.43570483841E+02 -0.24556854411E+02 -0.32520624605E+03  0.32902967743E+03  0.00000000000E+00 0. -1.
        -12    1    4    4    0    0  0.33285255650E+02 -0.78014756129E+02 -0.19439787951E+03  0.21209607723E+03  0.00000000000E+00 0.  1.
</event>
<event>
12    1  0.8356052E-002  0.1761489E+03  0.7818608E-02  0.1172206E+00
         21   -1    0    0  503  502  0.00000000000E+00  0.00000000000E+00  0.36616506487E+02  0.36616506487E+02  0.00000000000E+00 0.  1.
         21   -1    0    0  501  503 -0.00000000000E+00 -0.00000000000E+00 -0.10413812410E+04  0.10413812410E+04  0.00000000000E+00 0.  1.
          6    2    1    2  501    0  0.18281554028E+02  0.22628597562E+02 -0.73918443774E+03  0.75931085768E+03  0.17121062164E+03 0.  0.
         24    2    3    3    0    0 -0.22139243690E+02  0.58437463436E+02 -0.29195161309E+03  0.30880513608E+03  0.78865609969E+02 0.  0.
         -6    2    1    2    0  502 -0.18281554028E+02 -0.22628597562E+02 -0.26558029673E+03  0.31868688976E+03  0.17373016734E+03 0.  0.
        -24    2    5    5    0    0 -0.15231865554E+02 -0.44316597448E+02 -0.27815610454E+03  0.29299815913E+03  0.79253594390E+02 0.  0.
          5    1    3    3  501    0  0.40420797718E+02 -0.35808865875E+02 -0.44723282464E+03  0.45050572161E+03  0.47000000000E+01 0. -1.
        -11    1    4    4    0    0  0.10479669858E+02  0.32290574028E+02 -0.23871166083E+03  0.24111358665E+03  0.00000000000E+00 0.  1.
         12    1    4    4    0    0 -0.32618913548E+02  0.26146889408E+02 -0.53239952264E+02  0.67691549427E+02  0.00000000000E+00 0. -1.
         -5    1    5    5    0  502 -0.30496884734E+01  0.21687999886E+02  0.12575807811E+02  0.25688730622E+02  0.47000000000E+01 0.  1.
         11    1    6    6    0    0 -0.39710442503E+02 -0.13841121545E+02 -0.73831799492E+02  0.84968408869E+02  0.00000000000E+00 0. -1.
        -12    1    6    6    0    0  0.24478576949E+02 -0.30475475903E+02 -0.20432430505E+03  0.20802975026E+03  0.00000000000E+00 0.  1.
</event>
<event>
12    1  0.8356052E-002  0.2450546E+03  0.7818608E-02  0.1116626E+00
         21   -1    0    0  501  502  0.00000000000E+00  0.00000000000E+00  0.58698484270E+02  0.58698484270E+02  0.00000000000E+00 0.  1.
         21   -1    0    0  502  503 -0.00000000000E+00 -0.00000000000E+00 -0.12705926355E+04  0.12705926355E+04  0.00000000000E+00 0. -1.
         -6    2    1    2    0  503 -0.41328866041E+02  0.16908535866E+03 -0.90260440043E+03  0.93527880807E+03  0.17249293165E+03 0.  0.
        -24    2    3    3    0    0 -0.15954017060E+02  0.95666633937E+01 -0.37847199057E+03  0.38680185307E+03  0.77643893417E+02 0.  0.
          6    2    1    2  501    0  0.41328866041E+02 -0.16908535866E+03 -0.30928975080E+03  0.39401231170E+03  0.17113625606E+03 0.  0.
         24    2    5    5    0    0  0.61066320849E+02 -0.34299286946E+02 -0.12058043557E+03  0.16122453731E+03  0.80920784485E+02 0.  0.
          5    1    5    5  501    0 -0.19737454809E+02 -0.13478607171E+03 -0.18870931523E+03  0.23278777439E+03  0.47000000000E+01 0. -1.
        -13    1    6    6    0    0  0.80596443403E+02 -0.29220542233E+02 -0.87670287917E+02  0.12262017029E+03  0.00000000000E+00 0.  1.
         14    1    6    6    0    0 -0.19530122553E+02 -0.50787447133E+01 -0.32910147654E+02  0.38604367025E+02  0.00000000000E+00 0. -1.
         -5    1    3    3    0  503 -0.25374848980E+02  0.15951869527E+03 -0.52413240986E+03  0.54847695500E+03  0.47000000000E+01 0.  1.
         13    1    4    4    0    0  0.19044635321E+02  0.31635497822E+02 -0.21663606329E+03  0.21976052142E+03  0.00000000000E+00 0. -1.
        -14    1    4    4    0    0 -0.34998652381E+02 -0.22068834428E+02 -0.16183592728E+03  0.16704133165E+03  0.00000000000E+00 0.  1.
</event>
<event>
12    1  0.8356052E-002  0.1740307E+03  0.7818608E-02  0.1173762E+00
         21   -1    0    0  501  502  0.00000000000E+00  0.00000000000E+00  0.22194902851E+03  0.22194902851E+03  0.00000000000E+00 0. -1.
         21   -1    0    0  502  503 -0.00000000000E+00 -0.00000000000E+00 -0.38008797578E+03  0.38008797578E+03  0.00000000000E+00 0. -1.
         -6    2    1    2    0  503 -0.20708968584E+01 -0.13640764930E+02 -0.32013382413E+03  0.36427868261E+03  0.17327127336E+03 0.  0.
        -24    2    3    3    0    0 -0.20538247902E+02 -0.66172033069E+02 -0.26785650570E+03  0.28775688696E+03  0.79097160262E+02 0.  0.
          6    2    1    2  501    0  0.20708968584E+01  0.13640764930E+02  0.16199487686E+03  0.23775832168E+03  0.17348291074E+03 0.  0.
         24    2    5    5    0    0  0.38511291572E+02 -0.82049674495E+01  0.21244037729E+02  0.90659623162E+02  0.78850599639E+02 0.  0.
          5    1    5    5  501    0 -0.36440394714E+02  0.21845732380E+02  0.14075083913E+03  0.14709869851E+03  0.47000000000E+01 0. -1.
        -13    1    6    6    0    0  0.12649969128E+02  0.34703231689E+02  0.19980490461E+01  0.36990920623E+02  0.00000000000E+00 0.  1.
         14    1    6    6    0    0  0.25861322444E+02 -0.42908199138E+02  0.19245988683E+02  0.53668702539E+02  0.00000000000E+00 0. -1.
         -5    1    3    3    0  503  0.18467351043E+02  0.52531268139E+02 -0.52277318427E+02  0.76521795645E+02  0.47000000000E+01 0.  1.
         11    1    4    4    0    0 -0.97255509955E+01 -0.15014182180E+02 -0.20594035904E+03  0.20671585206E+03  0.00000000000E+00 0. -1.
        -12    1    4    4    0    0 -0.10812696906E+02 -0.51157850889E+02 -0.61916146659E+02  0.81041034909E+02  0.00000000000E+00 0.  1.
</event>
<event>
12    1  0.8356052E-002  0.1748410E+03  0.7818608E-02  0.1173696E+00
         21   -1    0    0  503  502  0.00000000000E+00  0.00000000000E+00  0.36051472055E+02  0.36051472055E+02  0.00000000000E+00 0.  1.
         21   -1    0    0  501  503 -0.00000000000E+00 -0.00000000000E+00 -0.86624952762E+03  0.86624952762E+03  0.00000000000E+00 0.  1.
          6    2    1    2  501    0 -0.27271605150E+02  0.11532125900E+02 -0.50031923655E+03  0.52895206463E+03  0.16909824906E+03 0.  0.
         24    2    3    3    0    0  0.48406021416E+02 -0.59203248859E+01 -0.24872870769E+03  0.26560519183E+03  0.79384852083E+02 0.  0.
         -6    2    1    2    0  502  0.27271605150E+02 -0.11532125900E+02 -0.32987881901E+03  0.37334893505E+03  0.17231558749E+03 0.  0.
        -24    2    5    5    0    0 -0.33366713568E+02 -0.63976679653E+01 -0.27691883755E+03  0.29253917084E+03  0.87982135421E+02 0.  0.
          5    1    3    3  501    0 -0.75677626565E+02  0.17452450786E+02 -0.25159052886E+03  0.26334687280E+03  0.47000000000E+01 0. -1.
        -13    1    4    4    0    0 -0.21558720220E+02  0.39284770604E+01 -0.72534944922E+02  0.75772881589E+02  0.00000000000E+00 0.  1.
         14    1    4    4    0    0  0.69964741635E+02 -0.98488019463E+01 -0.17619376277E+03  0.18983231024E+03  0.00000000000E+00 0. -1.
         -5    1    5    5    0  502  0.60638318718E+02 -0.51344579350E+01 -0.52959981463E+02  0.80809764210E+02  0.47000000000E+01 0.  1.
         11    1    6    6    0    0 -0.26563186132E+02 -0.23977557469E+02 -0.27015080826E+03  0.27251052333E+03  0.00000000000E+00 0. -1.
        -12    1    6    6    0    0 -0.68035274363E+01  0.17579889504E+02 -0.67680292878E+01  0.20028647508E+02  0.00000000000E+00 0.  1.
</event>
<event>
12    1  0.8356052E-002  0.2036181E+03  0.7818608E-02  0.1147002E+00
         21   -1    0    0  503  502  0.00000000000E+00  0.00000000000E+00  0.25647213306E+03  0.25647213306E+03  0.00000000000E+00 0.  1.
         21   -1    0    0  501  503 -0.00000000000E+00 -0.00000000000E+00 -0.34673639336E+03  0.34673639336E+03  0.00000000000E+00 0.  1.
          6    2    1    2  501    0  0.82533639135E+02  0.66279567136E+02 -0.26619227679E+03  0.33513978869E+03  0.17394127496E+03 0.  0.
         24    2    3    3    0    0  0.82951301206E+02  0.45114154952E+02 -0.28223008238E+03  0.30816850168E+03  0.79986253078E+02 0.  0.
         -6    2    1    2    0  502 -0.82533639135E+02 -0.66279567136E+02  0.17592801648E+03  0.26806873773E+03  0.17235254149E+03 0.  0.
        -24    2    5    5    0    0 -0.95291228121E+02  0.56553789666E+01  0.13587642113E+03  0.18462047329E+03  0.80684049669E+02 0.  0.
          5    1    3    3  501    0 -0.41766207075E+00  0.21165412184E+02  0.16037805594E+02  0.26971287007E+02  0.47000000000E+01 0. -1.
        -11    1    4    4    0    0  0.61735393251E+02  0.10197201086E+02 -0.78524035542E+02  0.10040550706E+03  0.00000000000E+00 0.  1.
         12    1    4    4    0    0  0.21215907955E+02  0.34916953866E+02 -0.20370604684E+03  0.20776299462E+03  0.00000000000E+00 0. -1.
         -5    1    5    5    0  502  0.12757588986E+02 -0.71934946103E+02  0.40051595343E+02  0.83448264434E+02  0.47000000000E+01 0.  1.
         11    1    6    6    0    0 -0.18423561883E+02  0.18776305627E+02 -0.18288613489E+01  0.26368959390E+02  0.00000000000E+00 0. -1.
        -12    1    6    6    0    0 -0.76867666238E+02 -0.13120926660E+02  0.13770528248E+03  0.15825151390E+03  0.00000000000E+00 0.  1.
</event>
<event>
12    1  0.8356052E-002  0.1902282E+03  0.7818608E-02  0.1158902E+00
         21   -1    0    0  501  502  0.00000000000E+00  0.00000000000E+00  0.78439404451E+02  0.78439404451E+02  0.00000000000E+00 0.  1.
         21   -1    0    0  502  503 -0.00000000000E+00 -0.00000000000E+00 -0.55020555124E+03  0.55020555124E+03  0.00000000000E+00 0.  1.
         -6    2    1    2    0  503  0.58538693601E+01  0.76320344783E+02 -0.36553722224E+03  0.41076576130E+03  0.17103212271E+03 0.  0.
        -24    2    3    3    0    0 -0.24488705792E+02  0.50486008922E+02 -0.61289816330E+02  0.10388360349E+03  0.62344427826E+02 0.  0.
          6    2    1    2  501    0 -0.58538693601E+01 -0.76320344783E+02 -0.10622892456E+03  0.21787919440E+03  0.17414848872E+03 0.  0.
         24    2    5    5    0    0  0.25920070002E+02 -0.11232138393E+03 -0.91666031919E+02  0.16748250915E+03  0.79748267360E+02 0.  0.
          5    1    5    5  501    0 -0.31773939362E+02  0.36001039145E+02 -0.14562892637E+02  0.50396685248E+02  0.47000000000E+01 0. -1.
        -11    1    6    6    0    0  0.38355540176E+01 -0.49722908152E+01  0.13937185693E+02  0.15286605104E+02  0.00000000000E+00 0.  1.
         12    1    6    6    0    0  0.22084515984E+02 -0.10734909311E+03 -0.10560321761E+03  0.15219590405E+03  0.00000000000E+00 0. -1.
         -5    1    3    3    0  503  0.30342575152E+02  0.25834335861E+02 -0.30424740591E+03  0.30688215780E+03  0.47000000000E+01 0.  1.
         13    1    4    4    0    0 -0.17629837466E+02  0.57058871935E+02 -0.69282242368E+02  0.91468875270E+02  0.00000000000E+00 0. -1.
        -14    1    4    4    0    0 -0.68588683263E+01 -0.65728630132E+01  0.79924260384E+01  0.12414728225E+02  0.00000000000E+00 0.  1.
</event>
<event>
12    1  0.8356052E-002  0.1806871E+03  0.7818608E-02  0.1167175E+00
         21   -1    0    0  501  502  0.00000000000E+00  0.00000000000E+00  0.66097617006E+03  0.66097617006E+03  0.00000000000E+00 0. -1.
         21   -1    0    0  502  503 -0.00000000000E+00 -0.00000000000E+00 -0.57475694695E+02  0.57475694695E+02  0.00000000000E+00 0. -1.
         -6    2    1    2    0  503 -0.11632330291E+02 -0.56228226829E+02  0.16659935821E+03  0.24566184800E+03  0.17116504552E+03 0.  0.
        -24    2    3    3    0    0 -0.57664038074E+02 -0.79719520057E+02  0.13481315851E+03  0.18480783030E+03  0.79366260258E+02 0.  0.
          6    2    1    2  501    0  0.11632330291E+02  0.56228226829E+02  0.43690111716E+03  0.47279001676E+03  0.17132101205E+03 0.  0.
         24    2    5    5    0    0  0.73625433183E+02  0.29444004604E+02  0.30477207707E+03  0.32432886830E+03  0.77559925435E+02 0.  0.
          5    1    5    5  501    0 -0.61993102892E+02  0.26784222224E+02  0.13212904009E+03  0.14846114846E+03  0.47000000000E+01 0. -1.
        -11    1    6    6    0    0 -0.24687490736E+01 -0.19891573160E+02  0.48229924719E+02  0.52229254668E+02  0.00000000000E+00 0.  1.
         12    1    6    6    0    0  0.76094182257E+02  0.49335577764E+02  0.25654215235E+03  0.27209961363E+03  0.00000000000E+00 0. -1.
         -5    1    3    3    0  503  0.46031707782E+02  0.23491293228E+02  0.31786199697E+02  0.60854017699E+02  0.47000000000E+01 0.  1.
         11    1    4    4    0    0 -0.26026013770E+02 -0.67073691678E+02  0.36332030003E+02  0.80599317070E+02  0.00000000000E+00 0. -1.
        -12    1    4    4    0    0 -0.31638024303E+02 -0.12645828379E+02  0.98481128509E+02  0.10420851323E+03  0.00000000000E+00 0.  1.
</event>
<event>
12    1  0.8356052E-002  0.1759209E+03  0.7818608E-02  0.1171954E+00
         21   -1    0    0  501  502  0.00000000000E+00  0.00000000000E+00  0.10527736088E+04  0.10527736088E+04  0.00000000000E+00 0.  1.
         21   -1    0    0  502  503 -0.00000000000E+00 -0.00000000000E+00 -0.30296384976E+02  0.30296384976E+02  0.00000000000E+00 0.  1.
         -6    2    1    2    0  503 -0.34524771472E+02  0.20467433605E+02  0.61023068441E+03  0.63508239598E+03  0.17128130604E+03 0.  0.
        -24    2    3    3    0    0 -0.12839021752E+02 -0.24721608680E+02  0.16833067655E+03  0.19032400287E+03  0.84332739717E+02 0.  0.
          6    2    1    2  501    0  0.34524771472E+02 -0.20467433605E+02  0.41224653940E+03  0.44798759779E+03  0.17068919954E+03 0.  0.
         24    2    5    5    0    0  0.11211119565E+02 -0.69698263083E+02  0.34520904618E+03  0.36148143365E+03  0.80721770493E+02 0.  0.
          5    1    5    5  501    0  0.23313651907E+02  0.49230829478E+02  0.67037493226E+02  0.86506164141E+02  0.47000000000E+01 0. -1.
        -13    1    6    6    0    0 -0.14706680570E+02 -0.30044350782E+02  0.27349699355E+03  0.27553503398E+03  0.00000000000E+00 0.  1.
         14    1    6    6    0    0  0.25917800135E+02 -0.39653912301E+02  0.71712052624E+02  0.85946399670E+02  0.00000000000E+00 0. -1.
         -5    1    3    3    0  503 -0.21685749720E+02  0.45189042284E+02  0.44190000787E+03  0.44475839310E+03  0.47000000000E+01 0.  1.
         11    1    4    4    0    0 -0.29153287939E+02 -0.22677722502E+02  0.16984313709E+03  0.17381278581E+03  0.00000000000E+00 0. -1.
        -12    1    4    4    0    0  0.16314266186E+02 -0.20438861775E+01 -0.15124605447E+01  0.16511217060E+02  0.00000000000E+00 0.  1.
</event>
<event>
12    1  0.8356052E-002  0.2078642E+03  0.7818608E-02  0.1143489E+00
         21   -1    0    0  501  502  0.00000000000E+00  0.00000000000E+00  0.33175621627E+03  0.33175621627E+03  0.00000000000E+00 0.  1.
         21   -1    0    0  502  503 -0.00000000000E+00 -0.00000000000E+00 -0.42939559975E+03  0.42939559975E+03  0.00000000000E+00 0.  1.
         -6    2    1    2    0  503 -0.10906029705E+03 -0.40701143668E+02 -0.36688140620E+03  0.42167462379E+03  0.17221147072E+03 0.  0.
        -24    2    3    3    0    0 -0.49496004665E+02 -0.65325067077E+02 -0.11130176778E+03  0.15805124830E+03  0.76647861757E+02 0.  0.
          6    2    1    2  501    0  0.10906029705E+03  0.40701143668E+02  0.26924202271E+03  0.33947719223E+03  0.17088816742E+03 0.  0.
         24    2    5    5    0    0  0.56707144076E+02 -0.42442247542E+02  0.15997831399E+03  0.19245908392E+03  0.80189734197E+02 0.  0.
          5    1    5    5  501    0  0.52353152975E+02  0.83143391209E+02  0.10926370872E+03  0.14701810831E+03  0.47000000000E+01 0. -1.
        -11    1    6    6    0    0 -0.36720393629E+01 -0.11729389039E+02  0.10359854446E+03  0.10432507299E+03  0.00000000000E+00 0.  1.
         12    1    6    6    0    0  0.60379183439E+02 -0.30712858502E+02  0.56379769528E+02  0.88134010928E+02  0.00000000000E+00 0. -1.
         -5    1    3    3    0  503 -0.59564292386E+02  0.24623923410E+02 -0.25557963842E+03  0.26362337549E+03  0.47000000000E+01 0.  1.
         11    1    4    4    0    0 -0.40293849975E+02 -0.75277433623E+02 -0.11570596349E+03  0.14379901372E+03  0.00000000000E+00 0. -1.
        -12    1    4    4    0    0 -0.92021546904E+01  0.99523665460E+01  0.44041957093E+01  0.14252234585E+02  0.00000000000E+00 0.  1.
</event>
<event>
12    1  0.8356052E-002  0.1895039E+03  0.7818608E-02  0.1160519E+00
         21   -1    0    0  503  502  0.00000000000E+00  0.00000000000E+00  0.93775407031E+02  0.93775407031E+02  0.00000000000E+00 0. -1.
         21   -1    0    0  501  503 -0.00000000000E+00 -0.00000000000E+00 -0.44610916645E+03  0.44610916645E+03  0.00000000000E+00 0. -1.
          6    2    1    2  501    0  0.36708149683E+02  0.45830506560E+02 -0.28565139389E+03  0.33899088371E+03  0.17282990720E+03 0.  0.
         24    2    3    3    0    0  0.35290540148E+02 -0.34491533794E+02 -0.12978083508E+03  0.16357320819E+03  0.86475667988E+02 0.  0.
         -6    2    1    2    0  502 -0.36708149683E+02 -0.45830506560E+02 -0.66682365533E+02  0.20089368977E+03  0.18017717151E+03 0.  0.
        -24    2    5    5    0    0 -0.77893420764E+01 -0.12119312149E+02 -0.10805736163E+03  0.14001083205E+03  0.87858341167E+02 0.  0.
          5    1    3    3  501    0  0.14176095352E+01  0.80322040354E+02 -0.15587055880E+03  0.17541767552E+03  0.47000000000E+01 0. -1.
        -11    1    4    4    0    0  0.54676062370E+02 -0.21890237950E+02 -0.12736908139E+03  0.14032653779E+03  0.00000000000E+00 0.  1.
         12    1    4    4    0    0 -0.19385522222E+02 -0.12601295844E+02 -0.24117536965E+01  0.23246670400E+02  0.00000000000E+00 0. -1.
         -5    1    5    5    0  502 -0.28918807606E+02 -0.33711194411E+02  0.41374996099E+02  0.60882857720E+02  0.47000000000E+01 0.  1.
         13    1    6    6    0    0 -0.38522387197E+02 -0.32843298985E+02 -0.50165330826E+02  0.71268625779E+02  0.00000000000E+00 0. -1.
        -14    1    6    6    0    0  0.30733045120E+02  0.20723986836E+02 -0.57892030806E+02  0.68742206275E+02  0.00000000000E+00 0.  1.
</event>
<event>
12    1  0.8356052E-002  0.1978279E+03  0.7818608E-02  0.1152024E+00
         21   -1    0    0  501  502  0.00000000000E+00  0.00000000000E+00  0.26579477870E+03  0.26579477870E+03  0.00000000000E+00 0.  1.
         21   -1    0    0  502  503 -0.00000000000E+00 -0.00000000000E+00 -0.36522478280E+03  0.36522478280E+03  0.00000000000E+00 0.  1.
         -6    2    1    2    0  503 -0.78744193111E+02  0.55339866820E+02 -0.29420642252E+03  0.35339803212E+03  0.17049809747E+03 0.  0.
        -24    2    3    3    0    0 -0.76163561967E+02  0.45606260851E+02 -0.86763327576E+02  0.14565749591E+03  0.76206377041E+02 0.  0.
          6    2    1    2  501    0  0.78744193111E+02 -0.55339866820E+02  0.19477641843E+03  0.27762152939E+03  0.17283724019E+03 0.  0.
         24    2    5    5    0    0  0.56254969443E+02  0.31702822084E+02  0.75423289414E+02  0.12812419069E+03  0.80978053438E+02 0.  0.
          5    1    5    5  501    0  0.22489223668E+02 -0.87042688904E+02  0.11935312901E+03  0.14949733870E+03  0.47000000000E+01 0. -1.
        -13    1    6    6    0    0  0.35906195488E+02  0.17875354720E+02 -0.82152596934E+01  0.40942321290E+02  0.00000000000E+00 0.  1.
         14    1    6    6    0    0  0.20348773955E+02  0.13827467364E+02  0.83638549107E+02  0.87181869399E+02  0.00000000000E+00 0. -1.
         -5    1    3    3    0  503 -0.25806311438E+01  0.97336059689E+01 -0.20744309495E+03  0.20774053621E+03  0.47000000000E+01 0.  1.
         13    1    4    4    0    0 -0.93009836660E+01  0.47443229417E+02 -0.24175373481E+02  0.54053834254E+02  0.00000000000E+00 0. -1.
        -14    1    4    4    0    0 -0.66862578301E+02 -0.18369685655E+01 -0.62587954095E+02  0.91603661654E+02  0.00000000000E+00 0.  1.
</event>
<event>
12    1  0.8356052E-002  0.2153532E+03  0.7818608E-02  0.1137650E+00
         21   -1    0    0  503  502  0.00000000000E+00  0.00000000000E+00  0.15707509142E+04  0.15707509142E+04  0.00000000000E+00 0.  1.
         21   -1    0    0  501  503 -0.00000000000E+00 -0.00000000000E+00 -0.29849129610E+02  0.29849129610E+02  0.00000000000E+00 0. -1.
          6    2    1    2  501    0 -0.11549335431E+03 -0.55132116370E+02  0.66871258434E+03  0.70253365830E+03  0.17320148796E+03 0.  0.
         24    2    3    3    0    0 -0.50408295028E+02 -0.63592437071E+02  0.19837484150E+03  0.22761542921E+03  0.76623831909E+02 0.  0.
         -6    2    1    2    0  502  0.11549335431E+03  0.55132116370E+02  0.87218920025E+03  0.89806638552E+03  0.17155455873E+03 0.  0.
        -24    2    5    5    0    0  0.65483996148E+02 -0.14743155248E+02  0.26731559939E+03  0.28710185913E+03  0.80401078729E+02 0.  0.
          5    1    3    3  501    0 -0.65085059284E+02  0.84603207008E+01  0.47033774285E+03  0.47491822908E+03  0.47000000000E+01 0. -1.
        -11    1    4    4    0    0  0.19338485682E+02 -0.25672714299E+02  0.53382190433E+02  0.62311504101E+02  0.00000000000E+00 0.  1.
         12    1    4    4    0    0 -0.69746780711E+02 -0.37919722772E+02  0.14499265106E+03  0.16530392511E+03  0.00000000000E+00 0. -1.
         -5    1    5    5    0  502  0.50009358164E+02  0.69875271618E+02  0.60487360086E+03  0.61096452638E+03  0.47000000000E+01 0.  1.
         13    1    6    6    0    0  0.83143311764E+02 -0.20019946968E+02  0.23211324101E+03  0.24736645937E+03  0.00000000000E+00 0. -1.
        -14    1    6    6    0    0 -0.17659315615E+02  0.52767917195E+01  0.35202358380E+02  0.39735399763E+02  0.00000000000E+00 0.  1.
</event>
<event>
12    1  0.8356052E-002  0.2233622E+03  0.7818608E-02  0.1131529E+00
         21   -1    0    0  503  502  0.00000000000E+00  0.00000000000E+00  0.23089035579E+03  0.23089035579E+03  0.00000000000E+00 0.  1.
         21   -1    0    0  501  503 -0.00000000000E+00 -0.00000000000E+00 -0.85181442041E+03  0.85181442041E+03  0.00000000000E+00 0.  1.
          6    2    1    2  501    0  0.13781390756E+03 -0.37129790559E+02 -0.77851073900E+03  0.80991953552E+03  0.17181207416E+03 0.  0.
         24    2    3    3    0    0  0.15085984475E+03 -0.65719328635E+02 -0.56204885292E+03  0.59113791773E+03  0.80420157828E+02 0.  0.
         -6    2    1    2    0  502 -0.13781390756E+03  0.37129790559E+02  0.15758667437E+03  0.27278524067E+03  0.17090036022E+03 0.  0.
        -24    2    5    5    0    0 -0.14372883868E+03 -0.20125335857E+02  0.12918242335E+03  0.20842665626E+03  0.75435829201E+02 0.  0.
          5    1    3    3  501    0 -0.13045937191E+02  0.28589538075E+02 -0.21646188607E+03  0.21878161780E+03  0.47000000000E+01 0. -1.
        -11    1    4    4    0    0  0.14957757593E+03 -0.49351940541E+02 -0.42754103418E+03  0.45563187023E+03  0.00000000000E+00 0.  1.
         12    1    4    4    0    0  0.12822688234E+01 -0.16367388093E+02 -0.13450781874E+03  0.13550604750E+03  0.00000000000E+00 0. -1.
         -5    1    5    5    0  502  0.59149311148E+01  0.57255126416E+02  0.28404251020E+02  0.64358584408E+02  0.47000000000E+01 0.  1.
         13    1    6    6    0    0  0.19486285374E+01 -0.16909143392E+02  0.20505821478E+02  0.26649671629E+02  0.00000000000E+00 0. -1.
        -14    1    6    6    0    0 -0.14567746721E+03 -0.32161924644E+01  0.10867660187E+03  0.18177698463E+03  0.00000000000E+00 0.  1.
</event>
<event>
12    1  0.8356052E-002  0.2158933E+03  0.7818608E-02  0.1137134E+00
         21   -1    0    0  503  502  0.00000000000E+00  0.00000000000E+00  0.10863180087E+04  0.10863180087E+04  0.00000000000E+00 0.  1.
         21   -1    0    0  501  503 -0.00000000000E+00 -0.00000000000E+00 -0.64747765520E+02  0.64747765520E+02  0.00000000000E+00 0. -1.
          6    2    1    2  501    0  0.32578814983E+01 -0.12980780209E+03  0.17593466844E+03  0.27850118776E+03  0.17247963576E+03 0.  0.
         24    2    3    3    0    0  0.23518012836E+02 -0.10124771263E+03  0.65098963708E+02  0.16217064545E+03  0.10610017403E+03 0.  0.
         -6    2    1    2    0  502 -0.32578814983E+01  0.12980780209E+03  0.84563557473E+03  0.87256458644E+03  0.17148980433E+03 0.  0.
        -24    2    5    5    0    0  0.72188392682E+01  0.33534906681E+01  0.22099617205E+03  0.23515033500E+03  0.79956328407E+02 0.  0.
          5    1    3    3  501    0 -0.20260131338E+02 -0.28560089465E+02  0.11083570473E+03  0.11633054231E+03  0.47000000000E+01 0. -1.
        -11    1    4    4    0    0  0.17536282749E+02 -0.10036608104E+03  0.90368010504E+02  0.13618828422E+03  0.00000000000E+00 0.  1.
         12    1    4    4    0    0  0.59817300864E+01 -0.88163158188E+00 -0.25269046795E+02  0.25982361229E+02  0.00000000000E+00 0. -1.
         -5    1    5    5    0  502 -0.10476720766E+02  0.12645431142E+03  0.62463940268E+03  0.63741425144E+03  0.47000000000E+01 0.  1.
         11    1    6    6    0    0  0.21301036408E+02 -0.31555105139E+02  0.15042135099E+03  0.15516456311E+03  0.00000000000E+00 0. -1.
        -12    1    6    6    0    0 -0.14082197140E+02  0.34908595807E+02  0.70574821056E+02  0.79985771889E+02  0.00000000000E+00 0.  1.
</event>
<event>
12    1  0.8356052E-002  0.2717978E+03  0.7818608E-02  0.1100599E+00
         21   -1    0    0  503  502  0.00000000000E+00  0.00000000000E+00  0.15615850081E+03  0.15615850081E+03  0.00000000000E+00 0. -1.
         21   -1    0    0  501  503 -0.00000000000E+00 -0.00000000000E+00 -0.47209847290E+03  0.47209847290E+03  0.00000000000E+00 0.  1.
          6    2    1    2  501    0  0.51947566057E+02 -0.20471163351E+03 -0.13272148525E+03  0.30247157391E+03  0.17108085184E+03 0.  0.
         24    2    3    3    0    0  0.10024234799E+02 -0.21389081772E+03 -0.10684896875E+03  0.25213967313E+03  0.79422575231E+02 0.  0.
         -6    2    1    2    0  502 -0.51947566057E+02  0.20471163351E+03 -0.18321848685E+03  0.32578539980E+03  0.16721755375E+03 0.  0.
        -24    2    5    5    0    0  0.30513764636E+02  0.10788139822E+03 -0.63607008013E+02  0.15112870398E+03  0.78895803326E+02 0.  0.
          5    1    3    3  501    0  0.41923331259E+02  0.91791842056E+01 -0.25872516501E+02  0.50331900785E+02  0.47000000000E+01 0. -1.
        -13    1    4    4    0    0 -0.28845035566E+02 -0.54147859724E+02 -0.46603921299E+02  0.77045131384E+02  0.00000000000E+00 0.  1.
         14    1    4    4    0    0  0.38869270364E+02 -0.15974295799E+03 -0.60245047448E+02  0.17509454175E+03  0.00000000000E+00 0. -1.
         -5    1    5    5    0  502 -0.82461330693E+02  0.96830235289E+02 -0.11961147883E+03  0.17465669582E+03  0.47000000000E+01 0.  1.
         11    1    6    6    0    0 -0.26328600891E+01 -0.12204722110E+02 -0.67010913490E+01  0.14170103010E+02  0.00000000000E+00 0. -1.
        -12    1    6    6    0    0  0.33146624725E+02  0.12008612033E+03 -0.56905916664E+02  0.13695860097E+03  0.00000000000E+00 0.  1.
</event>
<event>
12    1  0.8356052E-002  0.1811269E+03  0.7818608E-02  0.1166782E+00
         21   -1    0    0  501  502  0.00000000000E+00  0.00000000000E+00  0.29647943627E+03  0.29647943627E+03  0.00000000000E+00 0. -1.
         21   -1    0    0  502  503 -0.00000000000E+00 -0.00000000000E+00 -0.12700565740E+03  0.12700565740E+03  0.00000000000E+00 0. -1.
         -6    2    1    2    0  503 -0.31302385762E+02 -0.48408537777E+02  0.84360339920E+01  0.18132326317E+03  0.17170827940E+03 0.  0.
        -24    2    3    3    0    0  0.43864665646E+02 -0.14654326475E+02 -0.17946808776E+02  0.94676989217E+02  0.80639854696E+02 0.  0.
          6    2    1    2  501    0  0.31302385762E+02  0.48408537777E+02  0.16103774488E+03  0.24216183050E+03  0.17142336769E+03 0.  0.
         24    2    5    5    0    0  0.11681744006E+02  0.48332255251E+01  0.79862053535E+01  0.81754096360E+02  0.80374931314E+02 0.  0.
          5    1    5    5  501    0  0.19620641757E+02  0.43575312252E+02  0.15305153953E+03  0.16040773414E+03  0.47000000000E+01 0. -1.
        -13    1    6    6    0    0 -0.19026472236E+02  0.29230759094E+02 -0.13061375192E+02  0.37243032165E+02  0.00000000000E+00 0.  1.
         14    1    6    6    0    0  0.30708216242E+02 -0.24397533569E+02  0.21047580545E+02  0.44511064195E+02  0.00000000000E+00 0. -1.
         -5    1    3    3    0  503 -0.75167051408E+02 -0.33754211302E+02  0.26382842768E+02  0.86646273956E+02  0.47000000000E+01 0.  1.
         13    1    4    4    0    0  0.35011007076E+02 -0.19865788352E+02 -0.48158246922E+02  0.62766526986E+02  0.00000000000E+00 0. -1.
        -14    1    4    4    0    0  0.88536585698E+01  0.52114618769E+01  0.30211438146E+02  0.31910462231E+02  0.00000000000E+00 0.  1.
</event>
<event>
12    1  0.8356052E-002  0.1775154E+03  0.7818608E-02  0.1170560E+00
         21   -1    0    0  501  502  0.00000000000E+00  0.00000000000E+00  0.30178897906E+02  0.30178897906E+02  0.00000000000E+00 0. -1.
         21   -1    0    0  502  503 -0.00000000000E+00 -0.00000000000E+00 -0.16579355424E+04  0.16579355424E+04  0.00000000000E+00 0. -1.
         -6    2    1    2    0  503  0.23798315627E+02  0.27873128294E+02 -0.13287849523E+04  0.13404136996E+04  0.17232575402E+03 0.  0.
        -24    2    3    3    0    0 -0.94136172645E+01  0.75736043043E+02 -0.10258840660E+04  0.10319255669E+04  0.81287725627E+02 0.  0.
          6    2    1    2  501    0 -0.23798315627E+02 -0.27873128294E+02 -0.29897169223E+03  0.34770074075E+03  0.17369070572E+03 0.  0.
         24    2    5    5    0    0 -0.74276483346E+02  0.60991252194E-01 -0.12962179831E+03  0.16873192496E+03  0.78432469087E+02 0.  0.
          5    1    5    5  501    0  0.50478167719E+02 -0.27934119546E+02 -0.16934989392E+03  0.17896881578E+03  0.47000000000E+01 0. -1.
        -11    1    6    6    0    0 -0.18265953311E+02  0.27375976017E+02 -0.87582127736E+02  0.93561307238E+02  0.00000000000E+00 0.  1.
         12    1    6    6    0    0 -0.56010530034E+02 -0.27314984764E+02 -0.42039670571E+02  0.75170617724E+02  0.00000000000E+00 0. -1.
         -5    1    3    3    0  503  0.33211932891E+02 -0.47862914749E+02 -0.30290088627E+03  0.30848813267E+03  0.47000000000E+01 0.  1.
         11    1    4    4    0    0 -0.11932747029E+02  0.22080801756E+02 -0.77264339181E+03  0.77305094474E+03  0.00000000000E+00 0. -1.
        -12    1    4    4    0    0  0.25191297644E+01  0.53655241287E+02 -0.25324067421E+03  0.25887462218E+03  0.00000000000E+00 0.  1.
</event>
<event>
12    1  0.8356052E-002  0.1921763E+03  0.7818608E-02  0.1156542E+00
         21   -1    0    0  501  502  0.00000000000E+00  0.00000000000E+00  0.13403169275E+03  0.13403169275E+03  0.00000000000E+00 0.  1.
         21   -1    0    0  502  503 -0.00000000000E+00 -0.00000000000E+00 -0.50627018567E+03  0.50627018567E+03  0.00000000000E+00 0.  1.
         -6    2    1    2    0  503  0.54677352309E+02  0.60158604874E+02 -0.40229978240E+03  0.44578856647E+03  0.17399327713E+03 0.  0.
        -24    2    3    3    0    0  0.68786330441E+02  0.75617431727E+02 -0.40382291772E+03  0.42428394993E+03  0.80587629658E+02 0.  0.
          6    2    1    2  501    0 -0.54677352309E+02 -0.60158604874E+02  0.30061289479E+02  0.19451331194E+03  0.17413522561E+03 0.  0.
         24    2    5    5    0    0  0.25253949265E+02 -0.36283210648E+02  0.56021102658E+02  0.10702017323E+03  0.79754123444E+02 0.  0.
          5    1    5    5  501    0 -0.79931301574E+02 -0.23875394226E+02 -0.25959813179E+02  0.87493138708E+02  0.47000000000E+01 0. -1.
        -11    1    6    6    0    0  0.21325909643E+02 -0.49823485921E+02  0.69080504003E+02  0.87802563771E+02  0.00000000000E+00 0.  1.
         12    1    6    6    0    0  0.39280396218E+01  0.13540275273E+02 -0.13059401345E+02  0.19217609457E+02  0.00000000000E+00 0. -1.
         -5    1    3    3    0  503 -0.14108978132E+02 -0.15458826853E+02  0.15231353213E+01  0.21504616546E+02  0.47000000000E+01 0.  1.
         11    1    4    4    0    0  0.43156208584E+02  0.99181605329E+00 -0.79104167772E+02  0.90116099546E+02  0.00000000000E+00 0. -1.
        -12    1    4    4    0    0  0.25630121856E+02  0.74625615673E+02 -0.32471874995E+03  0.33416785038E+03  0.00000000000E+00 0.  1.
</event>
<event>
12    1  0.8356052E-002  0.1752748E+03  0.7818608E-02  0.1172709E+00
         21   -1    0    0  501  502  0.00000000000E+00  0.00000000000E+00  0.66012801733E+03  0.66012801733E+03  0.00000000000E+00 0.  1.
         21   -1    0    0  502  503 -0.00000000000E+00 -0.00000000000E+00 -0.86332916086E+02  0.86332916086E+02  0.00000000000E+00 0.  1.
         -6    2    1    2    0  503 -0.33616697613E+02  0.63192522187E+01  0.32211693232E+02  0.17722122374E+03  0.17087935410E+03 0.  0.
        -24    2    3    3    0    0 -0.80956974150E+02  0.32720208473E+01  0.52454395521E+02  0.12543083470E+03  0.80104262678E+02 0.  0.
          6    2    1    2  501    0  0.33616697613E+02 -0.63192522187E+01  0.54158340801E+03  0.56923970967E+03  0.17190475248E+03 0.  0.
         24    2    5    5    0    0  0.75248649906E+02 -0.29623238043E+02  0.26294452668E+03  0.28650659983E+03  0.80039440866E+02 0.  0.
          5    1    5    5  501    0 -0.41631952293E+02  0.23303985825E+02  0.27863888133E+03  0.28273310984E+03  0.47000000000E+01 0. -1.
        -13    1    6    6    0    0 -0.27162912371E+01  0.20428759013E+02  0.37981656312E+02  0.43212482561E+02  0.00000000000E+00 0.  1.
         14    1    6    6    0    0  0.77964941143E+02 -0.50051997056E+02  0.22496287037E+03  0.24329411727E+03  0.00000000000E+00 0. -1.
         -5    1    3    3    0  503  0.47340276537E+02  0.30472313713E+01 -0.20242702289E+02  0.51790389047E+02  0.47000000000E+01 0.  1.
         11    1    4    4    0    0  0.14318920954E+02  0.14416103145E+01  0.20249523678E+02  0.24842563208E+02  0.00000000000E+00 0. -1.
        -12    1    4    4    0    0 -0.95275895104E+02  0.18304105328E+01  0.32204871843E+02  0.10058827149E+03  0.00000000000E+00 0.  1.
</event>
<event>
12    1  0.8356052E-002  0.1994380E+03  0.7818608E-02  0.1150251E+00
         21   -1    0    0  503  502  0.00000000000E+00  0.00000000000E+00  0.13478935414E+04  0.13478935414E+04  0.00000000000E+00 0. -1.
         21   -1    0    0  501  503 -0.00000000000E+00 -0.00000000000E+00 -0.42233159480E+02  0.42233159480E+02  0.00000000000E+00 0. -1.
          6    2    1    2  501    0 -0.59417697956E+02  0.80523160693E+02  0.27072839115E+03  0.33615339728E+03  0.17231019265E+03 0.  0.
         24    2    3    3    0    0 -0.28548721400E+02  0.47129921803E+02  0.47314951571E+02  0.10811029368E+03  0.80080409175E+02 0.  0.
         -6    2    1    2    0  502  0.59417697956E+02 -0.80523160693E+02  0.10349319908E+04  0.10539733036E+04  0.17251393261E+03 0.  0.
        -24    2    5    5    0    0  0.96196376638E+01  0.21184213837E+02  0.34410035365E+03  0.35390567994E+03  0.79390607575E+02 0.  0.
          5    1    3    3  501    0 -0.30868976556E+02  0.33393238890E+02  0.22341343958E+03  0.22804310360E+03  0.47000000000E+01 0. -1.
        -13    1    4    4    0    0  0.90314635174E+01 -0.18183814363E+02  0.18397396046E+02  0.27398587907E+02  0.00000000000E+00 0.  1.
         14    1    4    4    0    0 -0.37580184918E+02  0.65313736166E+02  0.28917555525E+02  0.80711705768E+02  0.00000000000E+00 0. -1.
         -5    1    5    5    0  502  0.49798060292E+02 -0.10170737453E+03  0.69083163710E+03  0.70006762364E+03  0.47000000000E+01 0.  1.
         11    1    6    6    0    0 -0.71351576268E+01 -0.16104973291E+02  0.25792079128E+03  0.25852159525E+03  0.00000000000E+00 0. -1.
        -12    1    6    6    0    0  0.16754795291E+02  0.37289187128E+02  0.86179562371E+02  0.95384084691E+02  0.00000000000E+00 0.  1.
</event>
<event>
12    1  0.8356052E-002  0.2948825E+03  0.7818608E-02  0.1089179E+00
         21   -1    0    0  503  502  0.00000000000E+00  0.00000000000E+00  0.10470421374E+04  0.10470421374E+04  0.00000000000E+00 0. -1.
         21   -1    0    0  501  503 -0.00000000000E+00 -0.00000000000E+00 -0.24160627967E+03  0.24160627967E+03  0.00000000000E+00 0.  1.
          6    2    1    2  501    0 -0.16727677700E+03 -0.15277696146E+03 -0.12157552808E+03  0.31896131783E+03  0.18876809361E+03 0.  0.
         24    2    3    3    0    0 -0.19008169678E+03 -0.99999186610E+02 -0.12501288727E+03  0.26117322803E+03  0.80326485557E+02 0.  0.
         -6    2    1    2    0  502  0.16727677700E+03  0.15277696146E+03  0.92701138576E+03  0.96968709921E+03  0.17210648146E+03 0.  0.
        -24    2    5    5    0    0  0.19548381998E+03  0.13482913927E+03  0.83876659793E+03  0.87520432736E+03  0.77848495004E+02 0.  0.
          5    1    3    3  501    0  0.22804919777E+02 -0.52777774848E+02  0.34373591989E+01  0.57788089796E+02  0.47000000000E+01 0. -1.
        -13    1    4    4    0    0 -0.12100356336E+03 -0.87826090967E+02 -0.11840074654E+03  0.19071974565E+03  0.00000000000E+00 0.  1.
         14    1    4    4    0    0 -0.69078133424E+02 -0.12173095643E+02 -0.66121407384E+01  0.70453482384E+02  0.00000000000E+00 0. -1.
         -5    1    5    5    0  502 -0.28207042973E+02  0.17947822192E+02  0.88244787835E+02  0.94482771841E+02  0.47000000000E+01 0.  1.
         13    1    6    6    0    0  0.11932739156E+03  0.89085269529E+02  0.64615323025E+03  0.66309064885E+03  0.00000000000E+00 0. -1.
        -14    1    6    6    0    0  0.76156428416E+02  0.45743869737E+02  0.19261336767E+03  0.21211367852E+03  0.00000000000E+00 0.  1.
</event>
<event>
12    1  0.8356052E-002  0.1938400E+03  0.7818608E-02  0.1155062E+00
         21   -1    0    0  501  502  0.00000000000E+00  0.00000000000E+00  0.43407854595E+03  0.43407854595E+03  0.00000000000E+00 0. -1.
         21   -1    0    0  502  503 -0.00000000000E+00 -0.00000000000E+00 -0.88121344021E+02  0.88121344021E+02  0.00000000000E+00 0.  1.
         -6    2    1    2    0  503 -0.86338752154E+01 -0.88837859040E+02  0.13775830766E+03  0.23773417466E+03  0.17196940854E+03 0.  0.
        -24    2    3    3    0    0  0.23774178355E+02  0.94370997856E+01  0.91975156169E+02  0.12448031632E+03  0.79885226359E+02 0.  0.
          6    2    1    2  501    0  0.86338752154E+01  0.88837859040E+02  0.20819889426E+03  0.28446571531E+03  0.17206758734E+03 0.  0.
         24    2    5    5    0    0  0.19162342169E+01 -0.21383296205E+02  0.96438074424E+02  0.12728301710E+03  0.80248033827E+02 0.  0.
          5    1    5    5  501    0  0.67176409985E+01  0.11022115525E+03  0.11176081984E+03  0.15718269821E+03  0.47000000000E+01 0. -1.
        -13    1    6    6    0    0 -0.16195324171E+02  0.15057674649E+02 -0.53220596665E+00  0.22120247151E+02  0.00000000000E+00 0.  1.
         14    1    6    6    0    0  0.18111558388E+02 -0.36440970854E+02  0.96970280391E+02  0.10516276995E+03  0.00000000000E+00 0. -1.
         -5    1    3    3    0  503 -0.32408053570E+02 -0.98274958825E+02  0.45783151492E+02  0.11325385834E+03  0.47000000000E+01 0.  1.
         13    1    4    4    0    0 -0.12138599090E+02  0.34466510269E+02  0.60074702341E+02  0.70315402149E+02  0.00000000000E+00 0. -1.
        -14    1    4    4    0    0  0.35912777445E+02 -0.25029410483E+02  0.31900453828E+02  0.54164914173E+02  0.00000000000E+00 0.  1.
</event>
<event>
12    1  0.8356052E-002  0.1771543E+03  0.7818608E-02  0.1170719E+00
         21   -1    0    0  501  502  0.00000000000E+00  0.00000000000E+00  0.10193226298E+04  0.10193226298E+04  0.00000000000E+00 0.  1.
         21   -1    0    0  502  503 -0.00000000000E+00 -0.00000000000E+00 -0.81411120209E+02  0.81411120209E+02  0.00000000000E+00 0.  1.
         -6    2    1    2    0  503 -0.41657926274E+02  0.25451138649E+02  0.34297007872E+02  0.17991735896E+03  0.16973752687E+03 0.  0.
        -24    2    3    3    0    0 -0.91980103225E+02  0.16011603983E+02  0.13309227157E+02  0.12438355622E+03  0.81101311204E+02 0.  0.
          6    2    1    2  501    0  0.41657926274E+02 -0.25451138649E+02  0.90361450170E+03  0.92081639102E+03  0.17029537580E+03 0.  0.
         24    2    5    5    0    0 -0.34478691795E+02  0.76308169578E+01  0.60727529024E+03  0.61303364517E+03  0.76026064078E+02 0.  0.
          5    1    5    5  501    0  0.76136618069E+02 -0.33081955607E+02  0.29633921145E+03  0.30778274585E+03  0.47000000000E+01 0. -1.
        -11    1    6    6    0    0  0.13369601694E+02 -0.21757721237E+02  0.25958773219E+03  0.26084082385E+03  0.00000000000E+00 0.  1.
         12    1    6    6    0    0 -0.47848293490E+02  0.29388538195E+02  0.34768755806E+03  0.35219282133E+03  0.00000000000E+00 0. -1.
         -5    1    3    3    0  503  0.50322176952E+02  0.94395346663E+01  0.20987780715E+02  0.55533802744E+02  0.47000000000E+01 0.  1.
         11    1    4    4    0    0  0.47341996614E+01 -0.19903033201E+02  0.34346218644E+01  0.20744637968E+02  0.00000000000E+00 0. -1.
        -12    1    4    4    0    0 -0.96714302887E+02  0.35914637184E+02  0.98746052928E+01  0.10363891825E+03  0.00000000000E+00 0.  1.
</event>
<event>
12    1  0.8356052E-002  0.1924256E+03  0.7818608E-02  0.1156466E+00
         21   -1    0    0  501  502  0.00000000000E+00  0.00000000000E+00  0.33118241246E+03  0.33118241246E+03  0.00000000000E+00 0. -1.
         21   -1    0    0  502  503 -0.00000000000E+00 -0.00000000000E+00 -0.32665629829E+03  0.32665629829E+03  0.00000000000E+00 0. -1.
         -6    2    1    2    0  503 -0.76516944419E+02  0.37841920726E+02 -0.26477337245E+03  0.32731108839E+03  0.17245508423E+03 0.  0.
        -24    2    3    3    0    0 -0.61305363245E+02  0.25187985653E+02 -0.55780080466E+02  0.11733061223E+03  0.79134524738E+02 0.  0.
          6    2    1    2  501    0  0.76516944419E+02 -0.37841920726E+02  0.26929948661E+03  0.33052762236E+03  0.17157925838E+03 0.  0.
         24    2    5    5    0    0  0.10738908960E+03 -0.87839335291E+01  0.25065677650E+03  0.28397553746E+03  0.78763647807E+02 0.  0.
          5    1    5    5  501    0 -0.30872145184E+02 -0.29057987197E+02  0.18642710108E+02  0.46552084898E+02  0.47000000000E+01 0. -1.
        -11    1    6    6    0    0  0.57836472090E+02  0.29669543463E+02  0.16856752145E+03  0.18066640142E+03  0.00000000000E+00 0.  1.
         12    1    6    6    0    0  0.49552617512E+02 -0.38453476992E+02  0.82089255050E+02  0.10330913604E+03  0.00000000000E+00 0. -1.
         -5    1    3    3    0  503 -0.15211581173E+02  0.12653935073E+02 -0.20899329198E+03  0.20998047616E+03  0.47000000000E+01 0.  1.
         11    1    4    4    0    0 -0.25258702990E+02  0.12586741423E+02 -0.70861615631E+02  0.76274482668E+02  0.00000000000E+00 0. -1.
        -12    1    4    4    0    0 -0.36046660256E+02  0.12601244230E+02  0.15081535165E+02  0.41056129562E+02  0.00000000000E+00 0.  1.
</event>
<event>
12    1  0.8356052E-002  0.2340962E+03  0.7818608E-02  0.1124040E+00
         21   -1    0    0  501  502  0.00000000000E+00  0.00000000000E+00  0.16590457472E+04  0.16590457472E+04  0.00000000000E+00 0. -1.
         21   -1    0    0  502  503 -0.00000000000E+00 -0.00000000000E+00 -0.33193984881E+02  0.33193984881E+02  0.00000000000E+00 0. -1.
         -6    2    1    2    0  503 -0.63699874242E+02  0.14536581727E+03  0.72649318682E+03  0.76327805122E+03  0.17208177755E+03 0.  0.
        -24    2    3    3    0    0 -0.10339914658E+03  0.12771335563E+03  0.49584651940E+03  0.52852793553E+03  0.80473120427E+02 0.  0.
          6    2    1    2  501    0  0.63699874242E+02 -0.14536581727E+03  0.89935857553E+03  0.92896168089E+03  0.17010309339E+03 0.  0.
         24    2    5    5    0    0  0.56825389206E+02 -0.12893991610E+02  0.32259611084E+03  0.33712295808E+03  0.78665483296E+02 0.  0.
          5    1    5    5  501    0  0.68744850358E+01 -0.13247182566E+03  0.57676246469E+03  0.59183872281E+03  0.47000000000E+01 0. -1.
        -13    1    6    6    0    0  0.21580201578E+02  0.33367621195E+02  0.13113853441E+03  0.13702707197E+03  0.00000000000E+00 0.  1.
         14    1    6    6    0    0  0.35245187628E+02 -0.46261612805E+02  0.19145757643E+03  0.20009588612E+03  0.00000000000E+00 0. -1.
         -5    1    3    3    0  503  0.39699272333E+02  0.17652461643E+02  0.23064666742E+03  0.23475011569E+03  0.47000000000E+01 0.  1.
         11    1    4    4    0    0 -0.96390917357E+02  0.76347939113E+02  0.41191488575E+03  0.42987683104E+03  0.00000000000E+00 0. -1.
        -12    1    4    4    0    0 -0.70082292188E+01  0.51365416514E+02  0.83931633645E+02  0.98651104489E+02  0.00000000000E+00 0.  1.
</event>
<event>
12    1  0.8356052E-002  0.2055875E+03  0.7818608E-02  0.1145256E+00
         21   -1    0    0  501  502  0.00000000000E+00  0.00000000000E+00  0.46618212517E+03  0.46618212517E+03  0.00000000000E+00 0.  1.
         21   -1    0    0  502  503 -0.00000000000E+00 -0.00000000000E+00 -0.68274370872E+03  0.68274370872E+03  0.00000000000E+00 0.  1.
         -6    2    1    2    0  503  0.43039603099E+02  0.97946087997E+02 -0.64341161494E+03  0.67545888745E+03  0.17555728070E+03 0.  0.
        -24    2    3    3    0    0  0.17483913973E+01  0.10562820496E+03 -0.60071313168E+03  0.61538202370E+03  0.81721441305E+02 0.  0.
          6    2    1    2  501    0 -0.43039603099E+02 -0.97946087997E+02  0.42685003139E+03  0.47346694645E+03  0.17471163811E+03 0.  0.
         24    2    5    5    0    0  0.28160324616E+02 -0.99089737971E+02  0.31439830934E+03  0.34028204703E+03  0.79585140309E+02 0.  0.
          5    1    5    5  501    0 -0.71199927714E+02  0.11436499745E+01  0.11245172205E+03  0.13318489942E+03  0.47000000000E+01 0. -1.
        -13    1    6    6    0    0 -0.23364628114E+02 -0.12660493089E+02  0.99588388677E+02  0.10307298915E+03  0.00000000000E+00 0.  1.
         14    1    6    6    0    0  0.51524952730E+02 -0.86429244883E+02  0.21480992067E+03  0.23720905788E+03  0.00000000000E+00 0. -1.
         -5    1    3    3    0  503  0.41291211701E+02 -0.76821169676E+01 -0.42698483262E+02  0.60076863747E+02  0.47000000000E+01 0.  1.
         13    1    4    4    0    0  0.11294597362E+02  0.11015262397E+03 -0.41971482779E+03  0.43407569059E+03  0.00000000000E+00 0. -1.
        -14    1    4    4    0    0 -0.95462059643E+01 -0.45244190007E+01 -0.18099830389E+03  0.18130633311E+03  0.00000000000E+00 0.  1.
</event>
<event>
12    1  0.8356052E-002  0.2193727E+03  0.7818608E-02  0.1134373E+00
         21   -1    0    0  501  502  0.00000000000E+00  0.00000000000E+00  0.82600584381E+03  0.82600584381E+03  0.00000000000E+00 0.  1.
         21   -1    0    0  502  503 -0.00000000000E+00 -0.00000000000E+00 -0.10996596719E+03  0.10996596719E+03  0.00000000000E+00 0.  1.
         -6    2    1    2    0  503 -0.13393626224E+03 -0.21980358173E+02  0.37077232830E+02  0.22248389558E+03  0.17234356416E+03 0.  0.
        -24    2    3    3    0    0 -0.12856475979E+03 -0.14787171701E+00  0.88975517819E+02  0.16572975486E+03  0.54961709854E+02 0.  0.
          6    2    1    2  501    0  0.13393626224E+03  0.21980358173E+02  0.67896264379E+03  0.71348791542E+03  0.17219952178E+03 0.  0.
         24    2    5    5    0    0  0.15753674149E+03  0.40164141244E+01  0.48783046741E+03  0.52001108282E+03  0.87172270923E+02 0.  0.
          5    1    5    5  501    0 -0.23600479247E+02  0.17963944049E+02  0.19113217637E+03  0.19347683260E+03  0.47000000000E+01 0. -1.
        -13    1    6    6    0    0  0.60263343192E+02 -0.39045780415E+02  0.23460944835E+03  0.24535247453E+03  0.00000000000E+00 0.  1.
         14    1    6    6    0    0  0.97273398297E+02  0.43062194539E+02  0.25322101906E+03  0.27465860829E+03  0.00000000000E+00 0. -1.
         -5    1    3    3    0  503 -0.53715024513E+01 -0.21832486456E+02 -0.51898284990E+02  0.56754140715E+02  0.47000000000E+01 0.  1.
         13    1    4    4    0    0 -0.87597255510E+02  0.25724859225E+02  0.55610473684E+02  0.10689982385E+03  0.00000000000E+00 0. -1.
        -14    1    4    4    0    0 -0.40967504280E+02 -0.25872730942E+02  0.33365044135E+02  0.58829931017E+02  0.00000000000E+00 0.  1.
</event>
<event>
12    1  0.8356052E-002  0.1738500E+03  0.7818608E-02  0.1174317E+00
         21   -1    0    0  503  502  0.00000000000E+00  0.00000000000E+00  0.18452187369E+03  0.18452187369E+03  0.00000000000E+00 0.  1.
         21   -1    0    0  501  503 -0.00000000000E+00 -0.00000000000E+00 -0.16532432335E+03  0.16532432335E+03  0.00000000000E+00 0.  1.
          6    2    1    2  501    0  0.16539393427E+02 -0.46278995236E+01 -0.14397654288E+02  0.17277992443E+03  0.17132028732E+03 0.  0.
         24    2    3    3    0    0  0.16523442032E+02 -0.50357996614E+02 -0.56069891191E+02  0.11073230269E+03  0.79428321156E+02 0.  0.
         -6    2    1    2    0  502 -0.16539393427E+02  0.46278995236E+01  0.33595204626E+02  0.17706627261E+03  0.17299958998E+03 0.  0.
        -24    2    5    5    0    0  0.51370574363E+02 -0.22594686989E+02  0.27008118556E+01  0.97508831433E+02  0.79694554596E+02 0.  0.
          5    1    3    3  501    0  0.15951395231E-01  0.45730097090E+02  0.41672236904E+02  0.62047621734E+02  0.47000000000E+01 0. -1.
        -11    1    4    4    0    0  0.39618548298E+02 -0.58710921182E+02 -0.39388840681E+02  0.81043706760E+02  0.00000000000E+00 0.  1.
         12    1    4    4    0    0 -0.23095106265E+02  0.83529245685E+01 -0.16681050511E+02  0.29688595932E+02  0.00000000000E+00 0. -1.
         -5    1    5    5    0  502 -0.67909967790E+02  0.27222586513E+02  0.30894392770E+02  0.79557441175E+02  0.47000000000E+01 0.  1.
         13    1    6    6    0    0  0.64175130815E+02  0.34229986176E+01 -0.11391298408E+02  0.65268108706E+02  0.00000000000E+00 0. -1.
        -14    1    6    6    0    0 -0.12804556452E+02 -0.26017685607E+02  0.14092110264E+02  0.32240722727E+02  0.00000000000E+00 0.  1.
</event>
<event>
12    1  0.8356052E-002  0.2823438E+03  0.7818608E-02  0.1094506E+00
         21   -1    0    0  501  502  0.00000000000E+00  0.00000000000E+00  0.24791977918E+03  0.24791977918E+03  0.00000000000E+00 0. -1.
         21   -1    0    0  502  503 -0.00000000000E+00 -0.00000000000E+00 -0.33889410267E+03  0.33889410267E+03  0.00000000000E+00 0. -1.
         -6    2    1    2    0  503 -0.15069326690E+03 -0.16456099722E+03 -0.11325768252E+03  0.30359211859E+03  0.17190721140E+03 0.  0.
        -24    2    3    3    0    0 -0.89560268931E+01 -0.82861336901E+02 -0.51880005653E+02  0.12879626934E+03  0.83371052759E+02 0.  0.
          6    2    1    2  501    0  0.15069326690E+03  0.16456099722E+03  0.22283359029E+02  0.28322176325E+03  0.17300068381E+03 0.  0.
         24    2    5    5    0    0  0.69507004733E+02  0.11981319145E+03 -0.48037294874E+02  0.16677151787E+03  0.79490458047E+02 0.  0.
          5    1    5    5  501    0  0.81186262165E+02  0.44747805763E+02  0.70320653903E+02  0.11645024539E+03  0.47000000000E+01 0. -1.
        -11    1    6    6    0    0  0.42224924798E+02  0.14631449008E+02 -0.36114937856E+02  0.57457047527E+02  0.00000000000E+00 0.  1.
         12    1    6    6    0    0  0.27282079935E+02  0.10518174244E+03 -0.11922357019E+02  0.10931447034E+03  0.00000000000E+00 0. -1.
         -5    1    3    3    0  503 -0.14173724000E+03 -0.81699660315E+02 -0.61377676863E+02  0.17479584926E+03  0.47000000000E+01 0.  1.
         11    1    4    4    0    0 -0.37564496253E+02 -0.77222474453E+02 -0.25774793510E+02  0.89659031446E+02  0.00000000000E+00 0. -1.
        -12    1    4    4    0    0  0.28608469360E+02 -0.56388624482E+01 -0.26105212143E+02  0.39137237892E+02  0.00000000000E+00 0.  1.
</event>
<event>
12    1  0.8356052E-002  0.1749067E+03  0.7818608E-02  0.1172894E+00
         21   -1    0    0  501  502  0.00000000000E+00  0.00000000000E+00  0.24545675296E+03  0.24545675296E+03  0.00000000000E+00 0. -1.
         21   -1    0    0  502  503 -0.00000000000E+00 -0.00000000000E+00 -0.27890648972E+03  0.27890648972E+03  0.00000000000E+00 0. -1.
         -6    2    1    2    0  503 -0.25786400521E+02  0.17216598602E+02 -0.21183437972E+03  0.27453646160E+03  0.17185783253E+03 0.  0.
        -24    2    3    3    0    0  0.49498531584E+02 -0.65090577369E+00 -0.87148492999E+02  0.12771776708E+03  0.79160848208E+02 0.  0.
          6    2    1    2  501    0  0.25786400521E+02 -0.17216598602E+02  0.17838464296E+03  0.24982678108E+03  0.17213654458E+03 0.  0.
         24    2    5    5    0    0 -0.40289202762E+02  0.22275831912E+02  0.63825430992E+02  0.11172703284E+03  0.79308332969E+02 0.  0.
          5    1    5    5  501    0  0.66075603283E+02 -0.39492430514E+02  0.11455921197E+03  0.13809974824E+03  0.47000000000E+01 0. -1.
        -11    1    6    6    0    0 -0.52522057587E+02 -0.12028258919E+02  0.47443678032E+02  0.71792396053E+02  0.00000000000E+00 0.  1.
         12    1    6    6    0    0  0.12232854825E+02  0.34304090831E+02  0.16381752959E+02  0.39934636783E+02  0.00000000000E+00 0. -1.
         -5    1    3    3    0  503 -0.75284932104E+02  0.17867504376E+02 -0.12468588672E+03  0.14681869452E+03  0.47000000000E+01 0.  1.
         13    1    4    4    0    0  0.26406078735E+02 -0.35654175244E+02 -0.68980042774E+02  0.82016751384E+02  0.00000000000E+00 0. -1.
        -14    1    4    4    0    0  0.23092452849E+02  0.35003269470E+02 -0.18168450225E+02  0.45701015697E+02  0.00000000000E+00 0.  1.
</event>
<event>
12    1  0.8356052E-002  0.1911201E+03  0.7818608E-02  0.1157578E+00
         21   -1    0    0  501  502  0.00000000000E+00  0.00000000000E+00  0.11798151001E+03  0.11798151001E+03  0.00000000000E+00 0. -1.
         21   -1    0    0  502  503 -0.00000000000E+00 -0.00000000000E+00 -0.31633372978E+03  0.31633372978E+03  0.00000000000E+00 0. -1.
         -6    2    1    2    0  503  0.74018716579E+02 -0.38798669676E+02 -0.13302178315E+03  0.23285554164E+03  0.17188019463E+03 0.  0.
        -24    2    3    3    0    0  0.86100354317E+02 -0.34915681546E+02 -0.16082060816E+03  0.20193777589E+03  0.79266774209E+02 0.  0.
          6    2    1    2  501    0 -0.74018716579E+02  0.38798669676E+02 -0.65330436610E+02  0.20145969815E+03  0.17127123769E+03 0.  0.
         24    2    5    5    0    0 -0.10371816348E+03  0.10176274576E+02 -0.10380669136E+02  0.13259123227E+03  0.81312130598E+02 0.  0.
          5    1    5    5  501    0  0.29699446905E+02  0.28622395099E+02 -0.54949767475E+02  0.68868465884E+02  0.47000000000E+01 0. -1.
        -11    1    6    6    0    0 -0.12814275048E+02 -0.30123636029E+02 -0.33408949559E+01  0.32905936724E+02  0.00000000000E+00 0.  1.
         12    1    6    6    0    0 -0.90903888436E+02  0.40299910605E+02 -0.70397741798E+01  0.99685295546E+02  0.00000000000E+00 0. -1.
         -5    1    3    3    0  503 -0.12081637738E+02 -0.38829881299E+01  0.27798825002E+02  0.30917765746E+02  0.47000000000E+01 0.  1.
         13    1    4    4    0    0  0.90631890572E+01  0.14379912994E+01  0.84289955089E+01  0.12460223921E+02  0.00000000000E+00 0. -1.
        -14    1    4    4    0    0  0.77037165260E+02 -0.36353672845E+02 -0.16924960367E+03  0.18947755197E+03  0.00000000000E+00 0.  1.
</event>
<event>
12    1  0.8356052E-002  0.1870525E+03  0.7818608E-02  0.1162116E+00
         21   -1    0    0  503  502  0.00000000000E+00  0.00000000000E+00  0.99496875390E+03  0.99496875390E+03  0.00000000000E+00 0. -1.
         21   -1    0    0  501  503 -0.00000000000E+00 -0.00000000000E+00 -0.34464295878E+02  0.34464295878E+02  0.00000000000E+00 0. -1.
          6    2    1    2  501    0 -0.44413528787E+02  0.45346841368E+02  0.45065838963E+03  0.48635693869E+03  0.17152606246E+03 0.  0.
         24    2    3    3    0    0  0.18105154880E+02 -0.13032960097E+01  0.34790201168E+03  0.35726091112E+03  0.79183670461E+02 0.  0.
         -6    2    1    2    0  502  0.44413528787E+02 -0.45346841368E+02  0.50984606839E+03  0.54307611109E+03  0.17595383321E+03 0.  0.
        -24    2    5    5    0    0 -0.31043703653E+02  0.17869273740E+02  0.20772285119E+03  0.22528592951E+03  0.79510657450E+02 0.  0.
          5    1    3    3  501    0 -0.62518683667E+02  0.46650137378E+02  0.10275637795E+03  0.12909602757E+03  0.47000000000E+01 0. -1.
        -13    1    4    4    0    0  0.26744806699E+02 -0.33594062977E+02  0.13259518339E+03  0.13937477681E+03  0.00000000000E+00 0.  1.
         14    1    4    4    0    0 -0.86396518196E+01  0.32290766967E+02  0.21530682830E+03  0.21788613431E+03  0.00000000000E+00 0. -1.
         -5    1    5    5    0  502  0.75457232440E+02 -0.63216115108E+02  0.30212321720E+03  0.31779018157E+03  0.47000000000E+01 0.  1.
         13    1    6    6    0    0 -0.24471013851E+02  0.37623333353E+01  0.20824751133E+03  0.20971411886E+03  0.00000000000E+00 0. -1.
        -14    1    6    6    0    0 -0.65726898016E+01  0.14106940405E+02 -0.52466014198E+00  0.15571810655E+02  0.00000000000E+00 0.  1.
</event>
<event>
12    1  0.8356052E-002  0.1942087E+03  0.7818608E-02  0.1154935E+00
         21   -1    0    0  501  502  0.00000000000E+00  0.00000000000E+00  0.11652804610E+03  0.11652804610E+03  0.00000000000E+00 0.  1.
         21   -1    0    0  502  503 -0.00000000000E+00 -0.00000000000E+00 -0.35570866682E+03  0.35570866682E+03  0.00000000000E+00 0.  1.
         -6    2    1    2    0  503  0.69693617073E+02  0.51263638658E+02 -0.19195989352E+03  0.27236971299E+03  0.17277586326E+03 0.  0.
        -24    2    3    3    0    0  0.16856153649E+01 -0.31443449287E+02 -0.84068640229E+02  0.12029024946E+03  0.80066697458E+02 0.  0.
          6    2    1    2  501    0 -0.69693617073E+02 -0.51263638658E+02 -0.47220727192E+02  0.19986699993E+03  0.17387311372E+03 0.  0.
         24    2    5    5    0    0 -0.10222647932E+03  0.57547001759E+01 -0.34100917199E+02  0.13275740670E+03  0.77319381987E+02 0.  0.
          5    1    5    5  501    0  0.32532862246E+02 -0.57018338834E+02 -0.13119809993E+02  0.67109593231E+02  0.47000000000E+01 0. -1.
        -13    1    6    6    0    0 -0.46699043228E+02  0.72921418498E+01 -0.55794256919E+02  0.73123013315E+02  0.00000000000E+00 0.  1.
         14    1    6    6    0    0 -0.55527436091E+02 -0.15374416739E+01  0.21693339720E+02  0.59634393381E+02  0.00000000000E+00 0. -1.
         -5    1    3    3    0  503  0.68008001708E+02  0.82707087945E+02 -0.10789125329E+03  0.15207946354E+03  0.47000000000E+01 0.  1.
         11    1    4    4    0    0  0.17669971375E+02  0.14780714877E+01 -0.81716237454E+02  0.83617917023E+02  0.00000000000E+00 0. -1.
        -12    1    4    4    0    0 -0.15984356010E+02 -0.32921520775E+02 -0.23524027754E+01  0.36672332432E+02  0.00000000000E+00 0.  1.
</event>
<event>
12    1  0.8356052E-002  0.2823960E+03  0.7818608E-02  0.1094496E+00
         21   -1    0    0  501  502  0.00000000000E+00  0.00000000000E+00  0.20797267703E+03  0.20797267703E+03  0.00000000000E+00 0.  1.
         21   -1    0    0  502  503 -0.00000000000E+00 -0.00000000000E+00 -0.50995984201E+03  0.50995984201E+03  0.00000000000E+00 0.  1.
         -6    2    1    2    0  503 -0.10543730100E+03  0.19687015874E+03 -0.33071529403E+03  0.43487943726E+03  0.17283701978E+03 0.  0.
        -24    2    3    3    0    0 -0.18055062084E+02  0.55164155678E+02 -0.56938623778E+02  0.11442350870E+03  0.80508776703E+02 0.  0.
          6    2    1    2  501    0  0.10543730100E+03 -0.19687015874E+03  0.28728129040E+02  0.28305308178E+03  0.17151926382E+03 0.  0.
         24    2    5    5    0    0  0.71537785860E+02 -0.91657716091E+02  0.78069193557E+02  0.16191074458E+03  0.81249606162E+02 0.  0.
          5    1    5    5  501    0  0.33899515142E+02 -0.10521244265E+03 -0.49341064517E+02  0.12114233720E+03  0.47000000000E+01 0. -1.
        -11    1    6    6    0    0  0.32691200837E+02 -0.52313296272E+02  0.86227492609E+02  0.10602158299E+03  0.00000000000E+00 0.  1.
         12    1    6    6    0    0  0.38846585023E+02 -0.39344419819E+02 -0.81582990517E+01  0.55889161581E+02  0.00000000000E+00 0. -1.
         -5    1    3    3    0  503 -0.87382238919E+02  0.14170600306E+03 -0.27377667025E+03  0.32045592857E+03  0.47000000000E+01 0.  1.
         11    1    4    4    0    0 -0.20782772722E+02 -0.16870882805E+02 -0.10981193917E+02  0.28933319002E+02  0.00000000000E+00 0. -1.
        -12    1    4    4    0    0  0.27277106384E+01  0.72035038483E+02 -0.45957429861E+02  0.85490189695E+02  0.00000000000E+00 0.  1.
</event>
<event>
12    1  0.8356052E-002  0.1866666E+03  0.7818608E-02  0.1161924E+00
         21   -1    0    0  501  502  0.00000000000E+00  0.00000000000E+00  0.42957509631E+02  0.42957509631E+02  0.00000000000E+00 0.  1.
         21   -1    0    0  502  503 -0.00000000000E+00 -0.00000000000E+00 -0.10598958660E+04  0.10598958660E+04  0.00000000000E+00 0.  1.
         -6    2    1    2    0  503 -0.67063099173E+02  0.24348431425E+02 -0.23901530477E+03  0.30327009239E+03  0.17249384813E+03 0.  0.
        -24    2    3    3    0    0  0.23962106504E+02  0.14847901933E+02 -0.65888402386E+02  0.10738527303E+03  0.79972948891E+02 0.  0.
          6    2    1    2  501    0  0.67063099173E+02 -0.24348431425E+02 -0.77792305160E+03  0.79958328324E+03  0.17052520998E+03 0.  0.
         24    2    5    5    0    0  0.41418121704E+02  0.37657503498E+02 -0.27909710329E+03  0.29624262569E+03  0.82042378286E+02 0.  0.
          5    1    5    5  501    0  0.25644977469E+02 -0.62005934923E+02 -0.49882594831E+03  0.50334065755E+03  0.47000000000E+01 0. -1.
        -11    1    6    6    0    0 -0.15048248270E+02 -0.78708485883E+01 -0.12238995947E+03  0.12356254372E+03  0.00000000000E+00 0.  1.
         12    1    6    6    0    0  0.56466369974E+02  0.45528352087E+02 -0.15670714382E+03  0.17268008196E+03  0.00000000000E+00 0. -1.
         -5    1    3    3    0  503 -0.91025205676E+02  0.95005294920E+01 -0.17312690238E+03  0.19588481936E+03  0.47000000000E+01 0.  1.
         13    1    4    4    0    0  0.39016928261E+02  0.23093763843E+02 -0.75234973436E+02  0.87840445395E+02  0.00000000000E+00 0. -1.
        -14    1    4    4    0    0 -0.15054821757E+02 -0.82458619107E+01  0.93465710496E+01  0.19544827632E+02  0.00000000000E+00 0.  1.
</event>
<event>
12    1  0.8356052E-002  0.1771311E+03  0.7818608E-02  0.1170877E+00
         21   -1    0    0  501  502  0.00000000000E+00  0.00000000000E+00  0.39607945716E+03  0.39607945716E+03  0.00000000000E+00 0. -1.
         21   -1    0    0  502  503 -0.00000000000E+00 -0.00000000000E+00 -0.24715901687E+03  0.24715901687E+03  0.00000000000E+00 0. -1.
         -6    2    1    2    0  503  0.29185596316E+02 -0.13504697405E+02 -0.19110923961E+03  0.25983838799E+03  0.17308688721E+03 0.  0.
        -24    2    3    3    0    0 -0.75453721704E+01 -0.70830998433E+02 -0.13584303491E+03  0.17202089419E+03  0.77871014658E+02 0.  0.
          6    2    1    2  501    0 -0.29185596316E+02  0.13504697405E+02  0.34002967989E+03  0.38340008604E+03  0.17418744756E+03 0.  0.
         24    2    5    5    0    0  0.82602651798E+01  0.17977669484E+02  0.62614109943E+02  0.10339349956E+03  0.79864011966E+02 0.  0.
          5    1    5    5  501    0 -0.37445861496E+02 -0.44729720786E+01  0.27741556995E+03  0.28000658648E+03  0.47000000000E+01 0. -1.
        -13    1    6    6    0    0  0.29082892825E+02 -0.21922807276E+02  0.20697854904E+02  0.41890635368E+02  0.00000000000E+00 0.  1.
         14    1    6    6    0    0 -0.20822627645E+02  0.39900476760E+02  0.41916255040E+02  0.61502864196E+02  0.00000000000E+00 0. -1.
         -5    1    3    3    0  503  0.36730968486E+02  0.57326301028E+02 -0.55266204700E+02  0.87817493801E+02  0.47000000000E+01 0.  1.
         11    1    4    4    0    0 -0.19585788976E+02 -0.19442998598E+02 -0.10970601916E+03  0.11312402028E+03  0.00000000000E+00 0. -1.
        -12    1    4    4    0    0  0.12040416806E+02 -0.51387999835E+02 -0.26137015747E+02  0.58896873908E+02  0.00000000000E+00 0.  1.
</event>
<event>
12    1  0.8356052E-002  0.2323320E+03  0.7818608E-02  0.1127575E+00
         21   -1    0    0  503  502  0.00000000000E+00  0.00000000000E+00  0.12449175712E+03  0.12449175712E+03  0.00000000000E+00 0. -1.
         21   -1    0    0  501  503 -0.00000000000E+00 -0.00000000000E+00 -0.43243707771E+03  0.43243707771E+03  0.00000000000E+00 0. -1.
          6    2    1    2  501    0 -0.72014655398E+02 -0.11574171343E+03 -0.22561225478E+03  0.32385035296E+03  0.18813799931E+03 0.  0.
         24    2    3    3    0    0 -0.35587290992E+01  0.17685832902E+02 -0.98230370260E+02  0.12703226825E+03  0.78501836259E+02 0.  0.
         -6    2    1    2    0  502  0.72014655398E+02  0.11574171343E+03 -0.82333065807E+02  0.23307848186E+03  0.17018986504E+03 0.  0.
        -24    2    5    5    0    0  0.72576278705E+02  0.80982033999E+02  0.92242617433E+01  0.13503061109E+03  0.79515865492E+02 0.  0.
          5    1    3    3  501    0 -0.68455926299E+02 -0.13342754633E+03 -0.12738188452E+03  0.19681808471E+03  0.47000000000E+01 0. -1.
        -13    1    4    4    0    0  0.93040501110E+01  0.19266741021E+02  0.58238812729E+01  0.22174089635E+02  0.00000000000E+00 0.  1.
         14    1    4    4    0    0 -0.12862779210E+02 -0.15809081199E+01 -0.10405425153E+03  0.10485817861E+03  0.00000000000E+00 0. -1.
         -5    1    5    5    0  502 -0.56162330701E+00  0.34759679432E+02 -0.91557327550E+02  0.98047870773E+02  0.47000000000E+01 0.  1.
         11    1    6    6    0    0  0.40312827019E+02  0.33626926706E+02 -0.34615993749E+02  0.62882121824E+02  0.00000000000E+00 0. -1.
        -12    1    6    6    0    0  0.32263451686E+02  0.47355107293E+02  0.43840255492E+02  0.72148489264E+02  0.00000000000E+00 0.  1.
</event>
<event>
12    1  0.8356052E-002  0.2028244E+03  0.7818608E-02  0.1147483E+00
         21   -1    0    0  503  502  0.00000000000E+00  0.00000000000E+00  0.76929459634E+02  0.76929459634E+02  0.00000000000E+00 0. -1.
         21   -1    0    0  501  503 -0.00000000000E+00 -0.00000000000E+00 -0.64588291550E+03  0.64588291550E+03  0.00000000000E+00 0.  1.
          6    2    1    2  501    0 -0.66068730483E+01 -0.10694120598E+03 -0.13395515521E+03  0.24306729804E+03  0.17221398161E+03 0.  0.
         24    2    3    3    0    0  0.53285334669E+02 -0.82009225772E+02 -0.12444594476E+03  0.17733149908E+03  0.79967664678E+02 0.  0.
         -6    2    1    2    0  502  0.66068730483E+01  0.10694120598E+03 -0.43499830066E+03  0.47974507709E+03  0.17161510746E+03 0.  0.
        -24    2    5    5    0    0  0.41257797197E+02  0.10845361012E+03 -0.23055625799E+03  0.27232855721E+03  0.86846206565E+02 0.  0.
          5    1    3    3  501    0 -0.59892207718E+02 -0.24931980207E+02 -0.95092104411E+01  0.65735798965E+02  0.47000000000E+01 0. -1.
        -11    1    4    4    0    0  0.42233892207E+02  0.15641434874E+00 -0.53883629925E+02  0.68462922011E+02  0.00000000000E+00 0.  1.
         12    1    4    4    0    0  0.11051442463E+02 -0.82165640120E+02 -0.70562314839E+02  0.10886857707E+03  0.00000000000E+00 0. -1.
         -5    1    5    5    0  502 -0.34650924149E+02 -0.15124041376E+01 -0.20444204266E+03  0.20741651988E+03  0.47000000000E+01 0.  1.
         13    1    6    6    0    0  0.64908567670E+02  0.98854825249E+02 -0.17528058660E+03  0.21144427793E+03  0.00000000000E+00 0. -1.
        -14    1    6    6    0    0 -0.23650770473E+02  0.95987848673E+01 -0.55275671393E+02  0.60884279275E+02  0.00000000000E+00 0.  1.
</event>
<event>
12    1  0.8356052E-002  0.1846896E+03  0.7818608E-02  0.1163736E+00
         21   -1    0    0  501  502  0.00000000000E+00  0.00000000000E+00  0.12166207514E+04  0.12166207514E+04  0.00000000000E+00 0.  1.
         21   -1    0    0  502  503 -0.00000000000E+00 -0.00000000000E+00 -0.29876298876E+02  0.29876298876E+02  0.00000000000E+00 0.  1.
         -6    2    1    2    0  503  0.44998773753E+02 -0.18386012564E+02  0.42581628452E+03  0.46347601617E+03  0.17643008333E+03 0.  0.
        -24    2    3    3    0    0  0.35128413085E+01  0.19293615394E+02  0.84352233638E+02  0.11741153518E+03  0.79281685311E+02 0.  0.
          6    2    1    2  501    0 -0.44998773753E+02  0.18386012564E+02  0.76092816805E+03  0.78302103415E+03  0.17817779855E+03 0.  0.
         24    2    5    5    0    0 -0.99625550293E+02  0.60947856460E+01  0.50386431255E+03  0.51988784586E+03  0.80260389562E+02 0.  0.
          5    1    5    5  501    0  0.54626776540E+02  0.12291226918E+02  0.25706385550E+03  0.26313318829E+03  0.47000000000E+01 0. -1.
        -13    1    6    6    0    0 -0.16431163282E+02 -0.29102807416E+02  0.83765342800E+02  0.90186413504E+02  0.00000000000E+00 0.  1.
         14    1    6    6    0    0 -0.83194387011E+02  0.35197593062E+02  0.42009896975E+03  0.42970143236E+03  0.00000000000E+00 0. -1.
         -5    1    3    3    0  503  0.41485932445E+02 -0.37679627958E+02  0.34146405088E+03  0.34606448098E+03  0.47000000000E+01 0.  1.
         13    1    4    4    0    0  0.14724991066E+02 -0.87370516296E+01 -0.89687483823E+01  0.19328731997E+02  0.00000000000E+00 0. -1.
        -14    1    4    4    0    0 -0.11212149757E+02  0.28030667024E+02  0.93320982020E+02  0.98082803188E+02  0.00000000000E+00 0.  1.
</event>
<event>
12    1  0.8356052E-002  0.2065784E+03  0.7818608E-02  0.1144332E+00
         21   -1    0    0  503  502  0.00000000000E+00  0.00000000000E+00  0.39211297751E+03  0.39211297751E+03  0.00000000000E+00 0.  1.
         21   -1    0    0  501  503 -0.00000000000E+00 -0.00000000000E+00 -0.12533680131E+03  0.12533680131E+03  0.00000000000E+00 0.  1.
          6    2    1    2  501    0 -0.10199870149E+03  0.51361062259E+02  0.39261765843E+02  0.21014304984E+03  0.17197942121E+03 0.  0.
         24    2    3    3    0    0 -0.13849240325E+03  0.50329219794E+02  0.43232561602E+02  0.17311991943E+03  0.79926691385E+02 0.  0.
         -6    2    1    2    0  502  0.10199870149E+03 -0.51361062259E+02  0.22751441036E+03  0.30730672898E+03  0.17214216490E+03 0.  0.
        -24    2    5    5    0    0  0.13659359173E+03 -0.31088616619E+02  0.15330010098E+03  0.22282222035E+03  0.80774436165E+02 0.  0.
          5    1    3    3  501    0  0.36493701760E+02  0.10318424650E+01 -0.39707957587E+01  0.37023130418E+02  0.47000000000E+01 0. -1.
        -11    1    4    4    0    0 -0.57487143498E+02 -0.19240293151E+02  0.20071262236E+02  0.63857780386E+02  0.00000000000E+00 0.  1.
         12    1    4    4    0    0 -0.81005259754E+02  0.69569512945E+02  0.23161299365E+02  0.10926213904E+03  0.00000000000E+00 0. -1.
         -5    1    5    5    0  502 -0.34594890232E+02 -0.20272445639E+02  0.74214309375E+02  0.84484508630E+02  0.47000000000E+01 0.  1.
         13    1    6    6    0    0  0.37137528953E+02  0.10859209165E+02  0.89330457264E+02  0.97350136494E+02  0.00000000000E+00 0. -1.
        -14    1    6    6    0    0  0.99456062772E+02 -0.41947825784E+02  0.63969643717E+02  0.12547208386E+03  0.00000000000E+00 0.  1.
</event>
<event>
12    1  0.8356052E-002  0.1911764E+03  0.7818608E-02  0.1157482E+00
         21   -1    0    0  501  502  0.00000000000E+00  0.00000000000E+00  0.25360610187E+03  0.25360610187E+03  0.00000000000E+00 0.  1.
         21   -1    0    0  502  503 -0.00000000000E+00 -0.00000000000E+00 -0.15565474213E+03  0.15565474213E+03  0.00000000000E+00 0.  1.
         -6    2    1    2    0  503 -0.13904537063E+02 -0.81569408342E+02 -0.74107666831E+01  0.19097299871E+03  0.17195598927E+03 0.  0.
        -24    2    3    3    0    0 -0.38126723080E+02 -0.10703445803E+03  0.27050166235E+02  0.14152778713E+03  0.79927347120E+02 0.  0.
          6    2    1    2  501    0  0.13904537063E+02  0.81569408342E+02  0.10536212643E+03  0.21828784529E+03  0.17234123472E+03 0.  0.
         24    2    5    5    0    0 -0.77515331655E+01  0.17836063626E+02  0.11943021846E+03  0.14936088525E+03  0.87560753355E+02 0.  0.
          5    1    5    5  501    0  0.21656070228E+02  0.63733344716E+02 -0.14068092036E+02  0.68926960037E+02  0.47000000000E+01 0. -1.
        -13    1    6    6    0    0 -0.16013537012E+02 -0.20156385509E+02  0.10464364066E+03  0.10776365239E+03  0.00000000000E+00 0.  1.
         14    1    6    6    0    0  0.82620038462E+01  0.37992449135E+02  0.14786577801E+02  0.41597232863E+02  0.00000000000E+00 0. -1.
         -5    1    3    3    0  503  0.24222186017E+02  0.25465049686E+02 -0.34460932918E+02  0.49445211584E+02  0.47000000000E+01 0.  1.
         11    1    4    4    0    0  0.11564861511E+02 -0.50969764868E+02  0.39592489903E+02  0.65568500129E+02  0.00000000000E+00 0. -1.
        -12    1    4    4    0    0 -0.49691584591E+02 -0.56064693160E+02 -0.12542323668E+02  0.75959286998E+02  0.00000000000E+00 0.  1.
</event>
<event>
12    1  0.8356052E-002  0.2056543E+03  0.7818608E-02  0.1145770E+00
         21   -1    0    0  501  502  0.00000000000E+00  0.00000000000E+00  0.40870444154E+02  0.40870444154E+02  0.00000000000E+00 0. -1.
         21   -1    0    0  502  503 -0.00000000000E+00 -0.00000000000E+00 -0.17137487531E+04  0.17137487531E+04  0.00000000000E+00 0.  1.
         -6    2    1    2    0  503  0.10410350536E+03 -0.27542709010E+02 -0.13999290465E+04  0.14149540691E+04  0.17520714004E+03 0.  0.
        -24    2    3    3    0    0  0.12791847972E+03 -0.54408267932E+02 -0.12747434209E+04  0.12846373699E+04  0.77453120061E+02 0.  0.
          6    2    1    2  501    0 -0.10410350536E+03  0.27542709010E+02 -0.27294926245E+03  0.33966512811E+03  0.17109926573E+03 0.  0.
         24    2    5    5    0    0 -0.13597698490E+03  0.20649386216E+02 -0.25895363685E+03  0.30386842249E+03  0.79767753972E+02 0.  0.
          5    1    5    5  501    0  0.31873479541E+02  0.68933227932E+01 -0.13995625597E+02  0.35796705617E+02  0.47000000000E+01 0. -1.
        -11    1    6    6    0    0  0.53827113050E+01  0.95997204205E+01 -0.51009179259E+02  0.52182991308E+02  0.00000000000E+00 0.  1.
         12    1    6    6    0    0 -0.14135969621E+03  0.11049665796E+02 -0.20794445760E+03  0.25168543118E+03  0.00000000000E+00 0. -1.
         -5    1    3    3    0  503 -0.23814974355E+02  0.26865558922E+02 -0.12518562551E+03  0.13031669922E+03  0.47000000000E+01 0.  1.
         11    1    4    4    0    0 -0.16656398910E+01 -0.11981249968E+02 -0.28554121379E+02  0.31010684526E+02  0.00000000000E+00 0. -1.
        -12    1    4    4    0    0  0.12958411961E+03 -0.42427017964E+02 -0.12461892996E+04  0.12536266854E+04  0.00000000000E+00 0.  1.
</event>
<event>
12    1  0.8356052E-002  0.2095340E+03  0.7818608E-02  0.1142086E+00
         21   -1    0    0  501  502  0.00000000000E+00  0.00000000000E+00  0.20521778114E+03  0.20521778114E+03  0.00000000000E+00 0. -1.
         21   -1    0    0  502  503 -0.00000000000E+00 -0.00000000000E+00 -0.29149146738E+03  0.29149146738E+03  0.00000000000E+00 0. -1.
         -6    2    1    2    0  503 -0.80366677510E+02  0.88499922757E+02  0.85544258393E+02  0.22632351554E+03  0.17208565995E+03 0.  0.
        -24    2    3    3    0    0 -0.81822843982E+02  0.42544964970E+02  0.11802165134E+03  0.16983590966E+03  0.80062938879E+02 0.  0.
          6    2    1    2  501    0  0.80366677510E+02 -0.88499922757E+02 -0.17181794464E+03  0.27038573297E+03  0.17116074116E+03 0.  0.
         24    2    5    5    0    0  0.65652802673E+02  0.13744537332E+02 -0.64127756079E+02  0.12108839729E+03  0.77787068669E+02 0.  0.
          5    1    5    5  501    0  0.14713874837E+02 -0.10224446009E+03 -0.10769018856E+03  0.14929733569E+03  0.47000000000E+01 0. -1.
        -11    1    6    6    0    0  0.31009402412E+02 -0.24781182771E+02 -0.13857513072E+01  0.39719143548E+02  0.00000000000E+00 0.  1.
         12    1    6    6    0    0  0.34643400261E+02  0.38525720103E+02 -0.62742004772E+02  0.81369253738E+02  0.00000000000E+00 0. -1.
         -5    1    3    3    0  503  0.14561664717E+01  0.45954957787E+02 -0.32477392949E+02  0.56487605886E+02  0.47000000000E+01 0.  1.
         11    1    4    4    0    0 -0.66389131068E+02 -0.15275991337E+01  0.36215108950E+02  0.75639833417E+02  0.00000000000E+00 0. -1.
        -12    1    4    4    0    0 -0.15433712914E+02  0.44072564103E+02  0.81806542391E+02  0.94196076240E+02  0.00000000000E+00 0.  1.
</event>
<event>
12    1  0.8356052E-002  0.2093166E+03  0.7818608E-02  0.1142334E+00
         21   -1    0    0  501  502  0.00000000000E+00  0.00000000000E+00  0.85735546602E+02  0.85735546602E+02  0.00000000000E+00 0.  1.
         21   -1    0    0  502  503 -0.00000000000E+00 -0.00000000000E+00 -0.52757575534E+03  0.52757575534E+03  0.00000000000E+00 0.  1.
         -6    2    1    2    0  503 -0.56102390865E+01  0.11752830273E+03 -0.28015425296E+03  0.34971395069E+03  0.17311575644E+03 0.  0.
        -24    2    3    3    0    0  0.54614473821E+02  0.28449935748E+02 -0.14998980450E+03  0.18081503076E+03  0.80031208286E+02 0.  0.
          6    2    1    2  501    0  0.56102390865E+01 -0.11752830273E+03 -0.16168595578E+03  0.26359735125E+03  0.17174643684E+03 0.  0.
         24    2    5    5    0    0  0.17254008367E+02 -0.13580322180E+03 -0.17620222263E+03  0.23709523750E+03  0.80166779451E+02 0.  0.
          5    1    5    5  501    0 -0.11643769281E+02  0.18274919067E+02  0.14516266858E+02  0.26502113754E+02  0.47000000000E+01 0. -1.
        -13    1    6    6    0    0  0.19659176814E+02 -0.84103327388E+02 -0.47936796147E+02  0.98781523250E+02  0.00000000000E+00 0.  1.
         14    1    6    6    0    0 -0.24051684467E+01 -0.51699894413E+02 -0.12826542649E+03  0.13831371425E+03  0.00000000000E+00 0. -1.
         -5    1    3    3    0  503 -0.60224712907E+02  0.89078366987E+02 -0.13016444845E+03  0.16889891992E+03  0.47000000000E+01 0.  1.
         11    1    4    4    0    0 -0.86256231544E+01 -0.91865683475E+01 -0.73871627400E+02  0.74938719948E+02  0.00000000000E+00 0. -1.
        -12    1    4    4    0    0  0.63240096975E+02  0.37636504095E+02 -0.76118177105E+02  0.10587631081E+03  0.00000000000E+00 0.  1.
</event>
<event>
12    1  0.8356052E-002  0.2450576E+03  0.7818608E-02  0.1116553E+00
         21   -1    0    0  501  502  0.00000000000E+00  0.00000000000E+00  0.75784700944E+02  0.75784700944E+02  0.00000000000E+00 0.  1.
         21   -1    0    0  502  503 -0.00000000000E+00 -0.00000000000E+00 -0.91909593994E+03  0.91909593994E+03  0.00000000000E+00 0. -1.
         -6    2    1    2    0  503 -0.41526184831E+02 -0.16996689174E+03 -0.60793658910E+03  0.65546940224E+03  0.17158109628E+03 0.  0.
        -24    2    3    3    0    0  0.38749076153E+02 -0.59864438425E+02 -0.21623670724E+03  0.24071941104E+03  0.78117087795E+02 0.  0.
          6    2    1    2  501    0  0.41526184831E+02  0.16996689174E+03 -0.23537464990E+03  0.33941123865E+03  0.17083791964E+03 0.  0.
         24    2    5    5    0    0  0.28710375574E+02  0.93451030019E+02 -0.38518638658E+02  0.12776695872E+03  0.72686515525E+02 0.  0.
          5    1    5    5  501    0  0.12815809256E+02  0.76515861721E+02 -0.19685601125E+03  0.21164427993E+03  0.47000000000E+01 0. -1.
        -13    1    6    6    0    0 -0.21122881146E+02  0.22572189319E+02 -0.25656033025E+02  0.40173521991E+02  0.00000000000E+00 0.  1.
         14    1    6    6    0    0  0.49833256720E+02  0.70878840700E+02 -0.12862605633E+02  0.87593436729E+02  0.00000000000E+00 0. -1.
         -5    1    3    3    0  503 -0.80275260983E+02 -0.11010245331E+03 -0.39169988186E+03  0.41474999120E+03  0.47000000000E+01 0.  1.
         11    1    4    4    0    0  0.57873697999E+01 -0.49381584023E+02 -0.19238111841E+03  0.19870211175E+03  0.00000000000E+00 0. -1.
        -12    1    4    4    0    0  0.32961706353E+02 -0.10482854402E+02 -0.23855588821E+02  0.42017299296E+02  0.00000000000E+00 0.  1.
</event>
<event>
12    1  0.8356052E-002  0.3799211E+03  0.7818608E-02  0.1050981E+00
         21   -1    0    0  501  502  0.00000000000E+00  0.00000000000E+00  0.48509452005E+03  0.48509452005E+03  0.00000000000E+00 0.  1.
         21   -1    0    0  502  503 -0.00000000000E+00 -0.00000000000E+00 -0.30635969127E+03  0.30635969127E+03  0.00000000000E+00 0. -1.
         -6    2    1    2    0  503  0.13169586687E+03 -0.31197430444E+03  0.15702018429E+03  0.41091304603E+03  0.17182091009E+03 0.  0.
        -24    2    3    3    0    0  0.12489168349E+03 -0.23930091829E+03  0.56798264622E+02  0.28683951482E+03  0.78663856356E+02 0.  0.
          6    2    1    2  501    0 -0.13169586687E+03  0.31197430444E+03  0.21714644495E+02  0.38054116529E+03  0.17224483944E+03 0.  0.
         24    2    5    5    0    0  0.31234707265E+00  0.14666055598E+03  0.19973223873E+02  0.16892848485E+03  0.81415521125E+02 0.  0.
          5    1    5    5  501    0 -0.13200821394E+03  0.16531374846E+03  0.17414206223E+01  0.21161268044E+03  0.47000000000E+01 0. -1.
        -11    1    6    6    0    0  0.82173127126E+01  0.19505495280E+02  0.34734922492E+02  0.40675587456E+02  0.00000000000E+00 0.  1.
         12    1    6    6    0    0 -0.79049656399E+01  0.12715506070E+03 -0.14761698619E+02  0.12825289739E+03  0.00000000000E+00 0. -1.
         -5    1    3    3    0  503  0.68041833757E+01 -0.72673386145E+02  0.10022191966E+03  0.12407353121E+03  0.47000000000E+01 0.  1.
         13    1    4    4    0    0  0.30475693013E+02 -0.99112379071E+02 -0.11941951650E+02  0.10437740061E+03  0.00000000000E+00 0. -1.
        -14    1    4    4    0    0  0.94415990478E+02 -0.14018853922E+03  0.68740216273E+02  0.18246211421E+03  0.00000000000E+00 0.  1.
</event>
<event>
12    1  0.8356052E-002  0.1750373E+03  0.7818608E-02  0.1175901E+00
         21   -1    0    0  501  502  0.00000000000E+00  0.00000000000E+00  0.29968976187E+03  0.29968976187E+03  0.00000000000E+00 0. -1.
         21   -1    0    0  502  503 -0.00000000000E+00 -0.00000000000E+00 -0.10225634689E+03  0.10225634689E+03  0.00000000000E+00 0. -1.
         -6    2    1    2    0  503 -0.97227187460E+01 -0.33691407874E+02  0.42535646185E+02  0.16821251639E+03  0.15892302303E+03 0.  0.
        -24    2    3    3    0    0  0.54596297952E+02 -0.20245577499E+02  0.34240261624E+02  0.10181500387E+03  0.76179133228E+02 0.  0.
          6    2    1    2  501    0  0.97227187460E+01  0.33691407874E+02  0.15489776880E+03  0.23373359237E+03  0.17148886611E+03 0.  0.
         24    2    5    5    0    0 -0.46045942754E+02  0.25306630754E+02  0.14882072015E+03  0.17681726244E+03  0.79725047166E+02 0.  0.
          5    1    5    5  501    0  0.55768661500E+02  0.83847771198E+01  0.60770486515E+01  0.56916329934E+02  0.47000000000E+01 0. -1.
        -11    1    6    6    0    0 -0.62354245435E+02  0.12851184037E+02  0.14126740553E+03  0.15495058800E+03  0.00000000000E+00 0.  1.
         12    1    6    6    0    0  0.16308302681E+02  0.12455446717E+02  0.75533146141E+01  0.21866674437E+02  0.00000000000E+00 0. -1.
         -5    1    3    3    0  503 -0.64319016698E+02 -0.13445830375E+02  0.82953845610E+01  0.66397512518E+02  0.47000000000E+01 0.  1.
         13    1    4    4    0    0 -0.69240478739E+01  0.74527795424E+01  0.32789457178E+02  0.34331252000E+02  0.00000000000E+00 0. -1.
        -14    1    4    4    0    0  0.61520345826E+02 -0.27698357041E+02  0.14508044459E+01  0.67483751873E+02  0.00000000000E+00 0.  1.
</event>
<event>
12    1  0.8356052E-002  0.1859368E+03  0.7818608E-02  0.1163619E+00
         21   -1    0    0  503  502  0.00000000000E+00  0.00000000000E+00  0.25471868173E+02  0.25471868173E+02  0.00000000000E+00 0. -1.
         21   -1    0    0  501  503 -0.00000000000E+00 -0.00000000000E+00 -0.13538143438E+04  0.13538143438E+04  0.00000000000E+00 0. -1.
          6    2    1    2  501    0  0.34801472837E+02 -0.40761676808E+02 -0.53381245049E+03  0.56328960580E+03  0.17165893769E+03 0.  0.
         24    2    3    3    0    0  0.58362539331E+02 -0.43904278140E+01 -0.49566800376E+03  0.50536654973E+03  0.79266119990E+02 0.  0.
         -6    2    1    2    0  502 -0.34801472837E+02  0.40761676808E+02 -0.79453002512E+03  0.81599660616E+03  0.17804449906E+03 0.  0.
        -24    2    5    5    0    0 -0.32466020467E+01  0.47749688901E+02 -0.76882494245E+03  0.77443480328E+03  0.79792851743E+02 0.  0.
          5    1    3    3  501    0 -0.23561066493E+02 -0.36371248994E+02 -0.38144446732E+02  0.57923056068E+02  0.47000000000E+01 0. -1.
        -11    1    4    4    0    0 -0.17247667766E+02 -0.12541451853E+02 -0.79681999031E+02  0.82486308122E+02  0.00000000000E+00 0.  1.
         12    1    4    4    0    0  0.75610207096E+02  0.81510240389E+01 -0.41598600473E+03  0.42288024161E+03  0.00000000000E+00 0. -1.
         -5    1    5    5    0  502 -0.31554870790E+02 -0.69880120922E+01 -0.25705082671E+02  0.41561802881E+02  0.47000000000E+01 0.  1.
         11    1    6    6    0    0 -0.18537736377E+01  0.52863486995E+02 -0.24779359059E+03  0.25337649511E+03  0.00000000000E+00 0. -1.
        -12    1    6    6    0    0 -0.13928284089E+01 -0.51137980942E+01 -0.52103135185E+03  0.52105830817E+03  0.00000000000E+00 0.  1.
</event>
<event>
12    1  0.8356052E-002  0.2073677E+03  0.7818608E-02  0.1143734E+00
         21   -1    0    0  503  502  0.00000000000E+00  0.00000000000E+00  0.15386380305E+03  0.15386380305E+03  0.00000000000E+00 0. -1.
         21   -1    0    0  501  503 -0.00000000000E+00 -0.00000000000E+00 -0.44279057014E+03  0.44279057014E+03  0.00000000000E+00 0.  1.
          6    2    1    2  501    0 -0.94843444997E+02 -0.66658687988E+02 -0.32596114035E+03  0.38633148410E+03  0.17193804362E+03 0.  0.
         24    2    3    3    0    0  0.16886264457E+02 -0.18874564285E+02 -0.11852411889E+03  0.14587554567E+03  0.81180742558E+02 0.  0.
         -6    2    1    2    0  502  0.94843444997E+02  0.66658687988E+02  0.37034373252E+02  0.21032288910E+03  0.17153866367E+03 0.  0.
        -24    2    5    5    0    0  0.24021359286E+02 -0.10179388191E+02 -0.24872303030E+02  0.88772963784E+02  0.81125593958E+02 0.  0.
          5    1    3    3  501    0 -0.11172970945E+03 -0.47784123702E+02 -0.20743702146E+03  0.24045593842E+03  0.47000000000E+01 0. -1.
        -11    1    4    4    0    0 -0.44133825884E+01  0.10124637919E+02 -0.10775217439E+03  0.10831674536E+03  0.00000000000E+00 0.  1.
         12    1    4    4    0    0  0.21299647046E+02 -0.28999202205E+02 -0.10771944499E+02  0.37558800314E+02  0.00000000000E+00 0. -1.
         -5    1    5    5    0  502  0.70822085711E+02  0.76838076179E+02  0.61906676282E+02  0.12154992531E+03  0.47000000000E+01 0.  1.
         11    1    6    6    0    0  0.22520465019E+02  0.77215778509E+01  0.25743156280E+02  0.35064286738E+02  0.00000000000E+00 0. -1.
        -12    1    6    6    0    0  0.15008942674E+01 -0.17900966042E+02 -0.50615459310E+02  0.53708677046E+02  0.00000000000E+00 0.  1.
</event>
<event>
12    1  0.8356052E-002  0.2507787E+03  0.7818608E-02  0.1114432E+00
         21   -1    0    0  503  502  0.00000000000E+00  0.00000000000E+00  0.43893110698E+02  0.43893110698E+02  0.00000000000E+00 0. -1.
         21   -1    0    0  501  503 -0.00000000000E+00 -0.00000000000E+00 -0.15880322697E+04  0.15880322697E+04  0.00000000000E+00 0. -1.
          6    2    1    2  501    0  0.45009146087E+02  0.16198176132E+03 -0.48758841505E+03  0.54829958968E+03  0.18608079783E+03 0.  0.
         24    2    3    3    0    0  0.64397244049E+02  0.48714833845E+02 -0.35145298158E+03  0.37008555699E+03  0.83210463004E+02 0.  0.
         -6    2    1    2    0  502 -0.45009146087E+02 -0.16198176132E+03 -0.10565507439E+04  0.10836257907E+04  0.17228309705E+03 0.  0.
        -24    2    5    5    0    0 -0.64497173378E+02 -0.12040234101E+03 -0.48556726513E+03  0.51077951597E+03  0.80396118545E+02 0.  0.
          5    1    3    3  501    0 -0.19388097962E+02  0.11326692747E+03 -0.13613543347E+03  0.17821403269E+03  0.47000000000E+01 0. -1.
        -11    1    4    4    0    0  0.39123287099E+02  0.21602983178E+02 -0.31480562042E+03  0.31796210328E+03  0.00000000000E+00 0.  1.
         12    1    4    4    0    0  0.25273956951E+02  0.27111850667E+02 -0.36647361164E+02  0.52123453712E+02  0.00000000000E+00 0. -1.
         -5    1    5    5    0  502  0.19488027291E+02 -0.41579420308E+02 -0.57098347880E+03  0.57284627472E+03  0.47000000000E+01 0.  1.
         13    1    6    6    0    0 -0.77593128883E+02 -0.67112252528E+02 -0.34308664205E+03  0.35809662389E+03  0.00000000000E+00 0. -1.
        -14    1    6    6    0    0  0.13095955505E+02 -0.53290088483E+02 -0.14248062308E+03  0.15268289208E+03  0.00000000000E+00 0.  1.
</event>
<event>
12    1  0.8356052E-002  0.1937526E+03  0.7818608E-02  0.1155213E+00
         21   -1    0    0  501  502  0.00000000000E+00  0.00000000000E+00  0.66973711130E+02  0.66973711130E+02  0.00000000000E+00 0. -1.
         21   -1    0    0  502  503 -0.00000000000E+00 -0.00000000000E+00 -0.82243023489E+03  0.82243023489E+03  0.00000000000E+00 0. -1.
         -6    2    1    2    0  503 -0.83669908027E+02  0.27625906907E+02 -0.62955487105E+03  0.65869521876E+03  0.17255784920E+03 0.  0.
        -24    2    3    3    0    0 -0.49600062330E+01  0.61460385454E+02 -0.39636215925E+03  0.41021795338E+03  0.85870992447E+02 0.  0.
          6    2    1    2  501    0  0.83669908027E+02 -0.27625906907E+02 -0.12590165271E+03  0.23070872726E+03  0.17207976765E+03 0.  0.
         24    2    5    5    0    0  0.12443387044E+03 -0.15275452742E+02 -0.10991011464E+03  0.18496975439E+03  0.80102741337E+02 0.  0.
          5    1    5    5  501    0 -0.40763962409E+02 -0.12350454165E+02 -0.15991538071E+02  0.45738972870E+02  0.47000000000E+01 0. -1.
        -11    1    6    6    0    0  0.17842453126E+02 -0.27174588211E+02 -0.56425274908E+02  0.65120066235E+02  0.00000000000E+00 0.  1.
         12    1    6    6    0    0  0.10659141731E+03  0.11899135470E+02 -0.53484839736E+02  0.11984968815E+03  0.00000000000E+00 0. -1.
         -5    1    3    3    0  503 -0.78709901794E+02 -0.33834478547E+02 -0.23319271179E+03  0.24847726538E+03  0.47000000000E+01 0.  1.
         11    1    4    4    0    0 -0.32783346580E+02  0.16439052120E+02 -0.27992184232E+03  0.28231405926E+03  0.00000000000E+00 0. -1.
        -12    1    4    4    0    0  0.27823340347E+02  0.45021333333E+02 -0.11644031693E+03  0.12790389411E+03  0.00000000000E+00 0.  1.
</event>
<event>
12    1  0.8356052E-002  0.2637772E+03  0.7818608E-02  0.1105137E+00
         21   -1    0    0  501  502  0.00000000000E+00  0.00000000000E+00  0.79318733780E+03  0.79318733780E+03  0.00000000000E+00 0. -1.
         21   -1    0    0  502  503 -0.00000000000E+00 -0.00000000000E+00 -0.87562066176E+02  0.87562066176E+02  0.00000000000E+00 0. -1.
         -6    2    1    2    0  503 -0.17117344387E+03 -0.10028387035E+03  0.32246785903E+03  0.41557413636E+03  0.17134509086E+03 0.  0.
        -24    2    3    3    0    0 -0.41450564132E+02 -0.75339661595E+02  0.88656674687E+02  0.14698523301E+03  0.79689640979E+02 0.  0.
          6    2    1    2  501    0  0.17117344387E+03  0.10028387035E+03  0.38315741259E+03  0.46517526762E+03  0.17384252713E+03 0.  0.
         24    2    5    5    0    0  0.16026535249E+03  0.22070365493E+02  0.29737111490E+03  0.34848029055E+03  0.82685238617E+02 0.  0.
          5    1    5    5  501    0  0.10908091381E+02  0.78213504861E+02  0.85786297695E+02  0.11669497707E+03  0.47000000000E+01 0. -1.
        -11    1    6    6    0    0  0.14760623393E+03  0.19319887380E+02  0.19517905226E+03  0.24547040715E+03  0.00000000000E+00 0.  1.
         12    1    6    6    0    0  0.12659118559E+02  0.27504781132E+01  0.10219206264E+03  0.10300988341E+03  0.00000000000E+00 0. -1.
         -5    1    3    3    0  503 -0.12972287974E+03 -0.24944208760E+02  0.23381118435E+03  0.26858890335E+03  0.47000000000E+01 0.  1.
         13    1    4    4    0    0  0.12830426177E+02 -0.52762204111E+02  0.62054309702E+02  0.82457306354E+02  0.00000000000E+00 0. -1.
        -14    1    4    4    0    0 -0.54280990309E+02 -0.22577457484E+02  0.26602364985E+02  0.64527926653E+02  0.00000000000E+00 0.  1.
</event>
<event>
12    1  0.8356052E-002  0.3138907E+03  0.7818608E-02  0.1078589E+00
         21   -1    0    0  501  502  0.00000000000E+00  0.00000000000E+00  0.78057671780E+03  0.78057671780E+03  0.00000000000E+00 0.  1.
         21   -1    0    0  502  503 -0.00000000000E+00 -0.00000000000E+00 -0.18007972860E+03  0.18007972860E+03  0.00000000000E+00 0. -1.
         -6    2    1    2    0  503 -0.68324143727E+02 -0.25294148435E+03  0.37061915420E+02  0.31607111512E+03  0.17285769035E+03 0.  0.
        -24    2    3    3    0    0 -0.10235397832E+03 -0.22838191048E+03  0.42670799399E+01  0.26260342819E+03  0.79421147148E+02 0.  0.
          6    2    1    2  501    0  0.68324143727E+02  0.25294148435E+03  0.56343507378E+03  0.64458533128E+03  0.17141640473E+03 0.  0.
         24    2    5    5    0    0  0.24386683499E+01  0.19991719907E+03  0.31055213535E+03  0.37789385927E+03  0.79926882299E+02 0.  0.
          5    1    5    5  501    0  0.65885475377E+02  0.53024285285E+02  0.25288293843E+03  0.26669147201E+03  0.47000000000E+01 0. -1.
        -13    1    6    6    0    0  0.29100999554E+02  0.17006507165E+03  0.22587147282E+03  0.28423039775E+03  0.00000000000E+00 0.  1.
         14    1    6    6    0    0 -0.26662331205E+02  0.29852127413E+02  0.84680662532E+02  0.93663461516E+02  0.00000000000E+00 0. -1.
         -5    1    3    3    0  503  0.34029834593E+02 -0.24559573875E+02  0.32794835480E+02  0.53467686929E+02  0.47000000000E+01 0.  1.
         11    1    4    4    0    0 -0.59784414705E+02 -0.20505535754E+03 -0.23983616452E+01  0.21360624531E+03  0.00000000000E+00 0. -1.
        -12    1    4    4    0    0 -0.42569563616E+02 -0.23326552935E+02  0.66654415852E+01  0.48997182876E+02  0.00000000000E+00 0.  1.
</event>
<event>
12    1  0.8356052E-002  0.3623447E+03  0.7818608E-02  0.1057686E+00
         21   -1    0    0  501  502  0.00000000000E+00  0.00000000000E+00  0.11068975814E+03  0.11068975814E+03  0.00000000000E+00 0.  1.
         21   -1    0    0  502  503 -0.00000000000E+00 -0.00000000000E+00 -0.12041139311E+04  0.12041139311E+04  0.00000000000E+00 0. -1.
         -6    2    1    2    0  503 -0.93557911648E+02  0.30443219301E+03 -0.62876536239E+03  0.72556565341E+03  0.17224283293E+03 0.  0.
        -24    2    3    3    0    0  0.66103886227E+01  0.18396629344E+03 -0.40841534885E+03  0.45515496611E+03  0.80471433697E+02 0.  0.
          6    2    1    2  501    0  0.93557911648E+02 -0.30443219301E+03 -0.46465881060E+03  0.58923803586E+03  0.17280512044E+03 0.  0.
         24    2    5    5    0    0  0.10018481612E+03 -0.31957943296E+03 -0.43323696250E+03  0.55342215559E+03  0.80086236457E+02 0.  0.
          5    1    5    5  501    0 -0.66269044696E+01  0.15147239948E+02 -0.31421848101E+02  0.35815880262E+02  0.47000000000E+01 0. -1.
        -13    1    6    6    0    0  0.51526293017E+02 -0.55207458620E+02 -0.92140543204E+02  0.11913312747E+03  0.00000000000E+00 0.  1.
         14    1    6    6    0    0  0.48658523100E+02 -0.26437197434E+03 -0.34109641930E+03  0.43428902812E+03  0.00000000000E+00 0. -1.
         -5    1    3    3    0  503 -0.10016830027E+03  0.12046589957E+03 -0.22035001354E+03  0.27041068730E+03  0.47000000000E+01 0.  1.
         13    1    4    4    0    0 -0.27651137480E+01  0.11149556008E+03 -0.32825986562E+03  0.34668926310E+03  0.00000000000E+00 0. -1.
        -14    1    4    4    0    0  0.93755023707E+01  0.72470733361E+02 -0.80155483233E+02  0.10846570302E+03  0.00000000000E+00 0.  1.
</event>
<event>
12    1  0.8356052E-002  0.2043516E+03  0.7818608E-02  0.1146237E+00
         21   -1    0    0  501  502  0.00000000000E+00  0.00000000000E+00  0.26599574592E+03  0.26599574592E+03  0.00000000000E+00 0. -1.
         21   -1    0    0  502  503 -0.00000000000E+00 -0.00000000000E+00 -0.15765984867E+03  0.15765984867E+03  0.00000000000E+00 0. -1.
         -6    2    1    2    0  503 -0.59315156061E+02 -0.93461184773E+02  0.72016089628E+02  0.21667005674E+03  0.17177402459E+03 0.  0.
        -24    2    3    3    0    0  0.28982814569E+02 -0.62370265885E+02  0.15215636391E+02  0.10707280156E+03  0.80641277494E+02 0.  0.
          6    2    1    2  501    0  0.59315156061E+02  0.93461184773E+02  0.36319807624E+02  0.20698553786E+03  0.17108653851E+03 0.  0.
         24    2    5    5    0    0  0.49508976469E+02  0.61541981154E+02 -0.42816041215E+02  0.12096478868E+03  0.80998225413E+02 0.  0.
          5    1    5    5  501    0  0.98061795923E+01  0.31919203619E+02  0.79135848838E+02  0.86020749178E+02  0.47000000000E+01 0. -1.
        -13    1    6    6    0    0  0.17103169822E+02 -0.12635533483E+02 -0.33230935852E+02  0.39452125696E+02  0.00000000000E+00 0.  1.
         14    1    6    6    0    0  0.32405806646E+02  0.74177514637E+02 -0.95851053627E+01  0.81512662985E+02  0.00000000000E+00 0. -1.
         -5    1    3    3    0  503 -0.88297970630E+02 -0.31090918888E+02  0.56800453237E+02  0.10959725518E+03  0.47000000000E+01 0.  1.
         13    1    4    4    0    0 -0.21596847727E+02 -0.47632309988E+02  0.14929629131E+02  0.54388919943E+02  0.00000000000E+00 0. -1.
        -14    1    4    4    0    0  0.50579662296E+02 -0.14737955897E+02  0.28600726034E+00  0.52683881616E+02  0.00000000000E+00 0.  1.
</event>
<event>
12    1  0.8356052E-002  0.2183661E+03  0.7818608E-02  0.1136565E+00
         21   -1    0    0  501  502  0.00000000000E+00  0.00000000000E+00  0.29083154372E+03  0.29083154372E+03  0.00000000000E+00 0.  1.
         21   -1    0    0  502  503 -0.00000000000E+00 -0.00000000000E+00 -0.31611559377E+03  0.31611559377E+03  0.00000000000E+00 0.  1.
         -6    2    1    2    0  503 -0.14028557407E+02  0.13437258220E+03 -0.22693836005E+03  0.30971288229E+03  0.16176606234E+03 0.  0.
        -24    2    3    3    0    0  0.32032133398E+02  0.34428572888E+02 -0.62577713503E+02  0.11185711572E+03  0.79904066903E+02 0.  0.
          6    2    1    2  501    0  0.14028557407E+02 -0.13437258220E+03  0.20165430999E+03  0.29723425520E+03  0.17155451162E+03 0.  0.
         24    2    5    5    0    0  0.22843541603E+02 -0.13762469426E+03  0.22367923079E+03  0.27283205621E+03  0.70303262721E+02 0.  0.
          5    1    5    5  501    0 -0.88149841967E+01  0.32521120658E+01 -0.22024920795E+02  0.24402198985E+02  0.47000000000E+01 0. -1.
        -11    1    6    6    0    0  0.31367903986E+02 -0.69597922739E+02  0.66083406228E+02  0.10096946483E+03  0.00000000000E+00 0.  1.
         12    1    6    6    0    0 -0.85243623824E+01 -0.68026771522E+02  0.15759582456E+03  0.17186259138E+03  0.00000000000E+00 0. -1.
         -5    1    3    3    0  503 -0.46060690805E+02  0.99944009308E+02 -0.16436064654E+03  0.19785576657E+03  0.47000000000E+01 0.  1.
         11    1    4    4    0    0  0.14007431903E+02  0.53186157745E+02 -0.14001971557E+02  0.56754125239E+02  0.00000000000E+00 0. -1.
        -12    1    4    4    0    0  0.18024701495E+02 -0.18757584858E+02 -0.48575741947E+02  0.55102990476E+02  0.00000000000E+00 0.  1.
</event>
<event>
12    1  0.8356052E-002  0.2049950E+03  0.7818608E-02  0.1145712E+00
         21   -1    0    0  503  502  0.00000000000E+00  0.00000000000E+00  0.25590220400E+03  0.25590220400E+03  0.00000000000E+00 0. -1.
         21   -1    0    0  501  503 -0.00000000000E+00 -0.00000000000E+00 -0.16641989583E+03  0.16641989583E+03  0.00000000000E+00 0.  1.
          6    2    1    2  501    0 -0.35565212675E+02 -0.10473755791E+03  0.18024507489E+02  0.20578585930E+03  0.17259228438E+03 0.  0.
         24    2    3    3    0    0  0.23686666038E+02 -0.51985924449E+02 -0.41348488558E+02  0.10658524124E+03  0.79919469810E+02 0.  0.
         -6    2    1    2    0  502  0.35565212675E+02  0.10473755791E+03  0.71457800674E+02  0.21653624053E+03  0.17189207601E+03 0.  0.
        -24    2    5    5    0    0 -0.19031821465E+02 -0.51353712197E+01 -0.18805043976E+00  0.74380992034E+02  0.71721087186E+02 0.  0.
          5    1    3    3  501    0 -0.59251878713E+02 -0.52751633465E+02  0.59372996047E+02  0.99200618062E+02  0.47000000000E+01 0. -1.
        -13    1    4    4    0    0  0.47477033035E+02 -0.79376078999E+01 -0.18753569576E+02  0.51660145730E+02  0.00000000000E+00 0.  1.
         14    1    4    4    0    0 -0.23790366997E+02 -0.44048316550E+02 -0.22594918983E+02  0.54925095508E+02  0.00000000000E+00 0. -1.
         -5    1    5    5    0  502  0.54597034139E+02  0.10987292913E+03  0.71645851114E+02  0.14215524850E+03  0.47000000000E+01 0.  1.
         11    1    6    6    0    0 -0.44245749107E+02  0.89412345830E+01  0.34685270387E+01  0.45273200347E+02  0.00000000000E+00 0. -1.
        -12    1    6    6    0    0  0.25213927642E+02 -0.14076605803E+02 -0.36565774785E+01  0.29107791687E+02  0.00000000000E+00 0.  1.
</event>
<event>
12    1  0.8356052E-002  0.1770632E+03  0.7818608E-02  0.1174100E+00
         21   -1    0    0  503  502  0.00000000000E+00  0.00000000000E+00  0.40995325251E+02  0.40995325251E+02  0.00000000000E+00 0.  1.
         21   -1    0    0  501  503 -0.00000000000E+00 -0.00000000000E+00 -0.13000470129E+04  0.13000470129E+04  0.00000000000E+00 0.  1.
          6    2    1    2  501    0  0.23278639198E+01  0.35243633702E+02 -0.10682872609E+04  0.10807685829E+04  0.15992349797E+03 0.  0.
         24    2    3    3    0    0  0.52479106890E+02  0.57832056131E+02 -0.71069241375E+03  0.71893775400E+03  0.75426678190E+02 0.  0.
         -6    2    1    2    0  502 -0.23278639198E+01 -0.35243633702E+02 -0.19076442670E+03  0.26027375525E+03  0.17350454897E+03 0.  0.
        -24    2    5    5    0    0  0.12501483729E+02 -0.41192575616E+02 -0.21284182073E+03  0.23261872336E+03  0.83406920732E+02 0.  0.
          5    1    3    3  501    0 -0.50151242970E+02 -0.22588422428E+02 -0.35759484718E+03  0.36183082888E+03  0.47000000000E+01 0. -1.
        -13    1    4    4    0    0 -0.19494685596E+01  0.48080980771E+02 -0.44219963406E+03  0.44481018143E+03  0.00000000000E+00 0.  1.
         14    1    4    4    0    0  0.54428575449E+02  0.97510753595E+01 -0.26849277969E+03  0.27412757257E+03  0.00000000000E+00 0. -1.
         -5    1    5    5    0  502 -0.14829347648E+02  0.59489419140E+01  0.22077394032E+02  0.27655031890E+02  0.47000000000E+01 0.  1.
         13    1    6    6    0    0 -0.17650691889E+02 -0.56986009175E+02 -0.14206316422E+03  0.15408080605E+03  0.00000000000E+00 0. -1.
        -14    1    6    6    0    0  0.30152175617E+02  0.15793433558E+02 -0.70778656512E+02  0.78537917312E+02  0.00000000000E+00 0.  1.
</event>
<event>
12    1  0.8356052E-002  0.2774062E+03  0.7818608E-02  0.1097171E+00
         21   -1    0    0  501  502  0.00000000000E+00  0.00000000000E+00  0.86157928460E+03  0.86157928460E+03  0.00000000000E+00 0.  1.
         21   -1    0    0  502  503 -0.00000000000E+00 -0.00000000000E+00 -0.89515994518E+02  0.89515994518E+02  0.00000000000E+00 0. -1.
         -6    2    1    2    0  503 -0.16383585451E+03  0.14417976443E+03  0.35738055966E+03  0.45241031256E+03  0.17124320364E+03 0.  0.
        -24    2    3    3    0    0 -0.11851790737E+03  0.11335801671E+03  0.14693145826E+03  0.23489109330E+03  0.81782870865E+02 0.  0.
          6    2    1    2  501    0  0.16383585451E+03 -0.14417976443E+03  0.41468273042E+03  0.49868496656E+03  0.17057238132E+03 0.  0.
         24    2    5    5    0    0  0.16875144385E+03 -0.11627740418E+03  0.41470471593E+03  0.46996571849E+03  0.83007774488E+02 0.  0.
          5    1    5    5  501    0 -0.49155893435E+01 -0.27902360250E+02 -0.21985502786E-01  0.28719248066E+02  0.47000000000E+01 0. -1.
        -11    1    6    6    0    0  0.11159889231E+03 -0.95685989768E+02  0.35740872703E+03  0.38645972566E+03  0.00000000000E+00 0.  1.
         12    1    6    6    0    0  0.57152551545E+02 -0.20591414409E+02  0.57295988896E+02  0.83505992833E+02  0.00000000000E+00 0. -1.
         -5    1    3    3    0  503 -0.45317947140E+02  0.30821747717E+02  0.21044910140E+03  0.21751921925E+03  0.47000000000E+01 0.  1.
         13    1    4    4    0    0 -0.11319698328E+03  0.58643911448E+02  0.11249887863E+03  0.17002547770E+03  0.00000000000E+00 0. -1.
        -14    1    4    4    0    0 -0.53209240887E+01  0.54714105263E+02  0.34432579634E+02  0.64865615607E+02  0.00000000000E+00 0.  1.
</event>
<event>
12    1  0.8356052E-002  0.1911199E+03  0.7818608E-02  0.1157835E+00
         21   -1    0    0  501  502  0.00000000000E+00  0.00000000000E+00  0.10817497243E+04  0.10817497243E+04  0.00000000000E+00 0.  1.
         21   -1    0    0  502  503 -0.00000000000E+00 -0.00000000000E+00 -0.10635487792E+03  0.10635487792E+03  0.00000000000E+00 0.  1.
         -6    2    1    2    0  503  0.76668949170E+02 -0.28183341135E+02 -0.33974827887E+01  0.19115008333E+03  0.17278420930E+03 0.  0.
        -24    2    3    3    0    0  0.34054286969E+02 -0.83548266091E+02 -0.10159353098E+02  0.12080026287E+03  0.79683648418E+02 0.  0.
          6    2    1    2  501    0 -0.76668949170E+02  0.28183341135E+02  0.97879232914E+03  0.99695451886E+03  0.17091360570E+03 0.  0.
         24    2    5    5    0    0 -0.65443667094E+02 -0.34459739113E+02  0.37656166264E+03  0.39135231598E+03  0.76730712702E+02 0.  0.
          5    1    5    5  501    0 -0.11225282075E+02  0.62643080248E+02  0.60223066650E+03  0.60560220288E+03  0.47000000000E+01 0. -1.
        -11    1    6    6    0    0 -0.34171267186E+02  0.10337332823E+02  0.26210749809E+03  0.26452764791E+03  0.00000000000E+00 0.  1.
         12    1    6    6    0    0 -0.31272399909E+02 -0.44797071936E+02  0.11445416455E+03  0.12682466808E+03  0.00000000000E+00 0. -1.
         -5    1    3    3    0  503  0.42614662200E+02  0.55364924956E+02  0.67618703094E+01  0.70349820468E+02  0.47000000000E+01 0.  1.
         13    1    4    4    0    0 -0.25800532699E+02 -0.30765632471E+02 -0.81530571790E+01  0.40971501928E+02  0.00000000000E+00 0. -1.
        -14    1    4    4    0    0  0.59854819669E+02 -0.52782633620E+02 -0.20062959191E+01  0.79828760937E+02  0.00000000000E+00 0.  1.
</event>
<event>
12    1  0.8356052E-002  0.2271759E+03  0.7818608E-02  0.1129443E+00
         21   -1    0    0  503  502  0.00000000000E+00  0.00000000000E+00  0.67293747561E+02  0.67293747561E+02  0.00000000000E+00 0.  1.
         21   -1    0    0  501  503 -0.00000000000E+00 -0.00000000000E+00 -0.81304596682E+03  0.81304596682E+03  0.00000000000E+00 0. -1.
          6    2    1    2  501    0 -0.78217589228E+02  0.12695762618E+03 -0.24891959180E+03  0.33403253355E+03  0.16547066259E+03 0.  0.
         24    2    3    3    0    0 -0.68108912097E+02  0.15664629674E+03 -0.23034549888E+03  0.29728080651E+03  0.78357787600E+02 0.  0.
         -6    2    1    2    0  502  0.78217589228E+02 -0.12695762618E+03 -0.49683262746E+03  0.54630718083E+03  0.17138449757E+03 0.  0.
        -24    2    5    5    0    0 -0.16545781644E+02 -0.45524776613E+02 -0.29047876315E+03  0.30502847732E+03  0.79487055327E+02 0.  0.
          5    1    3    3  501    0 -0.10108677131E+02 -0.29688670554E+02 -0.18574092915E+02  0.36751727037E+02  0.47000000000E+01 0. -1.
        -13    1    4    4    0    0 -0.19670536822E+02  0.33857378959E+02 -0.99831919973E+01  0.40409358462E+02  0.00000000000E+00 0.  1.
         14    1    4    4    0    0 -0.48438375275E+02  0.12278891778E+03 -0.22036230689E+03  0.25687144805E+03  0.00000000000E+00 0. -1.
         -5    1    5    5    0  502  0.94763370872E+02 -0.81432849569E+02 -0.20635386432E+03  0.24127870351E+03  0.47000000000E+01 0.  1.
         11    1    6    6    0    0  0.93721062805E+01 -0.57526740856E+02 -0.24052054537E+03  0.24748190850E+03  0.00000000000E+00 0. -1.
        -12    1    6    6    0    0 -0.25917887925E+02  0.12001964242E+02 -0.49958217770E+02  0.57546568820E+02  0.00000000000E+00 0.  1.
</event>
<event>
12    1  0.8356052E-002  0.2266199E+03  0.7818608E-02  0.1129197E+00
         21   -1    0    0  503  502  0.00000000000E+00  0.00000000000E+00  0.71180559042E+03  0.71180559042E+03  0.00000000000E+00 0. -1.
         21   -1    0    0  501  503 -0.00000000000E+00 -0.00000000000E+00 -0.23290155007E+03  0.23290155007E+03  0.00000000000E+00 0. -1.
          6    2    1    2  501    0  0.14569945389E+03  0.13718203786E+01 -0.15345130249E+03  0.27297067440E+03  0.17243976947E+03 0.  0.
         24    2    3    3    0    0  0.43177709777E+02  0.55710584471E+02 -0.44064707878E+02  0.11343720964E+03  0.77190143199E+02 0.  0.
         -6    2    1    2    0  502 -0.14569945389E+03 -0.13718203786E+01  0.63235534283E+03  0.67173646609E+03  0.17356954659E+03 0.  0.
        -24    2    5    5    0    0 -0.13602844645E+03 -0.32494397711E+01  0.63949697440E+03  0.65869243523E+03  0.80031536717E+02 0.  0.
          5    1    3    3  501    0  0.10252174412E+03 -0.54338764092E+02 -0.10938659461E+03  0.15953346476E+03  0.47000000000E+01 0. -1.
        -13    1    4    4    0    0  0.52608537529E+02  0.34839142280E+02  0.75681040534E+00  0.63103065043E+02  0.00000000000E+00 0.  1.
         14    1    4    4    0    0 -0.94308277527E+01  0.20871442191E+02 -0.44821518283E+02  0.50334144598E+02  0.00000000000E+00 0. -1.
         -5    1    5    5    0  502 -0.96710074418E+01  0.18776193925E+01 -0.71416315624E+01  0.13044030853E+02  0.47000000000E+01 0.  1.
         13    1    6    6    0    0 -0.17896675252E+02 -0.23007055560E+02  0.57126758287E+02  0.64133315078E+02  0.00000000000E+00 0. -1.
        -14    1    6    6    0    0 -0.11813177120E+03  0.19757615788E+02  0.58237021611E+03  0.59455912015E+03  0.00000000000E+00 0.  1.
</event>
<event>
12    1  0.8356052E-002  0.2186734E+03  0.7818608E-02  0.1134926E+00
         21   -1    0    0  501  502  0.00000000000E+00  0.00000000000E+00  0.34148454926E+03  0.34148454926E+03  0.00000000000E+00 0. -1.
         21   -1    0    0  502  503 -0.00000000000E+00 -0.00000000000E+00 -0.14352092582E+03  0.14352092582E+03  0.00000000000E+00 0.  1.
         -6    2    1    2    0  503 -0.13216121928E+03 -0.22410507960E+02  0.13777986071E+03  0.25845960215E+03  0.17276937569E+03 0.  0.
        -24    2    3    3    0    0 -0.93530769950E+02 -0.41116589359E+02  0.16316642165E+03  0.20837171366E+03  0.79730239259E+02 0.  0.
          6    2    1    2  501    0  0.13216121928E+03  0.22410507960E+02  0.60183762738E+02  0.22654587293E+03  0.17243006842E+03 0.  0.
         24    2    5    5    0    0  0.67584824589E+02 -0.41854893182E+02 -0.74180838508E+01  0.11300181893E+03  0.79967759232E+02 0.  0.
          5    1    5    5  501    0  0.64576394691E+02  0.64265401142E+02  0.67601846588E+02  0.11354405399E+03  0.47000000000E+01 0. -1.
        -11    1    6    6    0    0  0.50788637483E+02  0.11820947883E+02 -0.19145568308E+02  0.55549737102E+02  0.00000000000E+00 0.  1.
         12    1    6    6    0    0  0.16796187106E+02 -0.53675841065E+02  0.11727484457E+02  0.57452081833E+02  0.00000000000E+00 0. -1.
         -5    1    3    3    0  503 -0.38630449330E+02  0.18706081399E+02 -0.25386560939E+02  0.50087888487E+02  0.47000000000E+01 0.  1.
         13    1    4    4    0    0  0.58260295533E+01 -0.23607168467E+02  0.56716645634E+02  0.61709147744E+02  0.00000000000E+00 0. -1.
        -14    1    4    4    0    0 -0.99356799504E+02 -0.17509420892E+02  0.10644977601E+03  0.14666256591E+03  0.00000000000E+00 0.  1.
</event>
<event>
12    1  0.8356052E-002  0.2098111E+03  0.7818608E-02  0.1143926E+00
         21   -1    0    0  503  502  0.00000000000E+00  0.00000000000E+00  0.62090932203E+02  0.62090932203E+02  0.00000000000E+00 0. -1.
         21   -1    0    0  501  503 -0.00000000000E+00 -0.00000000000E+00 -0.84530652290E+03  0.84530652290E+03  0.00000000000E+00 0.  1.
          6    2    1    2  501    0  0.85798245863E+02  0.80398993598E+02 -0.60476614341E+03  0.64012718013E+03  0.17376818283E+03 0.  0.
         24    2    3    3    0    0  0.12767550351E+03  0.76146299321E+02 -0.46086994933E+03  0.49012719750E+03  0.75658882110E+02 0.  0.
         -6    2    1    2    0  502 -0.85798245863E+02 -0.80398993598E+02 -0.17844944729E+03  0.26727027497E+03  0.16051123787E+03 0.  0.
        -24    2    5    5    0    0 -0.10438952956E+03 -0.70470845986E+02 -0.85087710831E+02  0.17144382884E+03  0.79307968691E+02 0.  0.
          5    1    3    3  501    0 -0.41877257650E+02  0.42526942771E+01 -0.14389619409E+03  0.14999998263E+03  0.47000000000E+01 0. -1.
        -13    1    4    4    0    0  0.22033020501E+00  0.18490455050E+02 -0.12392749100E+03  0.12529951516E+03  0.00000000000E+00 0.  1.
         14    1    4    4    0    0  0.12745517331E+03  0.57655844271E+02 -0.33694245833E+03  0.36482768234E+03  0.00000000000E+00 0. -1.
         -5    1    5    5    0  502  0.18591283692E+02 -0.99281476127E+01 -0.93361736455E+02  0.95826446131E+02  0.47000000000E+01 0.  1.
         11    1    6    6    0    0 -0.43880514742E+02 -0.50229063078E+02 -0.20561517529E+01  0.66728450542E+02  0.00000000000E+00 0. -1.
        -12    1    6    6    0    0 -0.60509014813E+02 -0.20241782907E+02 -0.83031559078E+02  0.10471537830E+03  0.00000000000E+00 0.  1.
</event>
<event>
12    1  0.8356052E-002  0.4064281E+03  0.7818608E-02  0.1041645E+00
         21   -1    0    0  503  502  0.00000000000E+00  0.00000000000E+00  0.13362083420E+04  0.13362083420E+04  0.00000000000E+00 0. -1.
         21   -1    0    0  501  503 -0.00000000000E+00 -0.00000000000E+00 -0.12340788141E+03  0.12340788141E+03  0.00000000000E+00 0. -1.
          6    2    1    2  501    0 -0.54857683494E+02 -0.36343080053E+03  0.59519022488E+03  0.72071854815E+03  0.17347192755E+03 0.  0.
         24    2    3    3    0    0 -0.39882783109E+02 -0.12190914620E+03  0.32315026155E+03  0.35659660594E+03  0.79262674140E+02 0.  0.
         -6    2    1    2    0  502  0.54857683494E+02  0.36343080053E+03  0.61761023573E+03  0.73889767527E+03  0.17156940005E+03 0.  0.
        -24    2    5    5    0    0 -0.29942846284E+02  0.24655293610E+03  0.41736907861E+03  0.49197627877E+03  0.78477938003E+02 0.  0.
          5    1    3    3  501    0 -0.14974900385E+02 -0.24152165433E+03  0.27203996332E+03  0.36412194221E+03  0.47000000000E+01 0. -1.
        -13    1    4    4    0    0 -0.21175477086E+02 -0.12869236261E+03  0.28911067344E+03  0.31716731629E+03  0.00000000000E+00 0.  1.
         14    1    4    4    0    0 -0.18707306023E+02  0.67832164155E+01  0.34039588110E+02  0.39429289650E+02  0.00000000000E+00 0. -1.
         -5    1    5    5    0  502  0.84800529778E+02  0.11687786443E+03  0.20024115712E+03  0.24692139650E+03  0.47000000000E+01 0.  1.
         13    1    6    6    0    0  0.74334428220E+01  0.17953189068E+03  0.25022170483E+03  0.30805495843E+03  0.00000000000E+00 0. -1.
        -14    1    6    6    0    0 -0.37376289106E+02  0.67021045417E+02  0.16714737378E+03  0.18392132034E+03  0.00000000000E+00 0.  1.
</event>
<event>
12    1  0.8356052E-002  0.2657695E+03  0.7818608E-02  0.1103912E+00
         21   -1    0    0  501  502  0.00000000000E+00  0.00000000000E+00  0.18324676407E+04  0.18324676407E+04  0.00000000000E+00 0. -1.
         21   -1    0    0  502  503 -0.00000000000E+00 -0.00000000000E+00 -0.39489951220E+02  0.39489951220E+02  0.00000000000E+00 0.  1.
         -6    2    1    2    0  503  0.19496704159E+03 -0.46313697075E+02  0.74030666081E+03  0.78656682857E+03  0.17457467718E+03 0.  0.
        -24    2    3    3    0    0  0.17138813379E+03 -0.94073963408E+02  0.55993189481E+03  0.59843348717E+03  0.79844278109E+02 0.  0.
          6    2    1    2  501    0 -0.19496704159E+03  0.46313697075E+02  0.10526710287E+04  0.10853907633E+04  0.17262592140E+03 0.  0.
         24    2    5    5    0    0 -0.62262973685E+02 -0.25119946193E+02  0.58259582700E+03  0.59172496522E+03  0.78821616537E+02 0.  0.
          5    1    5    5  501    0 -0.13270406791E+03  0.71433643269E+02  0.47007520165E+03  0.49366579812E+03  0.47000000000E+01 0. -1.
        -13    1    6    6    0    0 -0.47945067244E+02  0.18785500699E+02  0.20736483749E+03  0.21366281927E+03  0.00000000000E+00 0.  1.
         14    1    6    6    0    0 -0.14317906441E+02 -0.43905446893E+02  0.37523098951E+03  0.37806214595E+03  0.00000000000E+00 0. -1.
         -5    1    3    3    0  503  0.23578907801E+02  0.47760266333E+02  0.18037476601E+03  0.18813334140E+03  0.47000000000E+01 0.  1.
         11    1    4    4    0    0  0.12983173695E+03 -0.27768882838E+02  0.36360183319E+03  0.38708356187E+03  0.00000000000E+00 0. -1.
        -12    1    4    4    0    0  0.41556396843E+02 -0.66305080570E+02  0.19633006162E+03  0.21134992530E+03  0.00000000000E+00 0.  1.
</event>
<event>
12    1  0.8356052E-002  0.1925830E+03  0.7818608E-02  0.1156980E+00
         21   -1    0    0  503  502  0.00000000000E+00  0.00000000000E+00  0.62987356660E+02  0.62987356660E+02  0.00000000000E+00 0.  1.
         21   -1    0    0  501  503 -0.00000000000E+00 -0.00000000000E+00 -0.58224418856E+03  0.58224418856E+03  0.00000000000E+00 0. -1.
          6    2    1    2  501    0  0.75352904346E+02 -0.18473822294E+02 -0.22822853245E+03  0.29625351603E+03  0.17221655098E+03 0.  0.
         24    2    3    3    0    0  0.17551029141E+02 -0.91343873862E+00 -0.23153552061E+02  0.82414180474E+02  0.77117683938E+02 0.  0.
         -6    2    1    2    0  502 -0.75352904346E+02  0.18473822294E+02 -0.29102829945E+03  0.34897802919E+03  0.17626358523E+03 0.  0.
        -24    2    5    5    0    0 -0.50410386972E+02  0.90825284404E+01 -0.30399518684E+03  0.31896876826E+03  0.81879802576E+02 0.  0.
          5    1    3    3  501    0  0.57801875205E+02 -0.17560383555E+02 -0.20507498039E+03  0.21383933556E+03  0.47000000000E+01 0. -1.
        -13    1    4    4    0    0  0.47419788737E+02  0.15551009630E+01 -0.58432872199E+01  0.47803752032E+02  0.00000000000E+00 0.  1.
         14    1    4    4    0    0 -0.29868759596E+02 -0.24685397016E+01 -0.17310264841E+02  0.34610428441E+02  0.00000000000E+00 0. -1.
         -5    1    5    5    0  502 -0.24942517374E+02  0.93912938535E+01  0.12966887386E+02  0.30009260932E+02  0.47000000000E+01 0.  1.
         11    1    6    6    0    0 -0.18996185185E+02  0.32132157648E+02 -0.52178194552E+02  0.64155238238E+02  0.00000000000E+00 0. -1.
        -12    1    6    6    0    0 -0.31414201787E+02 -0.23049629207E+02 -0.25181699228E+03  0.25481353002E+03  0.00000000000E+00 0.  1.
</event>
<event>
12    1  0.8356052E-002  0.1865638E+03  0.7818608E-02  0.1162784E+00
         21   -1    0    0  503  502  0.00000000000E+00  0.00000000000E+00  0.57496218569E+02  0.57496218569E+02  0.00000000000E+00 0. -1.
         21   -1    0    0  501  503 -0.00000000000E+00 -0.00000000000E+00 -0.58924044376E+03  0.58924044376E+03  0.00000000000E+00 0. -1.
          6    2    1    2  501    0  0.67782068551E+02  0.24177768104E+02 -0.26358315415E+03  0.32292741619E+03  0.17212513962E+03 0.  0.
         24    2    3    3    0    0  0.37346499215E+02 -0.45310453409E+02 -0.93229909970E+02  0.13638719369E+03  0.80385647332E+02 0.  0.
         -6    2    1    2    0  502 -0.67782068551E+02 -0.24177768104E+02 -0.26816107104E+03  0.32380924614E+03  0.16662261123E+03 0.  0.
        -24    2    5    5    0    0 -0.34891373382E+02  0.25602221257E+02 -0.63715714236E+02  0.11078380379E+03  0.79627113918E+02 0.  0.
          5    1    3    3  501    0  0.30435569336E+02  0.69488221513E+02 -0.17035324418E+03  0.18654022250E+03  0.47000000000E+01 0. -1.
        -13    1    4    4    0    0  0.50638127353E+01 -0.10796059133E+02 -0.88040170355E+02  0.88844069517E+02  0.00000000000E+00 0.  1.
         14    1    4    4    0    0  0.32282686480E+02 -0.34514394275E+02 -0.51897396153E+01  0.47543124170E+02  0.00000000000E+00 0. -1.
         -5    1    5    5    0  502 -0.32890695169E+02 -0.49779989361E+02 -0.20444535681E+03  0.21302544235E+03  0.47000000000E+01 0.  1.
         13    1    6    6    0    0 -0.53858076200E+02 -0.44281610238E+01 -0.46596736200E+02  0.71355145620E+02  0.00000000000E+00 0. -1.
        -14    1    6    6    0    0  0.18966702818E+02  0.30030382281E+02 -0.17118978035E+02  0.39428658165E+02  0.00000000000E+00 0.  1.
</event>
<event>
12    1  0.8356052E-002  0.4315101E+03  0.7818608E-02  0.1033493E+00
         21   -1    0    0  503  502  0.00000000000E+00  0.00000000000E+00  0.44354231255E+03  0.44354231255E+03  0.00000000000E+00 0. -1.
         21   -1    0    0  501  503 -0.00000000000E+00 -0.00000000000E+00 -0.23433582562E+04  0.23433582562E+04  0.00000000000E+00 0.  1.
          6    2    1    2  501    0 -0.33837790927E+03  0.20253804281E+03 -0.22125564557E+04  0.22539769134E+04  0.17171076934E+03 0.  0.
         24    2    3    3    0    0 -0.34605483974E+03  0.20890842477E+03 -0.21944810592E+04  0.22328031800E+04  0.79159582516E+02 0.  0.
         -6    2    1    2    0  502  0.33837790927E+03 -0.20253804281E+03  0.31274051210E+03  0.53292365527E+03  0.17515629067E+03 0.  0.
        -24    2    5    5    0    0  0.80009084867E+02 -0.75901964909E+02  0.13741066221E+03  0.19594621995E+03  0.85736043083E+02 0.  0.
          5    1    3    3  501    0  0.76769304615E+01 -0.63703819563E+01 -0.18075396555E+02  0.21173733450E+02  0.47000000000E+01 0. -1.
        -13    1    4    4    0    0 -0.13822708936E+03  0.12320767688E+03 -0.10995972223E+04  0.11150788811E+04  0.00000000000E+00 0.  1.
         14    1    4    4    0    0 -0.20782775038E+03  0.85700747891E+02 -0.10948838369E+04  0.11177242989E+04  0.00000000000E+00 0. -1.
         -5    1    5    5    0  502  0.25836882441E+03 -0.12663607790E+03  0.17532984989E+03  0.33697743532E+03  0.47000000000E+01 0.  1.
         13    1    6    6    0    0  0.57416358410E+02 -0.14198301537E+00  0.37656455754E+02  0.68663433006E+02  0.00000000000E+00 0. -1.
        -14    1    6    6    0    0  0.22592726457E+02 -0.75759981893E+02  0.99754206456E+02  0.12728278694E+03  0.00000000000E+00 0.  1.
</event>
<event>
12    1  0.8356052E-002  0.1894814E+03  0.7818608E-02  0.1159072E+00
         21   -1    0    0  501  502  0.00000000000E+00  0.00000000000E+00  0.28404581123E+02  0.28404581123E+02  0.00000000000E+00 0. -1.
         21   -1    0    0  502  503 -0.00000000000E+00 -0.00000000000E+00 -0.13474161138E+04  0.13474161138E+04  0.00000000000E+00 0. -1.
         -6    2    1    2    0  503  0.62545046908E+02  0.50558602801E+02 -0.83594220687E+03  0.85714793573E+03  0.17156676628E+03 0.  0.
        -24    2    3    3    0    0 -0.33532051543E+02  0.29394737940E+02 -0.44569439467E+03  0.45466295098E+03  0.78015744921E+02 0.  0.
          6    2    1    2  501    0 -0.62545046908E+02 -0.50558602801E+02 -0.48306932586E+03  0.51867275924E+03  0.17087247404E+03 0.  0.
         24    2    5    5    0    0 -0.40824054092E+02 -0.32312427321E+02 -0.48064675281E+03  0.48981650674E+03  0.78665195171E+02 0.  0.
          5    1    5    5  501    0 -0.21720992816E+02 -0.18246175480E+02 -0.24225730476E+01  0.28856252507E+02  0.47000000000E+01 0. -1.
        -13    1    6    6    0    0 -0.33232059335E+02 -0.49303500014E+02 -0.45036810769E+03  0.45427594841E+03  0.00000000000E+00 0.  1.
         14    1    6    6    0    0 -0.75919947568E+01  0.16991072693E+02 -0.30278645125E+02  0.35540558328E+02  0.00000000000E+00 0. -1.
         -5    1    3    3    0  503  0.96077098451E+02  0.21163864861E+02 -0.39024781220E+03  0.40248498475E+03  0.47000000000E+01 0.  1.
         13    1    4    4    0    0 -0.81529096526E+01 -0.26622287997E+02 -0.16250513845E+03  0.16487309112E+03  0.00000000000E+00 0. -1.
        -14    1    4    4    0    0 -0.25379141890E+02  0.56017025937E+02 -0.28318925622E+03  0.28978985986E+03  0.00000000000E+00 0.  1.
</event>
<event>
12    1  0.8356052E-002  0.2500098E+03  0.7818608E-02  0.1113414E+00
         21   -1    0    0  501  502  0.00000000000E+00  0.00000000000E+00  0.31327408738E+03  0.31327408738E+03  0.00000000000E+00 0.  1.
         21   -1    0    0  502  503 -0.00000000000E+00 -0.00000000000E+00 -0.21608958300E+03  0.21608958300E+03  0.00000000000E+00 0.  1.
         -6    2    1    2    0  503 -0.11036491744E+03  0.14327298715E+03 -0.25904679975E+02  0.25134828638E+03  0.17261907419E+03 0.  0.
        -24    2    3    3    0    0 -0.40188480470E+02  0.33545034884E+02  0.40669772298E+02  0.10499527648E+03  0.81422321114E+02 0.  0.
          6    2    1    2  501    0  0.11036491744E+03 -0.14327298715E+03  0.12308918436E+03  0.27801538400E+03  0.17156352347E+03 0.  0.
         24    2    5    5    0    0  0.84030269744E+02 -0.92009921952E+02  0.76991460389E+01  0.14894808967E+03  0.81236350207E+02 0.  0.
          5    1    5    5  501    0  0.26334647696E+02 -0.51263065195E+02  0.11539003832E+03  0.12906729433E+03  0.47000000000E+01 0. -1.
        -11    1    6    6    0    0  0.71245058821E+02 -0.79385394816E+02  0.38405977183E+02  0.11337071227E+03  0.00000000000E+00 0.  1.
         12    1    6    6    0    0  0.12785210923E+02 -0.12624527136E+02 -0.30706831145E+02  0.35577377400E+02  0.00000000000E+00 0. -1.
         -5    1    3    3    0  503 -0.70176436970E+02  0.10972795226E+03 -0.66574452273E+02  0.14635300991E+03  0.47000000000E+01 0.  1.
         11    1    4    4    0    0  0.50690645008E+01 -0.88074079426E+01 -0.17341481997E+02  0.20099573315E+02  0.00000000000E+00 0. -1.
        -12    1    4    4    0    0 -0.45257544971E+02  0.42352442827E+02  0.58011254296E+02  0.84895703161E+02  0.00000000000E+00 0.  1.
</event>
<event>
12    1  0.8356052E-002  0.2066865E+03  0.7818608E-02  0.1144765E+00
         21   -1    0    0  503  502  0.00000000000E+00  0.00000000000E+00  0.29861743696E+03  0.29861743696E+03  0.00000000000E+00 0.  1.
         21   -1    0    0  501  503 -0.00000000000E+00 -0.00000000000E+00 -0.27040521953E+03  0.27040521953E+03  0.00000000000E+00 0. -1.
          6    2    1    2  501    0 -0.89790810827E+01  0.11042438306E+03 -0.18250986876E+03  0.27573384577E+03  0.17448533816E+03 0.  0.
         24    2    3    3    0    0 -0.15353965249E+02  0.36363791657E+01 -0.13802377731E+03  0.15977946139E+03  0.78930004916E+02 0.  0.
         -6    2    1    2    0  502  0.89790810827E+01 -0.11042438306E+03  0.21072208619E+03  0.29328881073E+03  0.17129028173E+03 0.  0.
        -24    2    5    5    0    0  0.31710192738E+02 -0.60941494839E+02  0.36962487598E+02  0.11113572190E+03  0.79155044541E+02 0.  0.
          5    1    3    3  501    0  0.63748841661E+01  0.10678800390E+03 -0.44486091453E+02  0.11595438438E+03  0.47000000000E+01 0. -1.
        -11    1    4    4    0    0  0.22933351283E+02  0.19785264334E+01 -0.82289940183E+01  0.24445234923E+02  0.00000000000E+00 0.  1.
         12    1    4    4    0    0 -0.38287316532E+02  0.16578527323E+01 -0.12979478329E+03  0.13533422646E+03  0.00000000000E+00 0. -1.
         -5    1    5    5    0  502 -0.22731111655E+02 -0.49482888223E+02  0.17375959860E+03  0.18215308882E+03  0.47000000000E+01 0.  1.
         13    1    6    6    0    0 -0.25859259768E+02 -0.26440757729E+02  0.70233949795E+01  0.37644960647E+02  0.00000000000E+00 0. -1.
        -14    1    6    6    0    0  0.57569452506E+02 -0.34500737110E+02  0.29939092619E+02  0.73490761254E+02  0.00000000000E+00 0.  1.
</event>
<event>
12    1  0.8356052E-002  0.2075867E+03  0.7818608E-02  0.1143570E+00
         21   -1    0    0  501  502  0.00000000000E+00  0.00000000000E+00  0.80122735217E+03  0.80122735217E+03  0.00000000000E+00 0. -1.
         21   -1    0    0  502  503 -0.00000000000E+00 -0.00000000000E+00 -0.53705381334E+02  0.53705381334E+02  0.00000000000E+00 0. -1.
         -6    2    1    2    0  503  0.10613353575E+03  0.45941132277E+02  0.36441572645E+03  0.41920043351E+03  0.17191645275E+03 0.  0.
        -24    2    3    3    0    0  0.11937927810E+03  0.84873622825E+02  0.28933378831E+03  0.33346493360E+03  0.77652282575E+02 0.  0.
          6    2    1    2  501    0 -0.10613353575E+03 -0.45941132277E+02  0.38310624439E+03  0.43573229999E+03  0.17238714489E+03 0.  0.
         24    2    5    5    0    0 -0.32964066706E+02 -0.98795255356E+01  0.68666017682E+02  0.11084931052E+03  0.79926922493E+02 0.  0.
          5    1    5    5  501    0 -0.73169469047E+02 -0.36061606742E+02  0.31444022671E+03  0.32488298948E+03  0.47000000000E+01 0. -1.
        -13    1    6    6    0    0  0.15849331746E+02 -0.24853319659E+02  0.61135999500E+01  0.30104234240E+02  0.00000000000E+00 0.  1.
         14    1    6    6    0    0 -0.48813398452E+02  0.14973794123E+02  0.62552417732E+02  0.80745076277E+02  0.00000000000E+00 0. -1.
         -5    1    3    3    0  503 -0.13245742348E+02 -0.38932490548E+02  0.75081938132E+02  0.85735499907E+02  0.47000000000E+01 0.  1.
         11    1    4    4    0    0  0.80356464281E+02  0.57035237619E+02  0.25805077793E+03  0.27622524084E+03  0.00000000000E+00 0. -1.
        -12    1    4    4    0    0  0.39022813822E+02  0.27838385206E+02  0.31283010380E+02  0.57239692765E+02  0.00000000000E+00 0.  1.
</event>
<event>
12    1  0.8356052E-002  0.2099297E+03  0.7818608E-02  0.1142678E+00
         21   -1    0    0  503  502  0.00000000000E+00  0.00000000000E+00  0.14646533696E+04  0.14646533696E+04  0.00000000000E+00 0. -1.
         21   -1    0    0  501  503 -0.00000000000E+00 -0.00000000000E+00 -0.98780151617E+02  0.98780151617E+02  0.00000000000E+00 0.  1.
          6    2    1    2  501    0 -0.32699654479E+02 -0.11533700237E+03  0.30106099293E+02  0.21207749184E+03  0.17233279958E+03 0.  0.
         24    2    3    3    0    0 -0.30468630822E+01 -0.13974321377E+03  0.42445092210E+02  0.17146601639E+03  0.89786189093E+02 0.  0.
         -6    2    1    2    0  502  0.32699654479E+02  0.11533700237E+03  0.13357671187E+04  0.13513560293E+04  0.16588378835E+03 0.  0.
        -24    2    5    5    0    0 -0.34781322958E+02  0.13093983312E+02  0.25023807468E+03  0.25892630044E+03  0.55159244164E+02 0.  0.
          5    1    3    3  501    0 -0.29652791396E+02  0.24406211400E+02 -0.12338992916E+02  0.40611475456E+02  0.47000000000E+01 0. -1.
        -11    1    4    4    0    0  0.22416360906E+02 -0.14886024512E+02 -0.15966204050E+02  0.31289081702E+02  0.00000000000E+00 0.  1.
         12    1    4    4    0    0 -0.25463223988E+02 -0.12485718926E+03  0.58411296259E+02  0.14017693468E+03  0.00000000000E+00 0. -1.
         -5    1    5    5    0  502  0.67480977437E+02  0.10224301906E+03  0.10855290440E+04  0.10924297289E+04  0.47000000000E+01 0.  1.
         13    1    6    6    0    0 -0.40216081743E+02  0.84772142786E+01  0.24810063662E+03  0.25148185280E+03  0.00000000000E+00 0. -1.
        -14    1    6    6    0    0  0.54347587846E+01  0.46167690329E+01  0.21374380565E+01  0.74444476488E+01  0.00000000000E+00 0.  1.
</event>
<event>
12    1  0.8356052E-002  0.2075769E+03  0.7818608E-02  0.1144009E+00
         21   -1    0    0  501  502  0.00000000000E+00  0.00000000000E+00  0.17265040740E+03  0.17265040740E+03  0.00000000000E+00 0.  1.
         21   -1    0    0  502  503 -0.00000000000E+00 -0.00000000000E+00 -0.35494622142E+03  0.35494622142E+03  0.00000000000E+00 0.  1.
         -6    2    1    2    0  503 -0.10349896485E+03 -0.49626877369E+02 -0.23654087813E+03  0.31304893776E+03  0.16992112206E+03 0.  0.
        -24    2    3    3    0    0 -0.12566917386E+02  0.29282152137E+02 -0.93113510743E+02  0.12572896576E+03  0.78244968543E+02 0.  0.
          6    2    1    2  501    0  0.10349896485E+03  0.49626877369E+02  0.54245064107E+02  0.21454769106E+03  0.17295468215E+03 0.  0.
         24    2    5    5    0    0  0.78645269170E+02  0.32407315075E+02  0.10663988714E+03  0.15387210293E+03  0.71198638311E+02 0.  0.
          5    1    5    5  501    0  0.24853695682E+02  0.17219562294E+02 -0.52394823033E+02  0.60675588133E+02  0.47000000000E+01 0. -1.
        -13    1    6    6    0    0  0.75754662551E+02  0.34924729528E+02  0.50315485008E+02  0.97417419707E+02  0.00000000000E+00 0.  1.
         14    1    6    6    0    0  0.28906066188E+01 -0.25174144532E+01  0.56324402132E+02  0.56454683221E+02  0.00000000000E+00 0. -1.
         -5    1    3    3    0  503 -0.90932047466E+02 -0.78909029506E+02 -0.14342736738E+03  0.18731997200E+03  0.47000000000E+01 0.  1.
         13    1    4    4    0    0  0.32865937499E+02  0.66197853591E+01 -0.32978945597E+02  0.47027675453E+02  0.00000000000E+00 0. -1.
        -14    1    4    4    0    0 -0.45432854884E+02  0.22662366778E+02 -0.60134565147E+02  0.78701290309E+02  0.00000000000E+00 0.  1.
</event>
<event>
12    1  0.8356052E-002  0.2188436E+03  0.7818608E-02  0.1134831E+00
         21   -1    0    0  503  502  0.00000000000E+00  0.00000000000E+00  0.85279896242E+02  0.85279896242E+02  0.00000000000E+00 0.  1.
         21   -1    0    0  501  503 -0.00000000000E+00 -0.00000000000E+00 -0.26638730681E+04  0.26638730681E+04  0.00000000000E+00 0. -1.
          6    2    1    2  501    0 -0.10476854448E+03 -0.84437948161E+02 -0.25104688129E+04  0.25199512370E+04  0.17203011727E+03 0.  0.
         24    2    3    3    0    0 -0.86931794180E+02  0.12250050679E+02 -0.12669013515E+04  0.12724942879E+04  0.80594526590E+02 0.  0.
         -6    2    1    2    0  502  0.10476854448E+03  0.84437948161E+02 -0.68124358956E+02  0.22920172735E+03  0.17258704626E+03 0.  0.
        -24    2    5    5    0    0  0.68297771817E+02  0.15292754215E+02 -0.95761158865E+02  0.14615320049E+03  0.85393820035E+02 0.  0.
          5    1    3    3  501    0 -0.17836750300E+02 -0.96687998840E+02 -0.12435674614E+04  0.12474569491E+04  0.47000000000E+01 0. -1.
        -13    1    4    4    0    0 -0.73621705729E+02  0.40511664955E+02 -0.10496738735E+04  0.10530320942E+04  0.00000000000E+00 0.  1.
         14    1    4    4    0    0 -0.13310088451E+02 -0.28261614277E+02 -0.21722747796E+03  0.21946219373E+03  0.00000000000E+00 0. -1.
         -5    1    5    5    0  502  0.36470772663E+02  0.69145193946E+02  0.27636799910E+02  0.83048526860E+02  0.47000000000E+01 0.  1.
         11    1    6    6    0    0  0.29295200964E+02  0.49977010428E+02 -0.55618289403E+02  0.80307561830E+02  0.00000000000E+00 0. -1.
        -12    1    6    6    0    0  0.39002570854E+02 -0.34684256213E+02 -0.40142869462E+02  0.65845638663E+02  0.00000000000E+00 0.  1.
</event>
<event>
12    1  0.8356052E-002  0.1955301E+03  0.7818608E-02  0.1153587E+00
         21   -1    0    0  503  502  0.00000000000E+00  0.00000000000E+00  0.19062206872E+03  0.19062206872E+03  0.00000000000E+00 0. -1.
         21   -1    0    0  501  503 -0.00000000000E+00 -0.00000000000E+00 -0.20361265490E+03  0.20361265490E+03  0.00000000000E+00 0.  1.
          6    2    1    2  501    0  0.71613956792E+02  0.57727523094E+02 -0.30991188072E+02  0.19787782810E+03  0.17243594575E+03 0.  0.
         24    2    3    3    0    0 -0.16109299194E+02 -0.63709912454E+01  0.72023046255E+01  0.82618025629E+02  0.80459716113E+02 0.  0.
         -6    2    1    2    0  502 -0.71613956792E+02 -0.57727523094E+02  0.18000601888E+02  0.19635689552E+03  0.17254269912E+03 0.  0.
        -24    2    5    5    0    0 -0.50464640419E+02 -0.38132702833E+02  0.78549651544E+02  0.12912946080E+03  0.80644819616E+02 0.  0.
          5    1    3    3  501    0  0.87723255986E+02  0.64098514340E+02 -0.38193492697E+02  0.11525980247E+03  0.47000000000E+01 0. -1.
        -13    1    4    4    0    0  0.53297988362E+01  0.35133467243E+02  0.16376919948E+01  0.35573154362E+02  0.00000000000E+00 0.  1.
         14    1    4    4    0    0 -0.21439098030E+02 -0.41504458489E+02  0.55646126306E+01  0.47044871267E+02  0.00000000000E+00 0. -1.
         -5    1    5    5    0  502 -0.21149316373E+02 -0.19594820261E+02 -0.60549049657E+02  0.67227434715E+02  0.47000000000E+01 0.  1.
         13    1    6    6    0    0 -0.43190991900E+02  0.99202465899E+01  0.65011257211E+02  0.78678692401E+02  0.00000000000E+00 0. -1.
        -14    1    6    6    0    0 -0.72736485185E+01 -0.48052949423E+02  0.13538394334E+02  0.50450768400E+02  0.00000000000E+00 0.  1.
</event>
<event>
12    1  0.8356052E-002  0.1770129E+03  0.7818608E-02  0.1171113E+00
         21   -1    0    0  501  502  0.00000000000E+00  0.00000000000E+00  0.14201064056E+03  0.14201064056E+03  0.00000000000E+00 0.  1.
         21   -1    0    0  502  503 -0.00000000000E+00 -0.00000000000E+00 -0.24340735192E+03  0.24340735192E+03  0.00000000000E+00 0.  1.
         -6    2    1    2    0  503  0.39709952134E+02 -0.12003276922E+02 -0.11189107144E+03  0.20809425403E+03  0.17047770452E+03 0.  0.
        -24    2    3    3    0    0  0.40348897303E+02 -0.58658765263E+02 -0.11621234866E+02  0.97399751145E+02  0.65442907695E+02 0.  0.
          6    2    1    2  501    0 -0.39709952134E+02  0.12003276922E+02  0.10494360068E+02  0.17732373845E+03  0.17208317079E+03 0.  0.
         24    2    5    5    0    0 -0.18537063245E+01 -0.53091327859E+02  0.19451042922E+02  0.10134535280E+03  0.84085742797E+02 0.  0.
          5    1    5    5  501    0 -0.37856245810E+02  0.65094604781E+02 -0.89566828538E+01  0.75978385651E+02  0.47000000000E+01 0. -1.
        -11    1    6    6    0    0 -0.30586920344E+02 -0.20773427611E+02  0.39128972427E+02  0.53834667957E+02  0.00000000000E+00 0.  1.
         12    1    6    6    0    0  0.28733214019E+02 -0.32317900247E+02 -0.19677929505E+02  0.47510684839E+02  0.00000000000E+00 0. -1.
         -5    1    3    3    0  503 -0.63894516926E+00  0.46655488341E+02 -0.10026983657E+03  0.11069450289E+03  0.47000000000E+01 0.  1.
         13    1    4    4    0    0  0.45008225137E+02 -0.17602488516E+02 -0.24414482435E+02  0.54144758606E+02  0.00000000000E+00 0. -1.
        -14    1    4    4    0    0 -0.46593278335E+01 -0.41056276748E+02  0.12793247569E+02  0.43254992540E+02  0.00000000000E+00 0.  1.
</event>
<event>
12    1  0.8356052E-002  0.1842069E+03  0.7818608E-02  0.1164159E+00
         21   -1    0    0  503  502  0.00000000000E+00  0.00000000000E+00  0.25205247753E+03  0.25205247753E+03  0.00000000000E+00 0.  1.
         21   -1    0    0  501  503 -0.00000000000E+00 -0.00000000000E+00 -0.13541009263E+03  0.13541009263E+03  0.00000000000E+00 0. -1.
          6    2    1    2  501    0 -0.24103743905E+02 -0.60924998104E+02  0.35017849413E+02  0.18598117732E+03  0.17049898145E+03 0.  0.
         24    2    3    3    0    0 -0.66677699678E+02 -0.13978127517E+02  0.54268147896E+02  0.11957926199E+03  0.81932071488E+02 0.  0.
         -6    2    1    2    0  502  0.24103743905E+02  0.60924998104E+02  0.81624535484E+02  0.20148139284E+03  0.17216079985E+03 0.  0.
        -24    2    5    5    0    0  0.27480180563E+02  0.91491702596E+02  0.10511137169E+03  0.16250133098E+03  0.78945488436E+02 0.  0.
          5    1    3    3  501    0  0.42573955773E+02 -0.46946870586E+02 -0.19250298483E+02  0.66401915332E+02  0.47000000000E+01 0. -1.
        -11    1    4    4    0    0  0.69622275512E+01 -0.17459237051E+01  0.43582230225E+02  0.44169351970E+02  0.00000000000E+00 0.  1.
         12    1    4    4    0    0 -0.73639927230E+02 -0.12232203812E+02  0.10685917671E+02  0.75409910018E+02  0.00000000000E+00 0. -1.
         -5    1    5    5    0  502 -0.33764366582E+01 -0.30566704492E+02 -0.23486836203E+02  0.38980061863E+02  0.47000000000E+01 0.  1.
         11    1    6    6    0    0  0.23535326634E+02  0.63125992957E+02  0.16478709699E+02  0.69356690087E+02  0.00000000000E+00 0. -1.
        -12    1    6    6    0    0  0.39448539297E+01  0.28365709639E+02  0.88632661987E+02  0.93144640891E+02  0.00000000000E+00 0.  1.
</event>
<event>
12    1  0.8356052E-002  0.2351775E+03  0.7818608E-02  0.1123519E+00
         21   -1    0    0  503  502  0.00000000000E+00  0.00000000000E+00  0.17321680198E+03  0.17321680198E+03  0.00000000000E+00 0. -1.
         21   -1    0    0  501  503 -0.00000000000E+00 -0.00000000000E+00 -0.39631349776E+03  0.39631349776E+03  0.00000000000E+00 0. -1.
          6    2    1    2  501    0 -0.46910783368E+02  0.15251210109E+03 -0.24057972727E+03  0.33643282756E+03  0.17276538922E+03 0.  0.
         24    2    3    3    0    0 -0.15413243503E+02  0.15930652123E+03 -0.24493499874E+03  0.30357985887E+03  0.80940974318E+02 0.  0.
         -6    2    1    2    0  502  0.46910783368E+02 -0.15251210109E+03  0.17483031489E+02  0.23309747217E+03  0.16902133761E+03 0.  0.
        -24    2    5    5    0    0  0.31704880603E+02 -0.10746118886E+03 -0.52914827731E+02  0.14801661207E+03  0.80968091813E+02 0.  0.
          5    1    3    3  501    0 -0.31497539865E+02 -0.67944201341E+01  0.43552714674E+01  0.32852968695E+02  0.47000000000E+01 0. -1.
        -13    1    4    4    0    0 -0.17821115240E+01  0.45897714680E+02 -0.17650471506E+02  0.49206862110E+02  0.00000000000E+00 0.  1.
         14    1    4    4    0    0 -0.13631131979E+02  0.11340880655E+03 -0.22728452723E+03  0.25437299676E+03  0.00000000000E+00 0. -1.
         -5    1    5    5    0  502  0.15205902765E+02 -0.45050912239E+02  0.70397859220E+02  0.85080860099E+02  0.47000000000E+01 0.  1.
         13    1    6    6    0    0  0.82261041537E+01 -0.10760328935E+03 -0.23616586475E+02  0.11047117192E+03  0.00000000000E+00 0. -1.
        -14    1    6    6    0    0  0.23478776449E+02  0.14210048980E+00 -0.29298241255E+02  0.37545440159E+02  0.00000000000E+00 0.  1.
</event>
<event>
12    1  0.8356052E-002  0.1969935E+03  0.7818608E-02  0.1152935E+00
         21   -1    0    0  503  502  0.00000000000E+00  0.00000000000E+00  0.25768049214E+03  0.25768049214E+03  0.00000000000E+00 0.  1.
         21   -1    0    0  501  503 -0.00000000000E+00 -0.00000000000E+00 -0.18057971003E+03  0.18057971003E+03  0.00000000000E+00 0.  1.
          6    2    1    2  501    0  0.84731012780E+02 -0.43588633407E+02 -0.54227084103E+02  0.20150414536E+03  0.16906812372E+03 0.  0.
         24    2    3    3    0    0  0.51004412705E+02 -0.87438531462E+02 -0.65741120807E+01  0.12833862852E+03  0.78617032010E+02 0.  0.
         -6    2    1    2    0  502 -0.84731012780E+02  0.43588633407E+02  0.13132786621E+03  0.23675605681E+03  0.17241551120E+03 0.  0.
        -24    2    5    5    0    0 -0.94835708193E+02  0.47806873020E+02  0.31590720924E+02  0.13630962051E+03  0.79391626382E+02 0.  0.
          5    1    3    3  501    0  0.33726600075E+02  0.43849898055E+02 -0.47652972022E+02  0.73165516841E+02  0.47000000000E+01 0. -1.
        -11    1    4    4    0    0  0.50567524661E+02 -0.71495328657E+02 -0.36147935714E+02  0.94738217349E+02  0.00000000000E+00 0.  1.
         12    1    4    4    0    0  0.43688804464E+00 -0.15943202806E+02  0.29573823633E+02  0.33600411175E+02  0.00000000000E+00 0. -1.
         -5    1    5    5    0  502  0.10104695412E+02 -0.42182396131E+01  0.99737145283E+02  0.10044643629E+03  0.47000000000E+01 0.  1.
         13    1    6    6    0    0 -0.67865948838E+02  0.11427084492E+02 -0.15956551084E+02  0.70646845607E+02  0.00000000000E+00 0. -1.
        -14    1    6    6    0    0 -0.26969759355E+02  0.36379788528E+02  0.47547272008E+02  0.65662774906E+02  0.00000000000E+00 0.  1.
</event>
<event>
12    1  0.8356052E-002  0.1881880E+03  0.7818608E-02  0.1160407E+00
         21   -1    0    0  501  502  0.00000000000E+00  0.00000000000E+00  0.39780255353E+02  0.39780255353E+02  0.00000000000E+00 0. -1.
         21   -1    0    0  502  503 -0.00000000000E+00 -0.00000000000E+00 -0.88571750928E+03  0.88571750928E+03  0.00000000000E+00 0. -1.
         -6    2    1    2    0  503 -0.39992652652E+02  0.62026236846E+02 -0.44446232200E+03  0.48266082693E+03  0.17311282983E+03 0.  0.
        -24    2    3    3    0    0  0.75238708994E+01  0.33734031922E+02 -0.94140437773E+02  0.12796971986E+03  0.79493607495E+02 0.  0.
          6    2    1    2  501    0  0.39992652652E+02 -0.62026236846E+02 -0.40147493192E+03  0.44283693770E+03  0.17168507828E+03 0.  0.
         24    2    5    5    0    0 -0.20240026711E+02  0.17965211276E+02 -0.21724464802E+03  0.23310021001E+03  0.80050379852E+02 0.  0.
          5    1    5    5  501    0  0.60232679363E+02 -0.79991448123E+02 -0.18423028390E+03  0.20973672769E+03  0.47000000000E+01 0. -1.
        -11    1    6    6    0    0  0.13807309213E+02  0.23807123600E+02 -0.23172598320E+02  0.35977635201E+02  0.00000000000E+00 0.  1.
         12    1    6    6    0    0 -0.34047335923E+02 -0.58419123235E+01 -0.19407204970E+03  0.19712257481E+03  0.00000000000E+00 0. -1.
         -5    1    3    3    0  503 -0.47516523552E+02  0.28292204924E+02 -0.35032188423E+03  0.35469110708E+03  0.47000000000E+01 0.  1.
         13    1    4    4    0    0 -0.22292633407E+01  0.56346044207E+02 -0.42019670453E+02  0.70324242035E+02  0.00000000000E+00 0. -1.
        -14    1    4    4    0    0  0.97531342401E+01 -0.22612012285E+02 -0.52120767320E+02  0.57645477820E+02  0.00000000000E+00 0.  1.
</event>
<event>
12    1  0.8356052E-002  0.1930762E+03  0.7818608E-02  0.1155850E+00
         21   -1    0    0  503  502  0.00000000000E+00  0.00000000000E+00  0.24254916697E+02  0.24254916697E+02  0.00000000000E+00 0. -1.
         21   -1    0    0  501  503 -0.00000000000E+00 -0.00000000000E+00 -0.16071545832E+04  0.16071545832E+04  0.00000000000E+00 0. -1.
          6    2    1    2  501    0  0.48868204063E+02  0.71591111018E+02 -0.96652703916E+03  0.98550422637E+03  0.17184491329E+03 0.  0.
         24    2    3    3    0    0 -0.24393880054E+02  0.20538883491E+02 -0.25028847684E+03  0.26370547945E+03  0.76676926997E+02 0.  0.
         -6    2    1    2    0  502 -0.48868204063E+02 -0.71591111018E+02 -0.61637262739E+03  0.64590527357E+03  0.17252541287E+03 0.  0.
        -24    2    5    5    0    0 -0.64468470955E+02 -0.10348748799E+03 -0.56089182724E+03  0.57986773594E+03  0.82347467479E+02 0.  0.
          5    1    3    3  501    0  0.73262084116E+02  0.51052227527E+02 -0.71623856232E+03  0.72179874692E+03  0.47000000000E+01 0. -1.
        -11    1    4    4    0    0  0.84538916289E+01  0.87666848436E+01 -0.12594779070E+01  0.12243746625E+02  0.00000000000E+00 0.  1.
         12    1    4    4    0    0 -0.32847771683E+02  0.11772198647E+02 -0.24902899893E+03  0.25146173282E+03  0.00000000000E+00 0. -1.
         -5    1    5    5    0  502  0.15600266892E+02  0.31896376975E+02 -0.55480800149E+02  0.66037537632E+02  0.47000000000E+01 0.  1.
         11    1    6    6    0    0  0.18646998708E+02 -0.32494548295E+02 -0.12623176169E+03  0.13167408207E+03  0.00000000000E+00 0. -1.
        -12    1    6    6    0    0 -0.83115469663E+02 -0.70992939698E+02 -0.43466006555E+03  0.44819365387E+03  0.00000000000E+00 0.  1.
</event>
<event>
12    1  0.8356052E-002  0.1804794E+03  0.7818608E-02  0.1168619E+00
         21   -1    0    0  503  502  0.00000000000E+00  0.00000000000E+00  0.10090926519E+03  0.10090926519E+03  0.00000000000E+00 0.  1.
         21   -1    0    0  501  503 -0.00000000000E+00 -0.00000000000E+00 -0.41031786278E+03  0.41031786278E+03  0.00000000000E+00 0.  1.
          6    2    1    2  501    0 -0.12886724818E+02  0.40494521668E+02 -0.27710983524E+03  0.32788043685E+03  0.17002895672E+03 0.  0.
         24    2    3    3    0    0 -0.40958139041E+02  0.26754498392E+02 -0.28123269777E+03  0.29600755604E+03  0.78327968177E+02 0.  0.
         -6    2    1    2    0  502  0.12886724818E+02 -0.40494521668E+02 -0.32298762350E+02  0.18334669111E+03  0.17540503165E+03 0.  0.
        -24    2    5    5    0    0  0.79704225754E+00 -0.94457758982E+02 -0.28041686664E+02  0.12768338094E+03  0.81202254087E+02 0.  0.
          5    1    3    3  501    0  0.28071414222E+02  0.13740023276E+02  0.41228625291E+01  0.31872880816E+02  0.47000000000E+01 0. -1.
        -11    1    4    4    0    0 -0.39532352843E+02 -0.15781143260E+02 -0.83236060307E+02  0.93488465274E+02  0.00000000000E+00 0.  1.
         12    1    4    4    0    0 -0.14257861976E+01  0.42535641652E+02 -0.19799663746E+03  0.20251909076E+03  0.00000000000E+00 0. -1.
         -5    1    5    5    0  502  0.12089682561E+02  0.53963237314E+02 -0.42570756865E+01  0.55663310171E+02  0.47000000000E+01 0.  1.
         11    1    6    6    0    0  0.15248380491E+02 -0.87701347974E+02 -0.48790081912E+02  0.10151114046E+03  0.00000000000E+00 0. -1.
        -12    1    6    6    0    0 -0.14451338233E+02 -0.67564110076E+01  0.20748395248E+02  0.26172240481E+02  0.00000000000E+00 0.  1.
</event>
<event>
12    1  0.8356052E-002  0.1933541E+03  0.7818608E-02  0.1155751E+00
         21   -1    0    0  501  502  0.00000000000E+00  0.00000000000E+00  0.43666459257E+03  0.43666459257E+03  0.00000000000E+00 0. -1.
         21   -1    0    0  502  503 -0.00000000000E+00 -0.00000000000E+00 -0.10114986041E+03  0.10114986041E+03  0.00000000000E+00 0. -1.
         -6    2    1    2    0  503 -0.89989427233E+02 -0.87027130453E+01  0.27548254266E+03  0.33656566201E+03  0.17091512311E+03 0.  0.
        -24    2    3    3    0    0 -0.12851682637E+03 -0.20030403756E+02  0.21829364169E+03  0.26652754771E+03  0.80417833541E+02 0.  0.
          6    2    1    2  501    0  0.89989427233E+02  0.87027130453E+01  0.60032189494E+02  0.20124879096E+03  0.16947972699E+03 0.  0.
         24    2    5    5    0    0  0.11376962930E+03  0.14950201380E+02  0.31818187251E+01  0.13913129120E+03  0.78615234827E+02 0.  0.
          5    1    5    5  501    0 -0.23780202066E+02 -0.62474883351E+01  0.56850370769E+02  0.62117499768E+02  0.47000000000E+01 0. -1.
        -13    1    6    6    0    0  0.18190474613E+01 -0.15698979981E+02 -0.14829211173E+02  0.21671926775E+02  0.00000000000E+00 0.  1.
         14    1    6    6    0    0  0.11195058184E+03  0.30649181362E+02  0.18011029898E+02  0.11745936442E+03  0.00000000000E+00 0. -1.
         -5    1    3    3    0  503  0.38527399137E+02  0.11327690711E+02  0.57188900969E+02  0.70038114303E+02  0.47000000000E+01 0.  1.
         13    1    4    4    0    0 -0.55271535997E+02 -0.46093546433E+02  0.77979117555E+02  0.10611456304E+03  0.00000000000E+00 0. -1.
        -14    1    4    4    0    0 -0.73245290374E+02  0.26063142677E+02  0.14031452414E+03  0.16041298467E+03  0.00000000000E+00 0.  1.
</event>
<event>
12    1  0.8356052E-002  0.1878670E+03  0.7818608E-02  0.1161071E+00
         21   -1    0    0  501  502  0.00000000000E+00  0.00000000000E+00  0.44677444081E+03  0.44677444081E+03  0.00000000000E+00 0.  1.
         21   -1    0    0  502  503 -0.00000000000E+00 -0.00000000000E+00 -0.78021875088E+02  0.78021875088E+02  0.00000000000E+00 0.  1.
         -6    2    1    2    0  503  0.50754069032E+00 -0.68141484831E+02  0.19758846361E+03  0.27064842330E+03  0.17194722601E+03 0.  0.
        -24    2    3    3    0    0 -0.26546668700E+02 -0.93584927094E+01  0.18584347321E+03  0.20471356751E+03  0.81102041809E+02 0.  0.
          6    2    1    2  501    0 -0.50754069032E+00  0.68141484831E+02  0.17116410211E+03  0.25414789259E+03  0.17507279030E+03 0.  0.
         24    2    5    5    0    0  0.16346683942E+02  0.98350395900E+02  0.68052414416E+02  0.14528672718E+03  0.80852257457E+02 0.  0.
          5    1    5    5  501    0 -0.16854224632E+02 -0.30208911069E+02  0.10311168769E+03  0.10886116541E+03  0.47000000000E+01 0. -1.
        -13    1    6    6    0    0 -0.41664595290E+01  0.97841453626E+02  0.75291454064E+02  0.12352778023E+03  0.00000000000E+00 0.  1.
         14    1    6    6    0    0  0.20513143471E+02  0.50894227450E+00 -0.72390396480E+01  0.21758946949E+02  0.00000000000E+00 0. -1.
         -5    1    3    3    0  503  0.27054209390E+02 -0.58782992122E+02  0.11744990399E+02  0.65934855790E+02  0.47000000000E+01 0.  1.
         11    1    4    4    0    0 -0.35791829715E+01  0.28173823158E+02  0.24596995622E+02  0.37571093353E+02  0.00000000000E+00 0. -1.
        -12    1    4    4    0    0 -0.22967485728E+02 -0.37532315867E+02  0.16124647759E+03  0.16714247416E+03  0.00000000000E+00 0.  1.
</event>
<event>
12    1  0.8356052E-002  0.2012473E+03  0.7818608E-02  0.1148693E+00
         21   -1    0    0  501  502  0.00000000000E+00  0.00000000000E+00  0.40122230423E+03  0.40122230423E+03  0.00000000000E+00 0.  1.
         21   -1    0    0  502  503 -0.00000000000E+00 -0.00000000000E+00 -0.10324794518E+03  0.10324794518E+03  0.00000000000E+00 0.  1.
         -6    2    1    2    0  503  0.92315021628E+02 -0.47908873197E+02  0.18671082308E+03  0.27451361600E+03  0.17227730716E+03 0.  0.
        -24    2    3    3    0    0 -0.93663954422E+01  0.15225573950E+02  0.66679885722E+02  0.10494184677E+03  0.79038196960E+02 0.  0.
          6    2    1    2  501    0 -0.92315021628E+02  0.47908873197E+02  0.11126353597E+03  0.22995663342E+03  0.17228800152E+03 0.  0.
         24    2    5    5    0    0 -0.53526989537E+02  0.69915648307E+02  0.10382768565E+02  0.11955813336E+03  0.80206040180E+02 0.  0.
          5    1    5    5  501    0 -0.38788032091E+02 -0.22006775110E+02  0.10088076740E+03  0.11039850006E+03  0.47000000000E+01 0. -1.
        -11    1    6    6    0    0 -0.57829352388E+02  0.20182382039E+02  0.27012453025E+02  0.66942028359E+02  0.00000000000E+00 0.  1.
         12    1    6    6    0    0  0.43023628508E+01  0.49733266269E+02 -0.16629684460E+02  0.52616104997E+02  0.00000000000E+00 0. -1.
         -5    1    3    3    0  503  0.10168141707E+03 -0.63134447146E+02  0.12003093736E+03  0.16957176922E+03  0.47000000000E+01 0.  1.
         13    1    4    4    0    0 -0.12706760472E+02 -0.31126430412E+02  0.20237035331E+02  0.39240973877E+02  0.00000000000E+00 0. -1.
        -14    1    4    4    0    0  0.33403650301E+01  0.46352004361E+02  0.46442850391E+02  0.65700872896E+02  0.00000000000E+00 0.  1.
</event>
<event>
12    1  0.8356052E-002  0.2210910E+03  0.7818608E-02  0.1133234E+00
         21   -1    0    0  503  502  0.00000000000E+00  0.00000000000E+00  0.14781934123E+03  0.14781934123E+03  0.00000000000E+00 0. -1.
         21   -1    0    0  501  503 -0.00000000000E+00 -0.00000000000E+00 -0.88391686445E+03  0.88391686445E+03  0.00000000000E+00 0.  1.
          6    2    1    2  501    0 -0.94596574899E+02 -0.10435463258E+03 -0.77691681824E+03  0.80776293652E+03  0.17041953478E+03 0.  0.
         24    2    3    3    0    0 -0.37336745230E+02 -0.11214068478E+03 -0.35480029935E+03  0.38168341786E+03  0.76350594802E+02 0.  0.
         -6    2    1    2    0  502  0.94596574899E+02  0.10435463258E+03  0.40819295011E+02  0.22397326915E+03  0.16929090090E+03 0.  0.
        -24    2    5    5    0    0 -0.13904641710E+02  0.50287459088E+02  0.37115664804E+02  0.10259954823E+03  0.80168117853E+02 0.  0.
          5    1    3    3  501    0 -0.57259829669E+02  0.77860522004E+01 -0.42211651889E+03  0.42607951866E+03  0.47000000000E+01 0. -1.
        -13    1    4    4    0    0 -0.28663559967E+02 -0.17587963556E+02 -0.17652165949E+03  0.17969650081E+03  0.00000000000E+00 0.  1.
         14    1    4    4    0    0 -0.86731852631E+01 -0.94552721221E+02 -0.17827863986E+03  0.20198691706E+03  0.00000000000E+00 0. -1.
         -5    1    5    5    0  502  0.10850121661E+03  0.54067173488E+02  0.37036302071E+01  0.12137372093E+03  0.47000000000E+01 0.  1.
         13    1    6    6    0    0  0.12947451443E+02 -0.99865544786E+01  0.32587296852E+02  0.36459562331E+02  0.00000000000E+00 0. -1.
        -14    1    6    6    0    0 -0.26852093153E+02  0.60274013567E+02  0.45283679518E+01  0.66139985897E+02  0.00000000000E+00 0.  1.
</event>
<event>
12    1  0.8356052E-002  0.1776437E+03  0.7818608E-02  0.1171810E+00
         21   -1    0    0  501  502  0.00000000000E+00  0.00000000000E+00  0.78299175715E+02  0.78299175715E+02  0.00000000000E+00 0.  1.
         21   -1    0    0  502  503 -0.00000000000E+00 -0.00000000000E+00 -0.49922476081E+03  0.49922476081E+03  0.00000000000E+00 0.  1.
         -6    2    1    2    0  503  0.17935216913E+02  0.42095380208E+02 -0.34369339476E+03  0.38381772669E+03  0.16461228594E+03 0.  0.
        -24    2    3    3    0    0  0.58460928508E+02  0.77741386417E+01 -0.13352864270E+03  0.16699615504E+03  0.81115349872E+02 0.  0.
          6    2    1    2  501    0 -0.17935216913E+02 -0.42095380208E+02 -0.77232190335E+02  0.19370620983E+03  0.17164961830E+03 0.  0.
         24    2    5    5    0    0 -0.14044859609E+02 -0.41744989227E+02  0.22129927709E+02  0.94156332104E+02  0.80223306887E+02 0.  0.
          5    1    5    5  501    0 -0.38903573039E+01 -0.35039098084E+00 -0.99362118044E+02  0.99549877729E+02  0.47000000000E+01 0. -1.
        -13    1    6    6    0    0  0.39800585932E+01 -0.53670297257E+02 -0.10680468140E+02  0.54867240443E+02  0.00000000000E+00 0.  1.
         14    1    6    6    0    0 -0.18024918202E+02  0.11925308030E+02  0.32810395849E+02  0.39289091661E+02  0.00000000000E+00 0. -1.
         -5    1    3    3    0  503 -0.40525711595E+02  0.34321241566E+02 -0.21016475206E+03  0.21682157165E+03  0.47000000000E+01 0.  1.
         13    1    4    4    0    0  0.48104173322E+02  0.21185671167E+02 -0.26931412133E+02  0.59060520767E+02  0.00000000000E+00 0. -1.
        -14    1    4    4    0    0  0.10356755186E+02 -0.13411532525E+02 -0.10659723057E+03  0.10793563428E+03  0.00000000000E+00 0.  1.
</event>
<event>
12    1  0.8356052E-002  0.2221721E+03  0.7818608E-02  0.1132333E+00
         21   -1    0    0  503  502  0.00000000000E+00  0.00000000000E+00  0.45373694297E+02  0.45373694297E+02  0.00000000000E+00 0.  1.
         21   -1    0    0  501  503 -0.00000000000E+00 -0.00000000000E+00 -0.12358643259E+04  0.12358643259E+04  0.00000000000E+00 0. -1.
          6    2    1    2  501    0 -0.62465770668E+01  0.14065291463E+03 -0.81772797150E+03  0.84728821036E+03  0.17145265797E+03 0.  0.
         24    2    3    3    0    0  0.62484759319E+02  0.72611538068E+02 -0.44914166277E+03  0.46619559366E+03  0.80207965306E+02 0.  0.
         -6    2    1    2    0  502  0.62465770668E+01 -0.14065291463E+03 -0.37276266012E+03  0.43394980985E+03  0.17186673492E+03 0.  0.
        -24    2    5    5    0    0  0.35612943638E+02 -0.16274014003E+03 -0.32374523582E+03  0.37250856233E+03  0.78733832380E+02 0.  0.
          5    1    3    3  501    0 -0.68731336386E+02  0.68041376560E+02 -0.36858630873E+03  0.38109261671E+03  0.47000000000E+01 0. -1.
        -11    1    4    4    0    0  0.30925625000E+02  0.70132908951E+02 -0.40309068023E+03  0.41031343591E+03  0.00000000000E+00 0.  1.
         12    1    4    4    0    0  0.31559134319E+02  0.24786291163E+01 -0.46050982541E+02  0.55882157745E+02  0.00000000000E+00 0. -1.
         -5    1    5    5    0  502 -0.29366366572E+02  0.22087225408E+02 -0.49017424294E+02  0.61441247515E+02  0.47000000000E+01 0.  1.
         11    1    6    6    0    0 -0.20144266979E+02 -0.23910484832E+02 -0.87064590934E+02  0.92508084898E+02  0.00000000000E+00 0. -1.
        -12    1    6    6    0    0  0.55757210617E+02 -0.13882965520E+03 -0.23668064489E+03  0.28000047744E+03  0.00000000000E+00 0.  1.
</event>
<event>
12    1  0.8356052E-002  0.1764684E+03  0.7818608E-02  0.1171521E+00
         21   -1    0    0  501  502  0.00000000000E+00  0.00000000000E+00  0.21589607211E+03  0.21589607211E+03  0.00000000000E+00 0. -1.
         21   -1    0    0  502  503 -0.00000000000E+00 -0.00000000000E+00 -0.28954303262E+03  0.28954303262E+03  0.00000000000E+00 0. -1.
         -6    2    1    2    0  503 -0.30108915177E+02 -0.15384684832E+02 -0.21631141996E+03  0.27851563871E+03  0.17215427762E+03 0.  0.
        -24    2    3    3    0    0  0.59144616954E+01  0.19810445531E+02 -0.21207389795E+03  0.22775711750E+03  0.80439615680E+02 0.  0.
          6    2    1    2  501    0  0.30108915177E+02  0.15384684832E+02  0.14266445945E+03  0.22692346602E+03  0.17319894959E+03 0.  0.
         24    2    5    5    0    0  0.64760462050E+02 -0.41383510691E+02  0.89219147739E+02  0.14147260840E+03  0.78408738041E+02 0.  0.
          5    1    5    5  501    0 -0.34651546874E+02  0.56768195523E+02  0.53445311713E+02  0.85450857619E+02  0.47000000000E+01 0. -1.
        -13    1    6    6    0    0  0.25434656339E+02  0.22506253633E+02  0.35990596145E+02  0.49485110958E+02  0.00000000000E+00 0.  1.
         14    1    6    6    0    0  0.39325805712E+02 -0.63889764324E+02  0.53228551594E+02  0.91987497439E+02  0.00000000000E+00 0. -1.
         -5    1    3    3    0  503 -0.36023376872E+02 -0.35195130362E+02 -0.42375220060E+01  0.50758521208E+02  0.47000000000E+01 0.  1.
         13    1    4    4    0    0  0.13369975704E+02  0.45491285311E+01 -0.21019447785E+03  0.21066838713E+03  0.00000000000E+00 0. -1.
        -14    1    4    4    0    0 -0.74555140083E+01  0.15261317000E+02 -0.18794201079E+01  0.17088730369E+02  0.00000000000E+00 0.  1.
</event>
<event>
12    1  0.8356052E-002  0.2740557E+03  0.7818608E-02  0.1099087E+00
         21   -1    0    0  501  502  0.00000000000E+00  0.00000000000E+00  0.34095150564E+03  0.34095150564E+03  0.00000000000E+00 0.  1.
         21   -1    0    0  502  503 -0.00000000000E+00 -0.00000000000E+00 -0.23305499894E+03  0.23305499894E+03  0.00000000000E+00 0. -1.
         -6    2    1    2    0  503 -0.21197460395E+03 -0.56151569861E+01 -0.14749943303E+02  0.27445233665E+03  0.17361382881E+03 0.  0.
        -24    2    3    3    0    0 -0.43587656187E+02 -0.21682491131E+02 -0.44129686467E+02  0.10270373341E+03  0.78934234877E+02 0.  0.
          6    2    1    2  501    0  0.21197460395E+03  0.56151569861E+01  0.12264645000E+03  0.29955416794E+03  0.17241167339E+03 0.  0.
         24    2    5    5    0    0  0.12531019911E+03 -0.20223384303E+02  0.14116822756E+03  0.20712313675E+03  0.82824477239E+02 0.  0.
          5    1    5    5  501    0  0.86664404843E+02  0.25838541289E+02 -0.18521777560E+02  0.92431031189E+02  0.47000000000E+01 0. -1.
        -11    1    6    6    0    0  0.39539595741E+02 -0.46218134652E+02  0.69591405779E+02  0.92425425941E+02  0.00000000000E+00 0.  1.
         12    1    6    6    0    0  0.85770603369E+02  0.25994750349E+02  0.71576821781E+02  0.11469771081E+03  0.00000000000E+00 0. -1.
         -5    1    3    3    0  503 -0.16838694777E+03  0.16067334144E+02  0.29379743164E+02  0.17174860323E+03  0.47000000000E+01 0.  1.
         11    1    4    4    0    0 -0.49064295476E+02 -0.46189143113E+02 -0.28787091403E+02  0.73276453677E+02  0.00000000000E+00 0. -1.
        -12    1    4    4    0    0  0.54766392894E+01  0.24506651982E+02 -0.15342595064E+02  0.29427279735E+02  0.00000000000E+00 0.  1.
</event>
<event>
12    1  0.8356052E-002  0.1997781E+03  0.7818608E-02  0.1149940E+00
         21   -1    0    0  503  502  0.00000000000E+00  0.00000000000E+00  0.15151787314E+03  0.15151787314E+03  0.00000000000E+00 0.  1.
         21   -1    0    0  501  503 -0.00000000000E+00 -0.00000000000E+00 -0.33399182068E+03  0.33399182068E+03  0.00000000000E+00 0.  1.
          6    2    1    2  501    0  0.90406021385E+02 -0.43949596054E+02 -0.20291168496E+03  0.28475328216E+03  0.17264548680E+03 0.  0.
         24    2    3    3    0    0  0.68423195844E+02 -0.92213170311E+02 -0.12302834616E+03  0.18875299551E+03  0.85479335792E+02 0.  0.
         -6    2    1    2    0  502 -0.90406021385E+02  0.43949596054E+02  0.20437737423E+02  0.20075641165E+03  0.17257062326E+03 0.  0.
        -24    2    5    5    0    0  0.17450538886E+02  0.63537181695E+01  0.27491893634E+02  0.86221095060E+02  0.79582548186E+02 0.  0.
          5    1    3    3  501    0  0.21982825540E+02  0.48263574257E+02 -0.79883338803E+02  0.96000286651E+02  0.47000000000E+01 0. -1.
        -11    1    4    4    0    0  0.33589678136E+02 -0.13052516020E+02 -0.88632735699E+02  0.95678610406E+02  0.00000000000E+00 0.  1.
         12    1    4    4    0    0  0.34833517709E+02 -0.79160654291E+02 -0.34395610458E+02  0.93074385104E+02  0.00000000000E+00 0. -1.
         -5    1    5    5    0  502 -0.10785656027E+03  0.37595877884E+02 -0.70541562116E+01  0.11453531659E+03  0.47000000000E+01 0.  1.
         13    1    6    6    0    0  0.35834265365E+02 -0.25947744350E+02  0.18680705904E+02  0.48024460269E+02  0.00000000000E+00 0. -1.
        -14    1    6    6    0    0 -0.18383726478E+02  0.32301462519E+02  0.88111877299E+01  0.38196634791E+02  0.00000000000E+00 0.  1.
</event>
<event>
12    1  0.8356052E-002  0.1830724E+03  0.7818608E-02  0.1165000E+00
         21   -1    0    0  501  502  0.00000000000E+00  0.00000000000E+00  0.11036095685E+03  0.11036095685E+03  0.00000000000E+00 0.  1.
         21   -1    0    0  502  503 -0.00000000000E+00 -0.00000000000E+00 -0.30317278873E+03  0.30317278873E+03  0.00000000000E+00 0.  1.
         -6    2    1    2    0  503 -0.53208889348E+02  0.32335189658E+02 -0.10450639037E+03  0.21080108974E+03  0.17215912236E+03 0.  0.
        -24    2    3    3    0    0 -0.25337749625E+02 -0.41055104036E+02 -0.20147293457E+02  0.95469034912E+02  0.79880536240E+02 0.  0.
          6    2    1    2  501    0  0.53208889348E+02 -0.32335189658E+02 -0.88305441515E+02  0.20273265584E+03  0.17153987393E+03 0.  0.
         24    2    5    5    0    0  0.85950316882E+02  0.20120811604E+02 -0.47997414353E+02  0.12877009640E+03  0.80533731506E+02 0.  0.
          5    1    5    5  501    0 -0.32741427534E+02 -0.52456001262E+02 -0.40308027163E+02  0.73962559441E+02  0.47000000000E+01 0. -1.
        -13    1    6    6    0    0  0.73159716997E+02  0.35483639947E+02 -0.51319781891E+01  0.81472511285E+02  0.00000000000E+00 0.  1.
         14    1    6    6    0    0  0.12790599885E+02 -0.15362828343E+02 -0.42865436164E+02  0.47297585114E+02  0.00000000000E+00 0. -1.
         -5    1    3    3    0  503 -0.27871139724E+02  0.73390293694E+02 -0.84359096917E+02  0.11533205483E+03  0.47000000000E+01 0.  1.
         11    1    4    4    0    0 -0.11672684334E+02  0.12099023015E+02  0.20981230154E+02  0.26885868710E+02  0.00000000000E+00 0. -1.
        -12    1    4    4    0    0 -0.13665065290E+02 -0.53154127051E+02 -0.41128523611E+02  0.68583166203E+02  0.00000000000E+00 0.  1.
</event>
<event>
12    1  0.8356052E-002  0.1782463E+03  0.7818608E-02  0.1170366E+00
         21   -1    0    0  503  502  0.00000000000E+00  0.00000000000E+00  0.32945577993E+03  0.32945577993E+03  0.00000000000E+00 0.  1.
         21   -1    0    0  501  503 -0.00000000000E+00 -0.00000000000E+00 -0.11011065282E+03  0.11011065282E+03  0.00000000000E+00 0.  1.
          6    2    1    2  501    0 -0.40253467048E+02 -0.71678201316E+01  0.26207563868E+02  0.17674736459E+03  0.16994432980E+03 0.  0.
         24    2    3    3    0    0 -0.12502011779E+02  0.59898695326E+02 -0.16065579792E+01  0.98877112635E+02  0.77652742219E+02 0.  0.
         -6    2    1    2    0  502  0.40253467048E+02  0.71678201316E+01  0.19313756324E+03  0.26281906816E+03  0.17349358778E+03 0.  0.
        -24    2    5    5    0    0  0.13826210399E+02  0.70668052571E+02  0.95874642041E+02  0.14360142998E+03  0.79020794458E+02 0.  0.
          5    1    3    3  501    0 -0.27751455269E+02 -0.67066515458E+02  0.27814121847E+02  0.77870251954E+02  0.47000000000E+01 0. -1.
        -13    1    4    4    0    0  0.13250737287E+02  0.49752421039E+02 -0.29699843845E+02  0.59438759765E+02  0.00000000000E+00 0.  1.
         14    1    4    4    0    0 -0.25752749066E+02  0.10146274287E+02  0.28093285866E+02  0.39438352870E+02  0.00000000000E+00 0. -1.
         -5    1    5    5    0  502  0.26427256649E+02 -0.63500232440E+02  0.97262921195E+02  0.11921763818E+03  0.47000000000E+01 0.  1.
         11    1    6    6    0    0  0.44569058877E+02  0.53940244424E+02  0.76195650514E+02  0.10344915725E+03  0.00000000000E+00 0. -1.
        -12    1    6    6    0    0 -0.30742848478E+02  0.16727808147E+02  0.19678991527E+02  0.40152272731E+02  0.00000000000E+00 0.  1.
</event>
<event>
12    1  0.8356052E-002  0.2481755E+03  0.7818608E-02  0.1115699E+00
         21   -1    0    0  501  502  0.00000000000E+00  0.00000000000E+00  0.11733271704E+04  0.11733271704E+04  0.00000000000E+00 0.  1.
         21   -1    0    0  502  503 -0.00000000000E+00 -0.00000000000E+00 -0.74362608347E+02  0.74362608347E+02  0.00000000000E+00 0. -1.
         -6    2    1    2    0  503  0.13862105931E+03  0.93850618962E+02  0.19317983221E+03  0.30852149241E+03  0.17275221255E+03 0.  0.
        -24    2    3    3    0    0  0.52263829128E+02  0.31658025802E+02  0.17211772016E+03  0.19993423527E+03  0.81335419144E+02 0.  0.
          6    2    1    2  501    0 -0.13862105931E+03 -0.93850618962E+02  0.90578472981E+03  0.93916828630E+03  0.18321396366E+03 0.  0.
         24    2    5    5    0    0 -0.12915152107E+03 -0.74024407304E+02  0.90057992689E+03  0.91610466133E+03  0.77741993370E+02 0.  0.
          5    1    5    5  501    0 -0.94695382415E+01 -0.19826211658E+02  0.52048029200E+01  0.23063624968E+02  0.47000000000E+01 0. -1.
        -11    1    6    6    0    0 -0.60677978007E+02 -0.36086033750E+02  0.64375432376E+03  0.64761381101E+03  0.00000000000E+00 0.  1.
         12    1    6    6    0    0 -0.68473543062E+02 -0.37938373554E+02  0.25682560312E+03  0.26849085032E+03  0.00000000000E+00 0. -1.
         -5    1    3    3    0  503  0.86357230184E+02  0.62192593161E+02  0.21062112051E+02  0.10858725714E+03  0.47000000000E+01 0.  1.
         11    1    4    4    0    0 -0.15610311593E+02 -0.61569371264E+01  0.85114250574E+01  0.18815792816E+02  0.00000000000E+00 0. -1.
        -12    1    4    4    0    0  0.67874140720E+02  0.37814962928E+02  0.16360629510E+03  0.18111844245E+03  0.00000000000E+00 0.  1.
</event>
<event>
12    1  0.8356052E-002  0.2808530E+03  0.7818608E-02  0.1095525E+00
         21   -1    0    0  503  502  0.00000000000E+00  0.00000000000E+00  0.48972742140E+03  0.48972742140E+03  0.00000000000E+00 0. -1.
         21   -1    0    0  501  503 -0.00000000000E+00 -0.00000000000E+00 -0.23033812135E+03  0.23033812135E+03  0.00000000000E+00 0.  1.
          6    2    1    2  501    0 -0.59131440697E+02 -0.21312576850E+03 -0.69179101515E+02  0.28924761472E+03  0.17308759072E+03 0.  0.
         24    2    3    3    0    0 -0.98873498920E+02 -0.99731216625E+02 -0.52419186651E+02  0.16783616414E+03  0.75491208139E+02 0.  0.
         -6    2    1    2    0  502  0.59131440697E+02  0.21312576850E+03  0.32856840156E+03  0.43081792803E+03  0.16949269048E+03 0.  0.
        -24    2    5    5    0    0 -0.21023144988E+00  0.86511265760E+02  0.23376400687E+03  0.26181310677E+03  0.80101489772E+02 0.  0.
          5    1    3    3  501    0  0.39742058224E+02 -0.11339455187E+03 -0.16759914863E+02  0.12141145058E+03  0.47000000000E+01 0. -1.
        -11    1    4    4    0    0 -0.54811150805E+02 -0.43184539969E+02  0.12773343751E+02  0.70938882536E+02  0.00000000000E+00 0.  1.
         12    1    4    4    0    0 -0.44062348116E+02 -0.56546676656E+02 -0.65192530402E+02  0.96897281606E+02  0.00000000000E+00 0. -1.
         -5    1    5    5    0  502  0.59341672147E+02  0.12661450274E+03  0.94804394690E+02  0.16900482126E+03  0.47000000000E+01 0.  1.
         11    1    6    6    0    0 -0.16990680923E+02  0.85515666961E+02  0.12894555718E+03  0.15565528983E+03  0.00000000000E+00 0. -1.
        -12    1    6    6    0    0  0.16780449473E+02  0.99559879971E+00  0.10481844969E+03  0.10615781694E+03  0.00000000000E+00 0.  1.
</event>
<event>
12    1  0.8356052E-002  0.2313158E+03  0.7818608E-02  0.1127868E+00
         21   -1    0    0  503  502  0.00000000000E+00  0.00000000000E+00  0.10003008056E+04  0.10003008056E+04  0.00000000000E+00 0.  1.
         21   -1    0    0  501  503 -0.00000000000E+00 -0.00000000000E+00 -0.40592421728E+03  0.40592421728E+03  0.00000000000E+00 0.  1.
          6    2    1    2  501    0  0.72778481174E+02 -0.13552634568E+03 -0.35948044160E+03  0.42747300443E+03  0.17275093031E+03 0.  0.
         24    2    3    3    0    0  0.37902178939E+02 -0.11094000801E+03 -0.35661494935E+03  0.38444806395E+03  0.82956803368E+02 0.  0.
         -6    2    1    2    0  502 -0.72778481174E+02  0.13552634568E+03  0.95385702990E+03  0.97875201843E+03  0.15635914551E+03 0.  0.
        -24    2    5    5    0    0 -0.44317472359E+02  0.12722415749E+02  0.46156706557E+03  0.47055684607E+03  0.79080282885E+02 0.  0.
          5    1    3    3  501    0  0.34876302235E+02 -0.24586337671E+02 -0.28654922509E+01  0.43024940483E+02  0.47000000000E+01 0. -1.
        -11    1    4    4    0    0  0.48836234113E+01 -0.91822333354E+02 -0.16334469905E+03  0.18744780977E+03  0.00000000000E+00 0.  1.
         12    1    4    4    0    0  0.33018555527E+02 -0.19117674656E+02 -0.19327025030E+03  0.19700025417E+03  0.00000000000E+00 0. -1.
         -5    1    5    5    0  502 -0.28461008815E+02  0.12280392993E+03  0.49228996433E+03  0.50819517236E+03  0.47000000000E+01 0.  1.
         13    1    6    6    0    0 -0.64890340164E+02  0.20586826895E+02  0.30917045369E+03  0.31657691502E+03  0.00000000000E+00 0. -1.
        -14    1    6    6    0    0  0.20572867805E+02 -0.78644111465E+01  0.15239661188E+03  0.15397993104E+03  0.00000000000E+00 0.  1.
</event>
<event>
12    1  0.8356052E-002  0.1748318E+03  0.7818608E-02  0.1172938E+00
         21   -1    0    0  503  502  0.00000000000E+00  0.00000000000E+00  0.57656299794E+03  0.57656299794E+03  0.00000000000E+00 0.  1.
         21   -1    0    0  501  503 -0.00000000000E+00 -0.00000000000E+00 -0.88092125715E+02  0.88092125715E+02  0.00000000000E+00 0.  1.
          6    2    1    2  501    0  0.23856899210E+02  0.22602335014E+02  0.34456745000E+02  0.17819488954E+03  0.17171527071E+03 0.  0.
         24    2    3    3    0    0 -0.52571417691E+01  0.60779202626E+02 -0.22831546361E+02  0.10330070465E+03  0.80174853049E+02 0.  0.
         -6    2    1    2    0  502 -0.23856899210E+02 -0.22602335014E+02  0.45401412723E+03  0.48646023412E+03  0.17156548157E+03 0.  0.
        -24    2    5    5    0    0  0.22209885858E+02 -0.18379896638E+02  0.10371255081E+03  0.13308612342E+03  0.78259334397E+02 0.  0.
          5    1    3    3  501    0  0.29114040979E+02 -0.38176867612E+02  0.57288291361E+02  0.74894184887E+02  0.47000000000E+01 0. -1.
        -13    1    4    4    0    0  0.31457962272E+01 -0.19117505729E+02 -0.10455244018E+02  0.22015612340E+02  0.00000000000E+00 0.  1.
         14    1    4    4    0    0 -0.84029379963E+01  0.79896708355E+02 -0.12376302342E+02  0.81285092315E+02  0.00000000000E+00 0. -1.
         -5    1    5    5    0  502 -0.46066785067E+02 -0.42224383756E+01  0.35030157642E+03  0.35337411070E+03  0.47000000000E+01 0.  1.
         13    1    6    6    0    0 -0.47222633164E+01  0.14285541954E+02  0.85811772120E+02  0.87120816767E+02  0.00000000000E+00 0. -1.
        -14    1    6    6    0    0  0.26932149174E+02 -0.32665438593E+02  0.17900778689E+02  0.45965306648E+02  0.00000000000E+00 0.  1.
</event>
<event>
12    1  0.8356052E-002  0.1850056E+03  0.7818608E-02  0.1163372E+00
         21   -1    0    0  501  502  0.00000000000E+00  0.00000000000E+00  0.12288019052E+03  0.12288019052E+03  0.00000000000E+00 0. -1.
         21   -1    0    0  502  503 -0.00000000000E+00 -0.00000000000E+00 -0.33612262092E+03  0.33612262092E+03  0.00000000000E+00 0.  1.
         -6    2    1    2    0  503 -0.60561859266E+02 -0.25058743799E+02 -0.95847769863E+01  0.18386013313E+03  0.17151385124E+03 0.  0.
        -24    2    3    3    0    0 -0.27987789591E+02  0.38952862677E+02  0.29489491474E+02  0.10196114514E+03  0.85004724180E+02 0.  0.
          6    2    1    2  501    0  0.60561859266E+02  0.25058743799E+02 -0.20365765342E+03  0.27514267832E+03  0.17300686170E+03 0.  0.
         24    2    5    5    0    0  0.37702078681E+02  0.79143513158E+02 -0.17371243938E+03  0.20906289556E+03  0.76460056846E+02 0.  0.
          5    1    5    5  501    0  0.22859780585E+02 -0.54084769359E+02 -0.29945214034E+02  0.66079782752E+02  0.47000000000E+01 0. -1.
        -11    1    6    6    0    0  0.55190087205E+02  0.35484593531E+02 -0.74543624262E+02  0.99306867949E+02  0.00000000000E+00 0.  1.
         12    1    6    6    0    0 -0.17488008523E+02  0.43658919628E+02 -0.99168815121E+02  0.10975602761E+03  0.00000000000E+00 0. -1.
         -5    1    3    3    0  503 -0.32574069675E+02 -0.64011606477E+02 -0.39074268460E+02  0.81898987995E+02  0.47000000000E+01 0.  1.
         11    1    4    4    0    0 -0.25689140639E+02 -0.79362030567E+01  0.45084613417E+02  0.52493215111E+02  0.00000000000E+00 0. -1.
        -12    1    4    4    0    0 -0.22986489520E+01  0.46889065734E+02 -0.15595121944E+02  0.49467930024E+02  0.00000000000E+00 0.  1.
</event>
<event>
12    1  0.8356052E-002  0.1859854E+03  0.7818608E-02  0.1162420E+00
         21   -1    0    0  501  502  0.00000000000E+00  0.00000000000E+00  0.14123135964E+02  0.14123135964E+02  0.00000000000E+00 0. -1.
         21   -1    0    0  502  503 -0.00000000000E+00 -0.00000000000E+00 -0.27046918353E+04  0.27046918353E+04  0.00000000000E+00 0.  1.
         -6    2    1    2    0  503 -0.69358408557E+02  0.11914112124E+01 -0.17801887404E+04  0.17898777930E+04  0.17256463803E+03 0.  0.
        -24    2    3    3    0    0 -0.47058939527E+01 -0.26004077874E+02 -0.44890755287E+03  0.45674192880E+03  0.79980253789E+02 0.  0.
          6    2    1    2  501    0  0.69358408557E+02 -0.11914112124E+01 -0.91037995899E+03  0.92893717827E+03  0.17123259954E+03 0.  0.
         24    2    5    5    0    0  0.82512915337E+02  0.52852442595E+02 -0.41878260573E+03  0.43418084742E+03  0.59433791069E+02 0.  0.
          5    1    5    5  501    0 -0.13154506780E+02 -0.54043853807E+02 -0.49159735326E+03  0.49475633085E+03  0.47000000000E+01 0. -1.
        -13    1    6    6    0    0 -0.41739256277E+01  0.21132464238E+02 -0.10052158931E+03  0.10280366053E+03  0.00000000000E+00 0.  1.
         14    1    6    6    0    0  0.86686840965E+02  0.31719978357E+02 -0.31826101642E+03  0.33137718689E+03  0.00000000000E+00 0. -1.
         -5    1    3    3    0  503 -0.64652514604E+02  0.27195489087E+02 -0.13312811875E+04  0.13331358642E+04  0.47000000000E+01 0.  1.
         11    1    4    4    0    0 -0.23772363736E+02  0.97703088041E+01 -0.33223119619E+03  0.33322387659E+03  0.00000000000E+00 0. -1.
        -12    1    4    4    0    0  0.19066469783E+02 -0.35774386678E+02 -0.11667635668E+03  0.12351805221E+03  0.00000000000E+00 0.  1.
</event>
<event>
12    1  0.8356052E-002  0.1977163E+03  0.7818608E-02  0.1151708E+00
         21   -1    0    0  503  502  0.00000000000E+00  0.00000000000E+00  0.21579377558E+03  0.21579377558E+03  0.00000000000E+00 0.  1.
         21   -1    0    0  501  503 -0.00000000000E+00 -0.00000000000E+00 -0.33157481819E+03  0.33157481819E+03  0.00000000000E+00 0.  1.
          6    2    1    2  501    0 -0.58845258477E+02  0.77541601120E+02 -0.24229160263E+03  0.31264182570E+03  0.17194250820E+03 0.  0.
         24    2    3    3    0    0 -0.50105053781E+02 -0.21290928127E+02 -0.13930289467E+03  0.16955785042E+03  0.79879585258E+02 0.  0.
         -6    2    1    2    0  502  0.58845258477E+02 -0.77541601120E+02  0.12651056002E+03  0.23472676806E+03  0.17209378112E+03 0.  0.
        -24    2    5    5    0    0  0.67491780774E+02 -0.50903600910E+02  0.15552207549E+03  0.19412992788E+03  0.79705682829E+02 0.  0.
          5    1    3    3  501    0 -0.87402046959E+01  0.98832529248E+02 -0.10298870796E+03  0.14308397528E+03  0.47000000000E+01 0. -1.
        -13    1    4    4    0    0 -0.18209073947E+02  0.19767884786E+02 -0.75488733461E+01  0.27916395393E+02  0.00000000000E+00 0.  1.
         14    1    4    4    0    0 -0.31895979834E+02 -0.41058812913E+02 -0.13175402132E+03  0.14164145503E+03  0.00000000000E+00 0. -1.
         -5    1    5    5    0  502 -0.86465222967E+01 -0.26638000210E+02 -0.29011515473E+02  0.40596840185E+02  0.47000000000E+01 0.  1.
         11    1    6    6    0    0  0.60804681535E+02 -0.62429534516E+02  0.15812791861E+03  0.18055219389E+03  0.00000000000E+00 0. -1.
        -12    1    6    6    0    0  0.66870992393E+01  0.11525933605E+02 -0.26058431208E+01  0.13577733982E+02  0.00000000000E+00 0.  1.
</event>
<event>
12    1  0.8356052E-002  0.1757148E+03  0.7818608E-02  0.1172880E+00
         21   -1    0    0  503  502  0.00000000000E+00  0.00000000000E+00  0.13487510658E+03  0.13487510658E+03  0.00000000000E+00 0.  1.
         21   -1    0    0  501  503 -0.00000000000E+00 -0.00000000000E+00 -0.36343067546E+03  0.36343067546E+03  0.00000000000E+00 0.  1.
          6    2    1    2  501    0 -0.39184265207E+02  0.40316958842E+01 -0.26763600325E+03  0.31829752798E+03  0.16772782975E+03 0.  0.
         24    2    3    3    0    0  0.38697279491E+02 -0.19089078283E+02 -0.15842742118E+03  0.18210388055E+03  0.78744543813E+02 0.  0.
         -6    2    1    2    0  502  0.39184265207E+02 -0.40316958842E+01  0.39080434380E+02  0.18000825406E+03  0.17124260558E+03 0.  0.
        -24    2    5    5    0    0  0.55118530495E+02  0.56786688644E+01  0.85806556265E+02  0.12947497334E+03  0.79565720880E+02 0.  0.
          5    1    3    3  501    0 -0.77881544698E+02  0.23120774167E+02 -0.10920858207E+03  0.13619364743E+03  0.47000000000E+01 0. -1.
        -13    1    4    4    0    0  0.22187407793E+02 -0.43490405420E+01 -0.15836553044E+03  0.15997136134E+03  0.00000000000E+00 0.  1.
         14    1    4    4    0    0  0.16509871697E+02 -0.14740037741E+02 -0.61890740528E-01  0.22132519209E+02  0.00000000000E+00 0. -1.
         -5    1    5    5    0  502 -0.15934265288E+02 -0.97103647487E+01 -0.46726121886E+02  0.50533280720E+02  0.47000000000E+01 0.  1.
         11    1    6    6    0    0  0.63078486018E+02  0.10444307467E+02  0.26112115811E+02  0.69063894684E+02  0.00000000000E+00 0. -1.
        -12    1    6    6    0    0 -0.79599555227E+01 -0.47656386028E+01  0.59694440454E+02  0.60411078656E+02  0.00000000000E+00 0.  1.
</event>
<event>
12    1  0.8356052E-002  0.2419296E+03  0.7818608E-02  0.1118786E+00
         21   -1    0    0  503  502  0.00000000000E+00  0.00000000000E+00  0.10120876974E+04  0.10120876974E+04  0.00000000000E+00 0. -1.
         21   -1    0    0  501  503 -0.00000000000E+00 -0.00000000000E+00 -0.63912420502E+02  0.63912420502E+02  0.00000000000E+00 0.  1.
          6    2    1    2  501    0 -0.10997599292E+02 -0.16832283311E+03  0.30140898105E+03  0.38546657288E+03  0.17112446234E+03 0.  0.
         24    2    3    3    0    0 -0.42472763233E+02 -0.16051427115E+03  0.17186522237E+03  0.25184271648E+03  0.79487938246E+02 0.  0.
         -6    2    1    2    0  502  0.10997599292E+02  0.16832283311E+03  0.64676629587E+03  0.69053354505E+03  0.17342552299E+03 0.  0.
        -24    2    5    5    0    0  0.19861769281E+02  0.18792602411E+03  0.63024190839E+03  0.66300167282E+03  0.81582318251E+02 0.  0.
          5    1    3    3  501    0  0.31475163941E+02 -0.78085619663E+01  0.12954375868E+03  0.13362385639E+03  0.47000000000E+01 0. -1.
        -11    1    4    4    0    0 -0.60375119954E+02 -0.11159745539E+03  0.92949288177E+02  0.15728546446E+03  0.00000000000E+00 0.  1.
         12    1    4    4    0    0  0.17902356720E+02 -0.48916815761E+02  0.78915934195E+02  0.94557252023E+02  0.00000000000E+00 0. -1.
         -5    1    5    5    0  502 -0.88641699892E+01 -0.19603190996E+02  0.16524387480E+02  0.27531872229E+02  0.47000000000E+01 0.  1.
         11    1    6    6    0    0  0.29770018287E+02  0.26046161654E+02  0.18394290759E+03  0.18814794652E+03  0.00000000000E+00 0. -1.
        -12    1    6    6    0    0 -0.99082490052E+01  0.16187986246E+03  0.44629900080E+03  0.47485372631E+03  0.00000000000E+00 0.  1.
</event>
<event>
12    1  0.8356052E-002  0.1913363E+03  0.7818608E-02  0.1159226E+00
         21   -1    0    0  503  502  0.00000000000E+00  0.00000000000E+00  0.62064627795E+02  0.62064627795E+02  0.00000000000E+00 0.  1.
         21   -1    0    0  501  503 -0.00000000000E+00 -0.00000000000E+00 -0.94259304838E+03  0.94259304838E+03  0.00000000000E+00 0.  1.
          6    2    1    2  501    0  0.55482306409E+02  0.21362041572E+02 -0.76472737681E+03  0.78830041801E+03  0.18186523868E+03 0.  0.
         24    2    3    3    0    0  0.10325418402E+03 -0.59517209747E+01 -0.61578249434E+03  0.62944557254E+03  0.79478292330E+02 0.  0.
         -6    2    1    2    0  502 -0.55482306409E+02 -0.21362041572E+02 -0.11580104377E+03  0.21635725816E+03  0.17281770244E+03 0.  0.
        -24    2    5    5    0    0 -0.20985819143E+02  0.50450148517E+02 -0.31568903285E+02  0.10032216964E+03  0.77989229868E+02 0.  0.
          5    1    3    3  501    0 -0.47771877608E+02  0.27313762547E+02 -0.14894488248E+03  0.15885484547E+03  0.47000000000E+01 0. -1.
        -13    1    4    4    0    0  0.92468609827E+02 -0.35360461974E+02 -0.45629041660E+03  0.46690657562E+03  0.00000000000E+00 0.  1.
         14    1    4    4    0    0  0.10785574191E+02  0.29408740999E+02 -0.15949207774E+03  0.16253899692E+03  0.00000000000E+00 0. -1.
         -5    1    5    5    0  502 -0.34496487266E+02 -0.71812190089E+02 -0.84232140485E+02  0.11603508853E+03  0.47000000000E+01 0.  1.
         11    1    6    6    0    0  0.24103680291E+02  0.42052430457E+02 -0.23053060045E+02  0.53673437456E+02  0.00000000000E+00 0. -1.
        -12    1    6    6    0    0 -0.45089499434E+02  0.83977180599E+01 -0.85158432392E+01  0.46648732179E+02  0.00000000000E+00 0.  1.
</event>
<event>
12    1  0.8356052E-002  0.2362434E+03  0.7818608E-02  0.1122666E+00
         21   -1    0    0  503  502  0.00000000000E+00  0.00000000000E+00  0.12590782018E+03  0.12590782018E+03  0.00000000000E+00 0. -1.
         21   -1    0    0  501  503 -0.00000000000E+00 -0.00000000000E+00 -0.61874247519E+03  0.61874247519E+03  0.00000000000E+00 0. -1.
          6    2    1    2  501    0  0.72947617454E+02 -0.14291573964E+03 -0.44756943355E+03  0.50609224217E+03  0.17339174204E+03 0.  0.
         24    2    3    3    0    0  0.97407326420E+02 -0.15320936919E+03 -0.43069585027E+03  0.47429532432E+03  0.80596781448E+02 0.  0.
         -6    2    1    2    0  502 -0.72947617454E+02  0.14291573964E+03 -0.45265221469E+02  0.23855805320E+03  0.17063042210E+03 0.  0.
        -24    2    5    5    0    0 -0.36601470723E+02  0.16240660810E+03 -0.10328604732E+02  0.18430315919E+03  0.78392604223E+02 0.  0.
          5    1    3    3  501    0 -0.24459708966E+02  0.10293629554E+02 -0.16873583275E+02  0.31796917848E+02  0.47000000000E+01 0. -1.
        -11    1    4    4    0    0  0.28006902514E+02 -0.12759834576E+02 -0.25838994265E+02  0.40185240966E+02  0.00000000000E+00 0.  1.
         12    1    4    4    0    0  0.69400423906E+02 -0.14044953462E+03 -0.40485685601E+03  0.43411008335E+03  0.00000000000E+00 0. -1.
         -5    1    5    5    0  502 -0.36346146731E+02 -0.19490868463E+02 -0.34936616737E+02  0.54254894016E+02  0.47000000000E+01 0.  1.
         13    1    6    6    0    0 -0.58605771422E+02  0.11292857914E+03  0.70697718517E+01  0.12742637915E+03  0.00000000000E+00 0. -1.
        -14    1    6    6    0    0  0.22004300699E+02  0.49478028965E+02 -0.17398376584E+02  0.56876780036E+02  0.00000000000E+00 0.  1.
</event>
<event>
12    1  0.8356052E-002  0.2247788E+03  0.7818608E-02  0.1130597E+00
         21   -1    0    0  501  502  0.00000000000E+00  0.00000000000E+00  0.12872647476E+03  0.12872647476E+03  0.00000000000E+00 0.  1.
         21   -1    0    0  502  503 -0.00000000000E+00 -0.00000000000E+00 -0.47203986602E+03  0.47203986602E+03  0.00000000000E+00 0.  1.
         -6    2    1    2    0  503  0.53788640688E+02 -0.13523303617E+03 -0.29624159307E+03  0.37111170170E+03  0.16965736571E+03 0.  0.
        -24    2    3    3    0    0  0.26057268072E+02 -0.14284372528E+03 -0.15449840291E+03  0.22640450226E+03  0.79409892777E+02 0.  0.
          6    2    1    2  501    0 -0.53788640688E+02  0.13523303617E+03 -0.47071798195E+02  0.22965463908E+03  0.17130180129E+03 0.  0.
         24    2    5    5    0    0 -0.45018771869E+02  0.15609996986E+03 -0.45740453524E+01  0.18127604342E+03  0.80288178562E+02 0.  0.
          5    1    5    5  501    0 -0.87698688184E+01 -0.20866933692E+02 -0.42497752843E+02  0.48378595654E+02  0.47000000000E+01 0. -1.
        -11    1    6    6    0    0 -0.35563938970E+01  0.12898591922E+03 -0.17134669478E+02  0.13016763112E+03  0.00000000000E+00 0.  1.
         12    1    6    6    0    0 -0.41462377972E+02  0.27114050644E+02  0.12560624125E+02  0.51108412300E+02  0.00000000000E+00 0. -1.
         -5    1    3    3    0  503  0.27731372616E+02  0.76106891032E+01 -0.14174319016E+03  0.14470719945E+03  0.47000000000E+01 0.  1.
         13    1    4    4    0    0  0.31850531651E+02 -0.70354181812E+02 -0.31269599574E+02  0.83318396063E+02  0.00000000000E+00 0. -1.
        -14    1    4    4    0    0 -0.57932635795E+01 -0.72489543463E+02 -0.12322880333E+03  0.14308610619E+03  0.00000000000E+00 0.  1.
</event>
<event>
12    1  0.8356052E-002  0.1993639E+03  0.7818608E-02  0.1150598E+00
         21   -1    0    0  501  502  0.00000000000E+00  0.00000000000E+00  0.17640002505E+03  0.17640002505E+03  0.00000000000E+00 0.  1.
         21   -1    0    0  502  503 -0.00000000000E+00 -0.00000000000E+00 -0.22562115036E+03  0.22562115036E+03  0.00000000000E+00 0. -1.
         -6    2    1    2    0  503  0.74594605717E+02 -0.63051838167E+02 -0.43677204714E+02  0.20409232780E+03  0.17379899469E+03 0.  0.
        -24    2    3    3    0    0  0.72550784790E+02  0.13620678290E+02  0.11493195954E+02  0.10949467934E+03  0.80049059956E+02 0.  0.
          6    2    1    2  501    0 -0.74594605717E+02  0.63051838167E+02 -0.55439205965E+01  0.19792884762E+03  0.17206162897E+03 0.  0.
         24    2    5    5    0    0 -0.93485571589E+02  0.87350325466E+02 -0.37381872262E+02  0.15339761989E+03  0.75919654632E+02 0.  0.
          5    1    5    5  501    0  0.18890965872E+02 -0.24298487299E+02  0.31837951665E+02  0.44531227727E+02  0.47000000000E+01 0. -1.
        -11    1    6    6    0    0 -0.28478353298E+02  0.74236570982E+02 -0.51908768481E+01  0.79680802457E+02  0.00000000000E+00 0.  1.
         12    1    6    6    0    0 -0.65007218291E+02  0.13113754484E+02 -0.32190995414E+02  0.73716817432E+02  0.00000000000E+00 0. -1.
         -5    1    3    3    0  503  0.20438209269E+01 -0.76672516457E+02 -0.55170400668E+02  0.94597648458E+02  0.47000000000E+01 0.  1.
         13    1    4    4    0    0  0.78580275285E+02 -0.14432991687E+02  0.48525175601E+01  0.80041975485E+02  0.00000000000E+00 0. -1.
        -14    1    4    4    0    0 -0.60294904951E+01  0.28053669977E+02  0.66406783939E+01  0.29452703855E+02  0.00000000000E+00 0.  1.
</event>
<event>
12    1  0.8356052E-002  0.1817457E+03  0.7818608E-02  0.1166456E+00
         21   -1    0    0  503  502  0.00000000000E+00  0.00000000000E+00  0.22294498855E+04  0.22294498855E+04  0.00000000000E+00 0. -1.
         21   -1    0    0  501  503 -0.00000000000E+00 -0.00000000000E+00 -0.15416101048E+02  0.15416101048E+02  0.00000000000E+00 0. -1.
          6    2    1    2  501    0  0.56315728236E+02 -0.10316431447E+02  0.86163014310E+03  0.88030484869E+03  0.17103284224E+03 0.  0.
         24    2    3    3    0    0  0.86871810425E+02 -0.19402940916E+02  0.81457602644E+03  0.82327486791E+03  0.79524962876E+02 0.  0.
         -6    2    1    2    0  502 -0.56315728236E+02  0.10316431447E+02  0.13524036414E+04  0.13645611379E+04  0.17249231811E+03 0.  0.
        -24    2    5    5    0    0 -0.42408806944E+02  0.36086814083E+02  0.13053548255E+04  0.13089446282E+04  0.79272025347E+02 0.  0.
          5    1    3    3  501    0 -0.30556082189E+02  0.90865094690E+01  0.47054116660E+02  0.57029980780E+02  0.47000000000E+01 0. -1.
        -11    1    4    4    0    0  0.20565158174E+02  0.28426808531E+02  0.17396586120E+03  0.17746867340E+03  0.00000000000E+00 0.  1.
         12    1    4    4    0    0  0.66306652251E+02 -0.47829749447E+02  0.64061016524E+03  0.64580619451E+03  0.00000000000E+00 0. -1.
         -5    1    5    5    0  502 -0.13906921292E+02 -0.25770382636E+02  0.47048815855E+02  0.55616509728E+02  0.47000000000E+01 0.  1.
         13    1    6    6    0    0 -0.42608688247E+02 -0.15054806143E+02  0.54372706475E+03  0.54560174893E+03  0.00000000000E+00 0. -1.
        -14    1    6    6    0    0  0.19988130286E+00  0.51141620225E+02  0.76162776080E+03  0.76334287924E+03  0.00000000000E+00 0.  1.
</event>
<event>
12    1  0.8356052E-002  0.3348082E+03  0.7818608E-02  0.1069075E+00
         21   -1    0    0  501  502  0.00000000000E+00  0.00000000000E+00  0.34687413299E+03  0.34687413299E+03  0.00000000000E+00 0.  1.
         21   -1    0    0  502  503 -0.00000000000E+00 -0.00000000000E+00 -0.38676738442E+03  0.38676738442E+03  0.00000000000E+00 0. -1.
         -6    2    1    2    0  503 -0.13647020696E+03 -0.25240211974E+03 -0.16916795576E+03  0.37474250520E+03  0.17170672821E+03 0.  0.
        -24    2    3    3    0    0 -0.69339142802E+02 -0.24234955809E+03 -0.15008688329E+03  0.30407560278E+03  0.79966709580E+02 0.  0.
          6    2    1    2  501    0  0.13647020696E+03  0.25240211974E+03  0.12927470434E+03  0.35889901222E+03  0.17252711193E+03 0.  0.
         24    2    5    5    0    0  0.14470071033E+03  0.20337638604E+03  0.51627068250E+02  0.26658157540E+03  0.78103343062E+02 0.  0.
          5    1    5    5  501    0 -0.82305033705E+01  0.49025733700E+02  0.77647636086E+02  0.92317436816E+02  0.47000000000E+01 0. -1.
        -11    1    6    6    0    0  0.15067434491E+03  0.17866862693E+03  0.57066646712E+02  0.24058644731E+03  0.00000000000E+00 0.  1.
         12    1    6    6    0    0 -0.59736345821E+01  0.24707759113E+02 -0.54395784614E+01  0.25995128088E+02  0.00000000000E+00 0. -1.
         -5    1    3    3    0  503 -0.67131064157E+02 -0.10052561648E+02 -0.19081072473E+02  0.70666902418E+02  0.47000000000E+01 0.  1.
         11    1    4    4    0    0 -0.47031526759E+02 -0.55647356079E+02 -0.20409543432E+02  0.75664669502E+02  0.00000000000E+00 0. -1.
        -12    1    4    4    0    0 -0.22307616043E+02 -0.18670220201E+03 -0.12967733986E+03  0.22841093328E+03  0.00000000000E+00 0.  1.
</event>
<event>
12    1  0.8356052E-002  0.1827999E+03  0.7818608E-02  0.1165414E+00
         21   -1    0    0  503  502  0.00000000000E+00  0.00000000000E+00  0.24670780504E+03  0.24670780504E+03  0.00000000000E+00 0.  1.
         21   -1    0    0  501  503 -0.00000000000E+00 -0.00000000000E+00 -0.14762782810E+03  0.14762782810E+03  0.00000000000E+00 0. -1.
          6    2    1    2  501    0  0.38967826230E+02 -0.48087370342E+02  0.10841356586E+03  0.21253070401E+03  0.17200265177E+03 0.  0.
         24    2    3    3    0    0  0.56772778475E+02 -0.79674464353E+02  0.26609878811E+02  0.12292772388E+03  0.69512380207E+02 0.  0.
         -6    2    1    2    0  502 -0.38967826230E+02  0.48087370342E+02 -0.93335889230E+01  0.18180492913E+03  0.17068986410E+03 0.  0.
        -24    2    5    5    0    0  0.28317911856E+02  0.69561486552E+02  0.46741791606E+01  0.10964666014E+03  0.79748589871E+02 0.  0.
          5    1    3    3  501    0 -0.17804952246E+02  0.31587094011E+02  0.81803687051E+02  0.89602980127E+02  0.47000000000E+01 0. -1.
        -11    1    4    4    0    0  0.18995207326E+01 -0.62287549961E+02  0.16739508134E+02  0.64525639801E+02  0.00000000000E+00 0.  1.
         12    1    4    4    0    0  0.54873257743E+02 -0.17386914392E+02  0.98703706771E+01  0.58402084078E+02  0.00000000000E+00 0. -1.
         -5    1    5    5    0  502 -0.67285738086E+02 -0.21474116210E+02 -0.14007768084E+02  0.72158268989E+02  0.47000000000E+01 0.  1.
         13    1    6    6    0    0 -0.84261808642E+01 -0.15055806211E+02  0.18549018161E+01  0.17352765929E+02  0.00000000000E+00 0. -1.
        -14    1    6    6    0    0  0.36744092720E+02  0.84617292763E+02  0.28192773445E+01  0.92293894214E+02  0.00000000000E+00 0.  1.
</event>
<event>
12    1  0.8356052E-002  0.1782460E+03  0.7818608E-02  0.1169564E+00
         21   -1    0    0  503  502  0.00000000000E+00  0.00000000000E+00  0.11862082797E+04  0.11862082797E+04  0.00000000000E+00 0.  1.
         21   -1    0    0  501  503 -0.00000000000E+00 -0.00000000000E+00 -0.70979213185E+02  0.70979213185E+02  0.00000000000E+00 0.  1.
          6    2    1    2  501    0 -0.15255087508E+00 -0.47270015185E+02  0.61295880183E+02  0.18828769150E+03  0.17164088160E+03 0.  0.
         24    2    3    3    0    0  0.65509978643E+02 -0.41809118885E+02  0.31642294695E+02  0.11588041077E+03  0.79921680800E+02 0.  0.
         -6    2    1    2    0  502  0.15255087508E+00  0.47270015185E+02  0.10539331863E+04  0.10688998013E+04  0.17186374410E+03 0.  0.
        -24    2    5    5    0    0  0.54990783450E+02  0.41653642149E+02  0.43118398034E+03  0.44369788283E+03  0.78671304542E+02 0.  0.
          5    1    3    3  501    0 -0.65662529518E+02 -0.54608963000E+01  0.29653585488E+02  0.72407280735E+02  0.47000000000E+01 0. -1.
        -11    1    4    4    0    0  0.77340083788E+02 -0.50565745883E+02  0.37917018940E+02  0.99880346127E+02  0.00000000000E+00 0.  1.
         12    1    4    4    0    0 -0.11830105145E+02  0.87566269977E+01 -0.62747242445E+01  0.16000064639E+02  0.00000000000E+00 0. -1.
         -5    1    5    5    0  502 -0.54838232575E+02  0.56163730368E+01  0.62274920594E+03  0.62520191850E+03  0.47000000000E+01 0.  1.
         13    1    6    6    0    0 -0.17261321131E+01 -0.19824676559E+02  0.60295679567E+02  0.63494616364E+02  0.00000000000E+00 0. -1.
        -14    1    6    6    0    0  0.56716915563E+02  0.61478318708E+02  0.37088830078E+03  0.38020326647E+03  0.00000000000E+00 0.  1.
</event>
<event>
12    1  0.8356052E-002  0.1769189E+03  0.7818608E-02  0.1170841E+00
         21   -1    0    0  501  502  0.00000000000E+00  0.00000000000E+00  0.26027785506E+03  0.26027785506E+03  0.00000000000E+00 0. -1.
         21   -1    0    0  502  503 -0.00000000000E+00 -0.00000000000E+00 -0.52736402521E+03  0.52736402521E+03  0.00000000000E+00 0. -1.
         -6    2    1    2    0  503 -0.11734757703E+02  0.39124753078E+02 -0.47957837066E+03  0.51114011111E+03  0.17204751885E+03 0.  0.
        -24    2    3    3    0    0 -0.55105635388E+02  0.59208762803E+02 -0.41598795786E+03  0.43145177396E+03  0.81008292948E+02 0.  0.
          6    2    1    2  501    0  0.11734757703E+02 -0.39124753078E+02  0.21249220050E+03  0.27650176916E+03  0.17213902008E+03 0.  0.
         24    2    5    5    0    0 -0.59170889638E+02 -0.11193413164E+02  0.10646630747E+03  0.14584439062E+03  0.79429370957E+02 0.  0.
          5    1    5    5  501    0  0.70905647340E+02 -0.27931339913E+02  0.10602589303E+03  0.13065737854E+03  0.47000000000E+01 0. -1.
        -13    1    6    6    0    0 -0.54433805364E+02  0.12424673931E+02  0.10813440741E+03  0.12169824056E+03  0.00000000000E+00 0.  1.
         14    1    6    6    0    0 -0.47370842731E+01 -0.23618087095E+02 -0.16680999411E+01  0.24146150063E+02  0.00000000000E+00 0. -1.
         -5    1    3    3    0  503  0.43370877685E+02 -0.20084009726E+02 -0.63590412795E+02  0.79688337148E+02  0.47000000000E+01 0.  1.
         11    1    4    4    0    0 -0.15323067363E+02  0.51482130358E+02 -0.34937312596E+03  0.35347812843E+03  0.00000000000E+00 0. -1.
        -12    1    4    4    0    0 -0.39782568025E+02  0.77266324458E+01 -0.66614831903E+02  0.77973645529E+02  0.00000000000E+00 0.  1.
</event>
<event>
12    1  0.8356052E-002  0.2387529E+03  0.7818608E-02  0.1121796E+00
         21   -1    0    0  503  502  0.00000000000E+00  0.00000000000E+00  0.69321638343E+03  0.69321638343E+03  0.00000000000E+00 0.  1.
         21   -1    0    0  501  503 -0.00000000000E+00 -0.00000000000E+00 -0.10183984578E+03  0.10183984578E+03  0.00000000000E+00 0. -1.
          6    2    1    2  501    0 -0.15227521221E+03  0.31103912524E+02  0.10772871113E+03  0.25568792974E+03  0.17209197711E+03 0.  0.
         24    2    3    3    0    0 -0.52868105045E+02  0.73237673883E+02  0.36252144113E+02  0.12611935163E+03  0.80206480385E+02 0.  0.
         -6    2    1    2    0  502  0.15227521221E+03 -0.31103912524E+02  0.48364782652E+03  0.53936829947E+03  0.18123947900E+03 0.  0.
        -24    2    5    5    0    0  0.16083950270E+03 -0.35512383439E+02  0.49252760836E+03  0.52544988675E+03  0.79897831520E+02 0.  0.
          5    1    3    3  501    0 -0.99407107167E+02 -0.42133761359E+02  0.71476567012E+02  0.12956857811E+03  0.47000000000E+01 0. -1.
        -13    1    4    4    0    0 -0.30517803172E+02  0.20638021799E+02  0.54800989406E+02  0.66033421039E+02  0.00000000000E+00 0.  1.
         14    1    4    4    0    0 -0.22350301873E+02  0.52599652084E+02 -0.18548845293E+02  0.60085930591E+02  0.00000000000E+00 0. -1.
         -5    1    5    5    0  502 -0.85642904925E+01  0.44084709141E+01 -0.88797818326E+01  0.13918412727E+02  0.47000000000E+01 0.  1.
         11    1    6    6    0    0  0.22949361485E+02 -0.37569088022E+02  0.95637132333E+02  0.10528328760E+03  0.00000000000E+00 0. -1.
        -12    1    6    6    0    0  0.13789014122E+03  0.20567045835E+01  0.39689047602E+03  0.42016659914E+03  0.00000000000E+00 0.  1.
</event>
<event>
12    1  0.8356052E-002  0.2172022E+03  0.7818608E-02  0.1136061E+00
         21   -1    0    0  501  502  0.00000000000E+00  0.00000000000E+00  0.10696079767E+03  0.10696079767E+03  0.00000000000E+00 0.  1.
         21   -1    0    0  502  503 -0.00000000000E+00 -0.00000000000E+00 -0.55231558903E+03  0.55231558903E+03  0.00000000000E+00 0. -1.
         -6    2    1    2    0  503 -0.24332858132E+02 -0.12991169376E+03 -0.37098828866E+03  0.42969599880E+03  0.17186391390E+03 0.  0.
        -24    2    3    3    0    0 -0.46721424576E+02 -0.12578180267E+02 -0.11467421094E+03  0.14687556507E+03  0.77981759581E+02 0.  0.
          6    2    1    2  501    0  0.24332858132E+02  0.12991169376E+03 -0.74366502702E+02  0.22958038790E+03  0.17235904857E+03 0.  0.
         24    2    5    5    0    0  0.60473044938E+02  0.14587555439E+03 -0.68634746111E+02  0.18938211701E+03  0.78855509226E+02 0.  0.
          5    1    5    5  501    0 -0.36140186806E+02 -0.15963860637E+02 -0.57317565903E+01  0.40198270889E+02  0.47000000000E+01 0. -1.
        -13    1    6    6    0    0 -0.46783683104E+01  0.91573601720E+02 -0.35854432130E+02  0.98453806252E+02  0.00000000000E+00 0.  1.
         14    1    6    6    0    0  0.65151413249E+02  0.54301952673E+02 -0.32780313982E+02  0.90928310757E+02  0.00000000000E+00 0. -1.
         -5    1    3    3    0  503  0.22388566444E+02 -0.11733351349E+03 -0.25631407773E+03  0.28282043373E+03  0.47000000000E+01 0.  1.
         11    1    4    4    0    0 -0.49901560739E+02 -0.57447568705E+01 -0.23615575166E+02  0.55505525726E+02  0.00000000000E+00 0. -1.
        -12    1    4    4    0    0  0.31801361632E+01 -0.68334233960E+01 -0.91058635770E+02  0.91370039343E+02  0.00000000000E+00 0.  1.
</event>
<event>
12    1  0.8356052E-002  0.1811610E+03  0.7818608E-02  0.1167228E+00
         21   -1    0    0  501  502  0.00000000000E+00  0.00000000000E+00  0.28566507971E+03  0.28566507971E+03  0.00000000000E+00 0.  1.
         21   -1    0    0  502  503 -0.00000000000E+00 -0.00000000000E+00 -0.60893013942E+03  0.60893013942E+03  0.00000000000E+00 0.  1.
         -6    2    1    2    0  503  0.47745816662E+02 -0.75904840854E+01 -0.56492107867E+03  0.59257380113E+03  0.17225157824E+03 0.  0.
        -24    2    3    3    0    0  0.41165662282E+02 -0.40747254792E+02 -0.15725451614E+03  0.18348116360E+03  0.74708794843E+02 0.  0.
          6    2    1    2  501    0 -0.47745816662E+02  0.75904840854E+01  0.24165601896E+03  0.30202141800E+03  0.17459102775E+03 0.  0.
         24    2    5    5    0    0  0.34667237047E+02  0.22757021248E+02  0.90924514095E+02  0.12949892140E+03  0.82358994900E+02 0.  0.
          5    1    5    5  501    0 -0.82413053709E+02 -0.15166537163E+02  0.15073150487E+03  0.17252249659E+03  0.47000000000E+01 0. -1.
        -13    1    6    6    0    0  0.26939292815E+02 -0.26980231892E+02  0.21573765866E+02  0.43807371343E+02  0.00000000000E+00 0.  1.
         14    1    6    6    0    0  0.77279442319E+01  0.49737253140E+02  0.69350748229E+02  0.85691550061E+02  0.00000000000E+00 0. -1.
         -5    1    3    3    0  503  0.65801543794E+01  0.33156770707E+02 -0.40766656253E+03  0.40909263753E+03  0.47000000000E+01 0.  1.
         11    1    4    4    0    0 -0.12897680718E+01 -0.50780303196E+02 -0.80158070750E+02  0.94897939918E+02  0.00000000000E+00 0. -1.
        -12    1    4    4    0    0  0.42455430354E+02  0.10033048404E+02 -0.77096445391E+02  0.88583223687E+02  0.00000000000E+00 0.  1.
</event>
<event>
12    1  0.8356052E-002  0.2646560E+03  0.7818608E-02  0.1104825E+00
         21   -1    0    0  501  502  0.00000000000E+00  0.00000000000E+00  0.57906712418E+03  0.57906712418E+03  0.00000000000E+00 0. -1.
         21   -1    0    0  502  503 -0.00000000000E+00 -0.00000000000E+00 -0.18796683582E+03  0.18796683582E+03  0.00000000000E+00 0.  1.
         -6    2    1    2    0  503  0.42911606166E+02  0.19343188464E+03 -0.36498508896E+02  0.26415868305E+03  0.17085189124E+03 0.  0.
        -24    2    3    3    0    0 -0.18194718900E+02  0.15907718830E+03 -0.61394018276E+02  0.18961940139E+03  0.80930169089E+02 0.  0.
          6    2    1    2  501    0 -0.42911606166E+02 -0.19343188464E+03  0.42759879726E+03  0.50287527695E+03  0.17545800870E+03 0.  0.
         24    2    5    5    0    0  0.21467198928E+02 -0.47952407702E+02  0.90185516328E+02  0.12980863290E+03  0.77178881738E+02 0.  0.
          5    1    5    5  501    0 -0.64378805095E+02 -0.14547947693E+03  0.33741328093E+03  0.37306664405E+03  0.47000000000E+01 0. -1.
        -11    1    6    6    0    0 -0.22820532756E+02 -0.20463448203E+02  0.65112833580E+02  0.71966732067E+02  0.00000000000E+00 0.  1.
         12    1    6    6    0    0  0.44287731684E+02 -0.27488959500E+02  0.25072682748E+02  0.57841900836E+02  0.00000000000E+00 0. -1.
         -5    1    3    3    0  503  0.61106325066E+02  0.34354696336E+02  0.24895509381E+02  0.74539281663E+02  0.47000000000E+01 0.  1.
         13    1    4    4    0    0 -0.16095158879E+02  0.11398137070E+03 -0.21461572769E+01  0.11513215449E+03  0.00000000000E+00 0. -1.
        -14    1    4    4    0    0 -0.20995600209E+01  0.45095817597E+02 -0.59247860999E+02  0.74487246895E+02  0.00000000000E+00 0.  1.
</event>
<event>
12    1  0.8356052E-002  0.1778830E+03  0.7818608E-02  0.1170807E+00
         21   -1    0    0  501  502  0.00000000000E+00  0.00000000000E+00  0.53246449880E+03  0.53246449880E+03  0.00000000000E+00 0. -1.
         21   -1    0    0  502  503 -0.00000000000E+00 -0.00000000000E+00 -0.58303151693E+02  0.58303151693E+02  0.00000000000E+00 0. -1.
         -6    2    1    2    0  503 -0.12851604212E+02 -0.44177006513E+02  0.25371066089E+03  0.30985713480E+03  0.17183006983E+03 0.  0.
        -24    2    3    3    0    0  0.18504808990E+02 -0.16273396592E+02  0.25379157040E+03  0.26762050802E+03  0.81260837501E+02 0.  0.
          6    2    1    2  501    0  0.12851604212E+02  0.44177006513E+02  0.22045068622E+03  0.28091051570E+03  0.16791498188E+03 0.  0.
         24    2    5    5    0    0  0.35520516327E+02  0.60432955115E+02  0.22690486348E+03  0.25189531545E+03  0.83973708568E+02 0.  0.
          5    1    5    5  501    0 -0.22668912115E+02 -0.16255948602E+02 -0.64541772611E+01  0.29015200250E+02  0.47000000000E+01 0. -1.
        -11    1    6    6    0    0  0.43647595154E+02  0.74082329086E+01  0.48810821381E+02  0.65897577812E+02  0.00000000000E+00 0.  1.
         12    1    6    6    0    0 -0.81270788273E+01  0.53024722207E+02  0.17809404210E+03  0.18599773764E+03  0.00000000000E+00 0. -1.
         -5    1    3    3    0  503 -0.31356413202E+02 -0.27903609921E+02 -0.80909508377E-01  0.42236626782E+02  0.47000000000E+01 0.  1.
         13    1    4    4    0    0 -0.60917928893E+01 -0.41068509807E+02  0.77678085442E+02  0.88077337586E+02  0.00000000000E+00 0. -1.
        -14    1    4    4    0    0  0.24596601879E+02  0.24795113215E+02  0.17611348496E+03  0.17954317043E+03  0.00000000000E+00 0.  1.
</event>
<event>
12    1  0.8356052E-002  0.1888113E+03  0.7818608E-02  0.1159769E+00
         21   -1    0    0  501  502  0.00000000000E+00  0.00000000000E+00  0.16303047082E+03  0.16303047082E+03  0.00000000000E+00 0.  1.
         21   -1    0    0  502  503 -0.00000000000E+00 -0.00000000000E+00 -0.38579646653E+03  0.38579646653E+03  0.00000000000E+00 0.  1.
         -6    2    1    2    0  503  0.54993814934E+02 -0.50665053153E+02 -0.29279710215E+03  0.34839613226E+03  0.17337374269E+03 0.  0.
        -24    2    3    3    0    0  0.35985646261E+01 -0.46557278316E+02 -0.29701677756E+02  0.80255053897E+02  0.58121890737E+02 0.  0.
          6    2    1    2  501    0 -0.54993814934E+02  0.50665053153E+02  0.70031106441E+02  0.20043080509E+03  0.17226980138E+03 0.  0.
         24    2    5    5    0    0  0.10302973727E+02  0.44428681164E+02  0.91920960490E+02  0.13112121949E+03  0.81628746444E+02 0.  0.
          5    1    5    5  501    0 -0.65296788661E+02  0.62363719899E+01 -0.21889854048E+02  0.69309585595E+02  0.47000000000E+01 0. -1.
        -11    1    6    6    0    0 -0.23346542417E+02  0.34415406015E+02  0.85986748149E+02  0.95515454620E+02  0.00000000000E+00 0.  1.
         12    1    6    6    0    0  0.33649516145E+02  0.10013275149E+02  0.59342123406E+01  0.35605764871E+02  0.00000000000E+00 0. -1.
         -5    1    3    3    0  503  0.51395250308E+02 -0.41077748374E+01 -0.26309542439E+03  0.26814107836E+03  0.47000000000E+01 0.  1.
         13    1    4    4    0    0  0.15623508024E+02  0.45730573410E+00  0.91314914635E+01  0.18102134345E+02  0.00000000000E+00 0. -1.
        -14    1    4    4    0    0 -0.12024943398E+02 -0.47014584050E+02 -0.38833169220E+02  0.62152919552E+02  0.00000000000E+00 0.  1.
</event>
<event>
12    1  0.8356052E-002  0.2098291E+03  0.7818608E-02  0.1141784E+00
         21   -1    0    0  503  502  0.00000000000E+00  0.00000000000E+00  0.50723641489E+03  0.50723641489E+03  0.00000000000E+00 0. -1.
         21   -1    0    0  501  503 -0.00000000000E+00 -0.00000000000E+00 -0.11888558064E+03  0.11888558064E+03  0.00000000000E+00 0.  1.
          6    2    1    2  501    0 -0.94188934486E+02  0.73696098459E+02  0.31245007973E+02  0.21214260040E+03  0.17241102655E+03 0.  0.
         24    2    3    3    0    0 -0.12628498916E+03  0.39467374515E+02 -0.17258709677E+01  0.15460190935E+03  0.79957486238E+02 0.  0.
         -6    2    1    2    0  502  0.94188934486E+02 -0.73696098459E+02  0.35710582628E+03  0.41397939513E+03  0.17190607354E+03 0.  0.
        -24    2    5    5    0    0  0.34410707506E+02  0.84297045044E+01  0.77379477588E+02  0.11634370492E+03  0.79329171263E+02 0.  0.
          5    1    3    3  501    0  0.32096054675E+02  0.34228723944E+02  0.32970878941E+02  0.57540691052E+02  0.47000000000E+01 0. -1.
        -11    1    4    4    0    0 -0.20458659017E+02  0.25852481116E+02 -0.29617370591E+02  0.44318124389E+02  0.00000000000E+00 0.  1.
         12    1    4    4    0    0 -0.10582633015E+03  0.13614893399E+02  0.27891499623E+02  0.11028378496E+03  0.00000000000E+00 0. -1.
         -5    1    5    5    0  502  0.59778226980E+02 -0.82125802964E+02  0.27972634869E+03  0.29763569021E+03  0.47000000000E+01 0.  1.
         13    1    6    6    0    0  0.20010174863E+02  0.31505515092E+02  0.80727597664E+02  0.88937897456E+02  0.00000000000E+00 0. -1.
        -14    1    6    6    0    0  0.14400532643E+02 -0.23075810587E+02 -0.33481200759E+01  0.27405807463E+02  0.00000000000E+00 0.  1.
</event>
<event>
12    1  0.8356052E-002  0.1730235E+03  0.7818608E-02  0.1175680E+00
         21   -1    0    0  501  502  0.00000000000E+00  0.00000000000E+00  0.92255401415E+02  0.92255401415E+02  0.00000000000E+00 0.  1.
         21   -1    0    0  502  503 -0.00000000000E+00 -0.00000000000E+00 -0.31767251923E+03  0.31767251923E+03  0.00000000000E+00 0.  1.
         -6    2    1    2    0  503  0.11125510381E+02  0.10966258161E+01 -0.11171564677E+03  0.20595511174E+03  0.17266193197E+03 0.  0.
        -24    2    3    3    0    0  0.10995482414E+02  0.19865370844E+02 -0.14526868371E+03  0.16722296766E+03  0.79655488530E+02 0.  0.
          6    2    1    2  501    0 -0.11125510381E+02 -0.10966258161E+01 -0.11370147105E+03  0.20397280890E+03  0.16897308272E+03 0.  0.
         24    2    5    5    0    0 -0.58105862623E+02 -0.29742756221E+02 -0.28019805583E+02  0.10203561216E+03  0.73247756446E+02 0.  0.
          5    1    5    5  501    0  0.46980352242E+02  0.28646130405E+02 -0.85681665465E+02  0.10193719675E+03  0.47000000000E+01 0. -1.
        -13    1    6    6    0    0 -0.53591159188E+02  0.36463179580E+01  0.61284999164E+01  0.54063541217E+02  0.00000000000E+00 0.  1.
         14    1    6    6    0    0 -0.45147034351E+01 -0.33389074179E+02 -0.34148305500E+02  0.47972070939E+02  0.00000000000E+00 0. -1.
         -5    1    3    3    0  503  0.13002796657E+00 -0.18768745028E+02  0.33553036944E+02  0.38732144084E+02  0.47000000000E+01 0.  1.
         11    1    4    4    0    0 -0.34327250176E+02  0.33720991955E+01 -0.64760190367E+02  0.73373110974E+02  0.00000000000E+00 0. -1.
        -12    1    4    4    0    0  0.45322732590E+02  0.16493271649E+02 -0.80508493346E+02  0.93849856686E+02  0.00000000000E+00 0.  1.
</event>
<event>
12    1  0.8356052E-002  0.2414357E+03  0.7818608E-02  0.1119252E+00
         21   -1    0    0  503  502  0.00000000000E+00  0.00000000000E+00  0.15148664768E+03  0.15148664768E+03  0.00000000000E+00 0. -1.
         21   -1    0    0  501  503 -0.00000000000E+00 -0.00000000000E+00 -0.46294659513E+03  0.46294659513E+03  0.00000000000E+00 0. -1.
          6    2    1    2  501    0  0.16104773504E+03  0.50427095312E+02 -0.28575809358E+03  0.37409745441E+03  0.17266138087E+03 0.  0.
         24    2    3    3    0    0  0.49960656251E+02 -0.26869692191E+02 -0.17028472811E+03  0.19613307436E+03  0.79077472762E+02 0.  0.
         -6    2    1    2    0  502 -0.16104773504E+03 -0.50427095312E+02 -0.25701853864E+02  0.24033578841E+03  0.16917872500E+03 0.  0.
        -24    2    5    5    0    0 -0.17066424713E+03 -0.81823302332E+02 -0.18600624910E+02  0.20641357485E+03  0.80244891321E+02 0.  0.
          5    1    3    3  501    0  0.11108707879E+03  0.77296787503E+02 -0.11547336547E+03  0.17796438005E+03  0.47000000000E+01 0. -1.
        -13    1    4    4    0    0 -0.15789992433E+02 -0.63586422385E+01 -0.84112254972E+02  0.85817408657E+02  0.00000000000E+00 0.  1.
         14    1    4    4    0    0  0.65750648684E+02 -0.20511049952E+02 -0.86172473140E+02  0.11031566570E+03  0.00000000000E+00 0. -1.
         -5    1    5    5    0  502  0.96165120850E+01  0.31396207020E+02 -0.71012289545E+01  0.33922213557E+02  0.47000000000E+01 0.  1.
         13    1    6    6    0    0 -0.73209234290E+02 -0.43769311073E+02  0.30838429006E+02  0.90699246307E+02  0.00000000000E+00 0. -1.
        -14    1    6    6    0    0 -0.97455012837E+02 -0.38053991259E+02 -0.49439053916E+02  0.11571432854E+03  0.00000000000E+00 0.  1.
</event>
<event>
12    1  0.8356052E-002  0.3395921E+03  0.7818608E-02  0.1067406E+00
         21   -1    0    0  503  502  0.00000000000E+00  0.00000000000E+00  0.15143635296E+03  0.15143635296E+03  0.00000000000E+00 0. -1.
         21   -1    0    0  501  503 -0.00000000000E+00 -0.00000000000E+00 -0.11920400073E+04  0.11920400073E+04  0.00000000000E+00 0.  1.
          6    2    1    2  501    0  0.22787931641E+03 -0.17758239021E+03 -0.11435790539E+03  0.35833014497E+03  0.17848886272E+03 0.  0.
         24    2    3    3    0    0  0.41353050223E+02 -0.55881701857E+02  0.29135474859E+01  0.10658068781E+03  0.80734843101E+02 0.  0.
         -6    2    1    2    0  502 -0.22787931641E+03  0.17758239021E+03 -0.92624574894E+03  0.98514621527E+03  0.17063818408E+03 0.  0.
        -24    2    5    5    0    0 -0.84401464364E+02  0.82911401414E+02 -0.25525654523E+03  0.29247234421E+03  0.79914082457E+02 0.  0.
          5    1    3    3  501    0  0.18652626618E+03 -0.12170068835E+03 -0.11727145287E+03  0.25174945716E+03  0.47000000000E+01 0. -1.
        -13    1    4    4    0    0  0.31293683700E+02 -0.69213463929E+02 -0.19696411692E+02  0.78471312352E+02  0.00000000000E+00 0.  1.
         14    1    4    4    0    0  0.10059366523E+02  0.13331762072E+02  0.22609959178E+02  0.28109375461E+02  0.00000000000E+00 0. -1.
         -5    1    5    5    0  502 -0.14347785204E+03  0.94670988795E+02 -0.67098920372E+03  0.69267387106E+03  0.47000000000E+01 0.  1.
         13    1    6    6    0    0 -0.38144120950E+01 -0.64482897820E+01  0.25924945480E+01  0.79278754231E+01  0.00000000000E+00 0. -1.
        -14    1    6    6    0    0 -0.80587052269E+02  0.89359691196E+02 -0.25784903978E+03  0.28454446879E+03  0.00000000000E+00 0.  1.
</event>
<event>
12    1  0.8356052E-002  0.1915772E+03  0.7818608E-02  0.1157314E+00
         21   -1    0    0  501  502  0.00000000000E+00  0.00000000000E+00  0.93134417172E+03  0.93134417172E+03  0.00000000000E+00 0. -1.
         21   -1    0    0  502  503 -0.00000000000E+00 -0.00000000000E+00 -0.43391330634E+02  0.43391330634E+02  0.00000000000E+00 0. -1.
         -6    2    1    2    0  503 -0.39287544557E+02  0.73931783029E+02  0.29056772177E+03  0.34738327599E+03  0.17098572982E+03 0.  0.
        -24    2    3    3    0    0  0.31114552251E+02  0.47111206257E+02  0.85308468533E+02  0.12868428282E+03  0.78067462652E+02 0.  0.
          6    2    1    2  501    0  0.39287544557E+02 -0.73931783029E+02  0.59738511932E+03  0.62735222637E+03  0.17231487297E+03 0.  0.
         24    2    5    5    0    0  0.92224545460E+02 -0.56023337966E+02  0.38019959277E+03  0.40304288325E+03  0.79043369174E+02 0.  0.
          5    1    5    5  501    0 -0.52937000903E+02 -0.17908445062E+02  0.21718552655E+03  0.22430934312E+03  0.47000000000E+01 0. -1.
        -11    1    6    6    0    0  0.48031594367E+01  0.31563802597E+01 -0.23386867801E+01  0.62050409163E+01  0.00000000000E+00 0.  1.
         12    1    6    6    0    0  0.87421386023E+02 -0.59179718226E+02  0.38253827955E+03  0.39683784233E+03  0.00000000000E+00 0. -1.
         -5    1    3    3    0  503 -0.70402096808E+02  0.26820576772E+02  0.20525925323E+03  0.21869899316E+03  0.47000000000E+01 0.  1.
         11    1    4    4    0    0 -0.23571210328E+02  0.31203050048E+02  0.29910612660E+02  0.49232885741E+02  0.00000000000E+00 0. -1.
        -12    1    4    4    0    0  0.54685762579E+02  0.15908156209E+02  0.55397855872E+02  0.79451397080E+02  0.00000000000E+00 0.  1.
</event>
<event>
12    1  0.8356052E-002  0.1818872E+03  0.7818608E-02  0.1166172E+00
         21   -1    0    0  501  502  0.00000000000E+00  0.00000000000E+00  0.29943736238E+02  0.29943736238E+02  0.00000000000E+00 0. -1.
         21   -1    0    0  502  503 -0.00000000000E+00 -0.00000000000E+00 -0.16094355425E+04  0.16094355425E+04  0.00000000000E+00 0. -1.
         -6    2    1    2    0  503  0.52092880299E+02 -0.27642249559E+02 -0.12496872364E+04  0.12627441805E+04  0.17125102808E+03 0.  0.
        -24    2    3    3    0    0  0.98970285132E+02 -0.55600898320E+01 -0.88827263972E+03  0.89760350418E+03  0.82690605940E+02 0.  0.
          6    2    1    2  501    0 -0.52092880299E+02  0.27642249559E+02 -0.32980456986E+03  0.37663509816E+03  0.17206156087E+03 0.  0.
         24    2    5    5    0    0 -0.68666974827E+01  0.77102511008E+02 -0.18341948272E+03  0.21556862489E+03  0.82675127204E+02 0.  0.
          5    1    5    5  501    0 -0.45226182816E+02 -0.49460261448E+02 -0.14638508714E+03  0.16106647327E+03  0.47000000000E+01 0. -1.
        -13    1    6    6    0    0 -0.79332587437E+01  0.12150689628E+02  0.57098502964E+01  0.15594173371E+02  0.00000000000E+00 0.  1.
         14    1    6    6    0    0  0.10665612609E+01  0.64951821380E+02 -0.18912933302E+03  0.19997445152E+03  0.00000000000E+00 0. -1.
         -5    1    3    3    0  503 -0.46877404833E+02 -0.22082159727E+02 -0.36141459665E+03  0.36514067636E+03  0.47000000000E+01 0.  1.
         13    1    4    4    0    0  0.25083199651E+02  0.36127930440E+02 -0.33139909644E+03  0.33430488388E+03  0.00000000000E+00 0. -1.
        -14    1    4    4    0    0  0.73887085481E+02 -0.41688020272E+02 -0.55687354327E+03  0.56329862030E+03  0.00000000000E+00 0.  1.
</event>
<event>
12    1  0.8356052E-002  0.3207284E+03  0.7818608E-02  0.1075699E+00
         21   -1    0    0  501  502  0.00000000000E+00  0.00000000000E+00  0.33300449379E+03  0.33300449379E+03  0.00000000000E+00 0. -1.
         21   -1    0    0  502  503 -0.00000000000E+00 -0.00000000000E+00 -0.33788948352E+03  0.33788948352E+03  0.00000000000E+00 0.  1.
         -6    2    1    2    0  503 -0.21974659794E+03 -0.15067001404E+03  0.10110125696E+03  0.33310732647E+03  0.17247900265E+03 0.  0.
        -24    2    3    3    0    0 -0.10178978473E+03 -0.10950221280E+03  0.11941613198E+03  0.20675020444E+03  0.78316917555E+02 0.  0.
          6    2    1    2  501    0  0.21974659794E+03  0.15067001404E+03 -0.10598624669E+03  0.33778665084E+03  0.17854051800E+03 0.  0.
         24    2    5    5    0    0  0.13913455262E+03  0.12775866015E+03 -0.13875683522E+03  0.24767986164E+03  0.80069691931E+02 0.  0.
          5    1    5    5  501    0  0.80612045318E+02  0.22911353881E+02  0.32770588535E+02  0.90106789200E+02  0.47000000000E+01 0. -1.
        -13    1    6    6    0    0  0.50530560381E+02  0.19893916183E+02 -0.78934104126E+02  0.95810741714E+02  0.00000000000E+00 0.  1.
         14    1    6    6    0    0  0.88603992238E+02  0.10786474397E+03 -0.59822731098E+02  0.15186911993E+03  0.00000000000E+00 0. -1.
         -5    1    3    3    0  503 -0.11795681320E+03 -0.41167801232E+02 -0.18314875025E+02  0.12635712202E+03  0.47000000000E+01 0.  1.
         13    1    4    4    0    0 -0.44555636081E+02 -0.81443734919E+02  0.10726704279E+03  0.14186086540E+03  0.00000000000E+00 0. -1.
        -14    1    4    4    0    0 -0.57234148654E+02 -0.28058477885E+02  0.12149089195E+02  0.64889339044E+02  0.00000000000E+00 0.  1.
</event>
<event>
12    1  0.8356052E-002  0.2402289E+03  0.7818608E-02  0.1119909E+00
         21   -1    0    0  503  502  0.00000000000E+00  0.00000000000E+00  0.72824972593E+03  0.72824972593E+03  0.00000000000E+00 0.  1.
         21   -1    0    0  501  503 -0.00000000000E+00 -0.00000000000E+00 -0.18545752648E+03  0.18545752648E+03  0.00000000000E+00 0. -1.
          6    2    1    2  501    0  0.67570667468E+02 -0.15126486389E+03 -0.74812990504E+02  0.25160867999E+03  0.17396289877E+03 0.  0.
         24    2    3    3    0    0 -0.71955333516E+01 -0.11654271320E+03 -0.89451083055E+02  0.16775180021E+03  0.80654761252E+02 0.  0.
         -6    2    1    2    0  502 -0.67570667468E+02  0.15126486389E+03  0.61760518996E+03  0.66209857242E+03  0.17173087894E+03 0.  0.
        -24    2    5    5    0    0 -0.20376260839E+02  0.72429382965E+02  0.16219024149E+03  0.19748345174E+03  0.83861980389E+02 0.  0.
          5    1    3    3  501    0  0.74766200819E+02 -0.34722150689E+02  0.14638092551E+02  0.83856879783E+02  0.47000000000E+01 0. -1.
        -13    1    4    4    0    0  0.22600243047E+02 -0.27066168621E+02  0.33777290945E+01  0.35422556704E+02  0.00000000000E+00 0.  1.
         14    1    4    4    0    0 -0.29795776398E+02 -0.89476544583E+02 -0.92828812149E+02  0.13232924351E+03  0.00000000000E+00 0. -1.
         -5    1    5    5    0  502 -0.47194406628E+02  0.78835480928E+02  0.45541494847E+03  0.46461512068E+03  0.47000000000E+01 0.  1.
         13    1    6    6    0    0 -0.22513164227E+02  0.76206291782E+02  0.72125298414E+02  0.10731402584E+03  0.00000000000E+00 0. -1.
        -14    1    6    6    0    0  0.21369033871E+01 -0.37769088167E+01  0.90064943074E+02  0.90169425900E+02  0.00000000000E+00 0.  1.
</event>
<event>
12    1  0.8356052E-002  0.1836253E+03  0.7818608E-02  0.1164587E+00
         21   -1    0    0  501  502  0.00000000000E+00  0.00000000000E+00  0.13059993433E+03  0.13059993433E+03  0.00000000000E+00 0.  1.
         21   -1    0    0  502  503 -0.00000000000E+00 -0.00000000000E+00 -0.41859460361E+03  0.41859460361E+03  0.00000000000E+00 0.  1.
         -6    2    1    2    0  503  0.43491860280E+02  0.49270344348E+02 -0.31451000914E+03  0.36366472759E+03  0.17034194874E+03 0.  0.
        -24    2    3    3    0    0  0.30004471084E+02  0.95472601185E+02 -0.18736689163E+03  0.22763524352E+03  0.81830105424E+02 0.  0.
          6    2    1    2  501    0 -0.43491860280E+02 -0.49270344348E+02  0.26515339866E+02  0.18552981035E+03  0.17146176991E+03 0.  0.
         24    2    5    5    0    0 -0.26758083679E+02 -0.96575013717E+02  0.39327982453E+02  0.13352976388E+03  0.78998603286E+02 0.  0.
          5    1    5    5  501    0 -0.16733776601E+02  0.47304669369E+02 -0.12812642587E+02  0.52000046476E+02  0.47000000000E+01 0. -1.
        -13    1    6    6    0    0 -0.17197226314E+02 -0.80251072999E+02  0.62828824457E+02  0.10336072994E+03  0.00000000000E+00 0.  1.
         14    1    6    6    0    0 -0.95608573654E+01 -0.16323940717E+02 -0.23500842004E+02  0.30169033942E+02  0.00000000000E+00 0. -1.
         -5    1    3    3    0  503  0.13487389196E+02 -0.46202256837E+02 -0.12714311751E+03  0.13602948406E+03  0.47000000000E+01 0.  1.
         11    1    4    4    0    0  0.20703427330E+02  0.82868475081E+01 -0.17712761105E+01  0.22370542325E+02  0.00000000000E+00 0. -1.
        -12    1    4    4    0    0  0.93010437533E+01  0.87185753677E+02 -0.18559561551E+03  0.20526470120E+03  0.00000000000E+00 0.  1.
</event>
<event>
12    1  0.8356052E-002  0.2006258E+03  0.7818608E-02  0.1149826E+00
         21   -1    0    0  503  502  0.00000000000E+00  0.00000000000E+00  0.39218104868E+03  0.39218104868E+03  0.00000000000E+00 0.  1.
         21   -1    0    0  501  503 -0.00000000000E+00 -0.00000000000E+00 -0.25722483999E+03  0.25722483999E+03  0.00000000000E+00 0.  1.
          6    2    1    2  501    0  0.81378913728E+02  0.53236679528E+02 -0.18524943943E+03  0.27307156209E+03  0.17548233975E+03 0.  0.
         24    2    3    3    0    0 -0.25643211057E+02  0.32480021067E+02 -0.11062363502E+03  0.14087596932E+03  0.76784920818E+02 0.  0.
         -6    2    1    2    0  502 -0.81378913728E+02 -0.53236679528E+02  0.32020564813E+03  0.37633432658E+03  0.17216038052E+03 0.  0.
        -24    2    5    5    0    0 -0.63200747206E+02 -0.64803883000E+02  0.33082961649E+03  0.35185566980E+03  0.78487575602E+02 0.  0.
          5    1    3    3  501    0  0.10702212478E+03  0.20756658461E+02 -0.74625804418E+02  0.13219559277E+03  0.47000000000E+01 0. -1.
        -11    1    4    4    0    0  0.71477339585E+01 -0.18616326138E+02 -0.76932787524E+01  0.21373914886E+02  0.00000000000E+00 0.  1.
         12    1    4    4    0    0 -0.32790945016E+02  0.51096347204E+02 -0.10293035626E+03  0.11950205443E+03  0.00000000000E+00 0. -1.
         -5    1    5    5    0  502 -0.18178166521E+02  0.11567203472E+02 -0.10623968357E+02  0.24478656782E+02  0.47000000000E+01 0.  1.
         13    1    6    6    0    0  0.15458210591E+01 -0.22362386709E+02  0.15727997119E+02  0.27383129760E+02  0.00000000000E+00 0. -1.
        -14    1    6    6    0    0 -0.64746568266E+02 -0.42441496291E+02  0.31510161937E+03  0.32447254004E+03  0.00000000000E+00 0.  1.
</event>
<event>
12    1  0.8356052E-002  0.1995222E+03  0.7818608E-02  0.1150512E+00
         21   -1    0    0  501  502  0.00000000000E+00  0.00000000000E+00  0.26749601746E+03  0.26749601746E+03  0.00000000000E+00 0. -1.
         21   -1    0    0  502  503 -0.00000000000E+00 -0.00000000000E+00 -0.16344989842E+03  0.16344989842E+03  0.00000000000E+00 0. -1.
         -6    2    1    2    0  503  0.23469707964E+02 -0.94190391143E+02 -0.15427958991E+02  0.19838808127E+03  0.17232861601E+03 0.  0.
        -24    2    3    3    0    0  0.24113700183E+02 -0.33671646505E+02 -0.72140929236E+02  0.11531351132E+03  0.79860139665E+02 0.  0.
          6    2    1    2  501    0 -0.23469707964E+02  0.94190391143E+02  0.11947407803E+03  0.23255783460E+03  0.17431705062E+03 0.  0.
         24    2    5    5    0    0  0.36714242693E+02  0.40383134388E+02  0.11732356487E+03  0.15166257205E+03  0.79107418916E+02 0.  0.
          5    1    5    5  501    0 -0.60183950657E+02  0.53807256754E+02  0.21505131630E+01  0.80895262550E+02  0.47000000000E+01 0. -1.
        -13    1    6    6    0    0  0.48244646021E+02  0.17138006773E+02  0.27397710660E+02  0.58067992003E+02  0.00000000000E+00 0.  1.
         14    1    6    6    0    0 -0.11530403328E+02  0.23245127616E+02  0.89925854212E+02  0.93594580049E+02  0.00000000000E+00 0. -1.
         -5    1    3    3    0  503 -0.64399221934E+00 -0.60518744638E+02  0.56712970245E+02  0.83074569951E+02  0.47000000000E+01 0.  1.
         13    1    4    4    0    0  0.46170167043E+02 -0.23155911451E+02 -0.15979786794E+02  0.54066941340E+02  0.00000000000E+00 0. -1.
        -14    1    4    4    0    0 -0.22056466859E+02 -0.10515735053E+02 -0.56161142443E+02  0.61246569981E+02  0.00000000000E+00 0.  1.
</event>
<event>
12    1  0.8356052E-002  0.1849263E+03  0.7818608E-02  0.1163137E+00
         21   -1    0    0  501  502  0.00000000000E+00  0.00000000000E+00  0.30502318117E+02  0.30502318117E+02  0.00000000000E+00 0. -1.
         21   -1    0    0  502  503 -0.00000000000E+00 -0.00000000000E+00 -0.21570367655E+04  0.21570367655E+04  0.00000000000E+00 0. -1.
         -6    2    1    2    0  503  0.26450059230E+02 -0.61439261507E+02 -0.18212961747E+04  0.18306523462E+04  0.17231908775E+03 0.  0.
        -24    2    3    3    0    0 -0.45628667223E+02 -0.63106194793E+02 -0.12374127931E+04  0.12423156952E+04  0.78060867711E+02 0.  0.
          6    2    1    2  501    0 -0.26450059230E+02  0.61439261507E+02 -0.30523827267E+03  0.35688673745E+03  0.17240461647E+03 0.  0.
         24    2    5    5    0    0  0.48482265190E+02  0.55894277011E+02 -0.21262083755E+03  0.23753147203E+03  0.75755391912E+02 0.  0.
          5    1    5    5  501    0 -0.74932324420E+02  0.55449844963E+01 -0.92617435121E+02  0.11935526542E+03  0.47000000000E+01 0. -1.
        -13    1    6    6    0    0  0.23741299695E+02 -0.16402259536E+02 -0.70362962552E+02  0.76050180330E+02  0.00000000000E+00 0.  1.
         14    1    6    6    0    0  0.24740965495E+02  0.72296536546E+02 -0.14225787500E+03  0.16148129170E+03  0.00000000000E+00 0. -1.
         -5    1    3    3    0  503  0.72078726453E+02  0.16669332855E+01 -0.58388338165E+03  0.58833665094E+03  0.47000000000E+01 0.  1.
         13    1    4    4    0    0 -0.12797220323E+02 -0.31581934992E+02 -0.99993108411E+03  0.10005115494E+04  0.00000000000E+00 0. -1.
        -14    1    4    4    0    0 -0.32831446899E+02 -0.31524259801E+02 -0.23748170896E+03  0.24180414585E+03  0.00000000000E+00 0.  1.
</event>
<event>
12    1  0.8356052E-002  0.2454931E+03  0.7818608E-02  0.1116282E+00
         21   -1    0    0  501  502  0.00000000000E+00  0.00000000000E+00  0.71599516714E+03  0.71599516714E+03  0.00000000000E+00 0. -1.
         21   -1    0    0  502  503 -0.00000000000E+00 -0.00000000000E+00 -0.15361689691E+03  0.15361689691E+03  0.00000000000E+00 0. -1.
         -6    2    1    2    0  503 -0.14445731288E+03  0.94959127966E+02 -0.11394584693E+02  0.24575741124E+03  0.17430352088E+03 0.  0.
        -24    2    3    3    0    0 -0.48030485191E+02 -0.29163218311E+02  0.68780914279E+01  0.87452418787E+02  0.66657307177E+02 0.  0.
          6    2    1    2  501    0  0.14445731288E+03 -0.94959127966E+02  0.57377285493E+03  0.62385465280E+03  0.17347676369E+03 0.  0.
         24    2    5    5    0    0  0.73751275254E+02 -0.45526938265E+02  0.14670366108E+03  0.18813332962E+03  0.79751067906E+02 0.  0.
          5    1    5    5  501    0  0.70706037630E+02 -0.49432189701E+02  0.42706919385E+03  0.43572132317E+03  0.47000000000E+01 0. -1.
        -11    1    6    6    0    0 -0.13925308057E+02 -0.42821567841E+01  0.46568815144E+02  0.48794524438E+02  0.00000000000E+00 0.  1.
         12    1    6    6    0    0  0.87676583310E+02 -0.41244781480E+02  0.10013484594E+03  0.13933880519E+03  0.00000000000E+00 0. -1.
         -5    1    3    3    0  503 -0.96426827693E+02  0.12412234628E+03 -0.18272676121E+02  0.15830499246E+03  0.47000000000E+01 0.  1.
         11    1    4    4    0    0  0.46856616908E+01  0.14328441267E+02  0.11491673585E+02  0.18955690871E+02  0.00000000000E+00 0. -1.
        -12    1    4    4    0    0 -0.52716146882E+02 -0.43491659578E+02 -0.46135821569E+01  0.68496727916E+02  0.00000000000E+00 0.  1.
</event>
<event>
12    1  0.8356052E-002  0.1739842E+03  0.7818608E-02  0.1173802E+00
         21   -1    0    0  503  502  0.00000000000E+00  0.00000000000E+00  0.89908623805E+02  0.89908623805E+02  0.00000000000E+00 0. -1.
         21   -1    0    0  501  503 -0.00000000000E+00 -0.00000000000E+00 -0.33935139084E+03  0.33935139084E+03  0.00000000000E+00 0. -1.
          6    2    1    2  501    0  0.13243350507E+02 -0.27659093937E+02 -0.10437781372E+03  0.20273329909E+03  0.17107206304E+03 0.  0.
         24    2    3    3    0    0 -0.50279936781E+02 -0.40617303788E+02 -0.88379571910E+02  0.13579185474E+03  0.80315886808E+02 0.  0.
         -6    2    1    2    0  502 -0.13243350507E+02  0.27659093937E+02 -0.14506495332E+03  0.22652671556E+03  0.17126032923E+03 0.  0.
        -24    2    5    5    0    0  0.23509365391E+02  0.12219267033E+00 -0.69189560679E+01  0.80871473240E+02  0.77068917463E+02 0.  0.
          5    1    3    3  501    0  0.63523287288E+02  0.12958209851E+02 -0.15998241807E+02  0.66941444348E+02  0.47000000000E+01 0. -1.
        -11    1    4    4    0    0 -0.25904925047E+02  0.23123667496E+02 -0.33035595438E+02  0.47928276686E+02  0.00000000000E+00 0.  1.
         12    1    4    4    0    0 -0.24375011734E+02 -0.63740971283E+02 -0.55343976472E+02  0.87863578057E+02  0.00000000000E+00 0. -1.
         -5    1    5    5    0  502 -0.36752715899E+02  0.27536901267E+02 -0.13814599726E+03  0.14565524232E+03  0.47000000000E+01 0.  1.
         11    1    6    6    0    0 -0.16345065896E+02  0.22223145440E+02 -0.19275528786E+02  0.33653757329E+02  0.00000000000E+00 0. -1.
        -12    1    6    6    0    0  0.39854431287E+02 -0.22100952770E+02  0.12356572718E+02  0.47217715911E+02  0.00000000000E+00 0.  1.
</event>
<event>
12    1  0.8356052E-002  0.1874765E+03  0.7818608E-02  0.1161423E+00
         21   -1    0    0  501  502  0.00000000000E+00  0.00000000000E+00  0.26494243135E+03  0.26494243135E+03  0.00000000000E+00 0.  1.
         21   -1    0    0  502  503 -0.00000000000E+00 -0.00000000000E+00 -0.28881930993E+03  0.28881930993E+03  0.00000000000E+00 0. -1.
         -6    2    1    2    0  503  0.32567258117E+02  0.66491855023E+02 -0.21680562646E+03  0.28474698833E+03  0.16909871262E+03 0.  0.
        -24    2    3    3    0    0 -0.39298125294E+02  0.61671474647E+02 -0.94031938505E+02  0.14232740451E+03  0.77893332061E+02 0.  0.
          6    2    1    2  501    0 -0.32567258117E+02 -0.66491855023E+02  0.19292874788E+03  0.26901475295E+03  0.17223716923E+03 0.  0.
         24    2    5    5    0    0 -0.46508961026E+01 -0.10702771129E+03  0.11471216690E+03  0.17648150243E+03  0.80686291568E+02 0.  0.
          5    1    5    5  501    0 -0.27916362014E+02  0.40535856271E+02  0.78216580980E+02  0.92533250521E+02  0.47000000000E+01 0. -1.
        -13    1    6    6    0    0 -0.15448034347E+02 -0.23274614528E+01  0.51241308535E+02  0.53569865992E+02  0.00000000000E+00 0.  1.
         14    1    6    6    0    0  0.10797138244E+02 -0.10470024984E+03  0.63470858362E+02  0.12291163644E+03  0.00000000000E+00 0. -1.
         -5    1    3    3    0  503  0.71865383411E+02  0.48203803760E+01 -0.12277368796E+03  0.14241958382E+03  0.47000000000E+01 0.  1.
         11    1    4    4    0    0  0.19354649026E+02  0.39669779755E+02 -0.36562473619E+02  0.57315864661E+02  0.00000000000E+00 0. -1.
        -12    1    4    4    0    0 -0.58652774321E+02  0.22001694892E+02 -0.57469464886E+02  0.85011539851E+02  0.00000000000E+00 0.  1.
</event>
<event>
12    1  0.8356052E-002  0.2000580E+03  0.7818608E-02  0.1149843E+00
         21   -1    0    0  501  502  0.00000000000E+00  0.00000000000E+00  0.34798810812E+02  0.34798810812E+02  0.00000000000E+00 0. -1.
         21   -1    0    0  502  503 -0.00000000000E+00 -0.00000000000E+00 -0.15586721808E+04  0.15586721808E+04  0.00000000000E+00 0.  1.
         -6    2    1    2    0  503 -0.94936318288E+02 -0.36527886407E+02 -0.11708939724E+04  0.11877399963E+04  0.17142465750E+03 0.  0.
        -24    2    3    3    0    0 -0.32578929584E+02  0.43175385640E+02 -0.65714782243E+03  0.66410056682E+03  0.79125228260E+02 0.  0.
          6    2    1    2  501    0  0.94936318288E+02  0.36527886407E+02 -0.35297939758E+03  0.40573099530E+03  0.17226721806E+03 0.  0.
         24    2    5    5    0    0  0.55134158749E+02  0.52782391637E+02 -0.98712092348E+02  0.14781167971E+03  0.79236728577E+02 0.  0.
          5    1    5    5  501    0  0.39802159539E+02 -0.16254505230E+02 -0.25426730523E+03  0.25791931559E+03  0.47000000000E+01 0. -1.
        -13    1    6    6    0    0  0.22865042623E+02  0.43606609528E+02 -0.10283120229E+03  0.11401141493E+03  0.00000000000E+00 0.  1.
         14    1    6    6    0    0  0.32269116126E+02  0.91757821090E+01  0.41191099435E+01  0.33800264786E+02  0.00000000000E+00 0. -1.
         -5    1    3    3    0  503 -0.62357388704E+02 -0.79703272048E+02 -0.51374614997E+03  0.52363942949E+03  0.47000000000E+01 0.  1.
         13    1    4    4    0    0 -0.43273691485E+02  0.84591711261E+00 -0.18763851637E+03  0.19256567912E+03  0.00000000000E+00 0. -1.
        -14    1    4    4    0    0  0.10694761901E+02  0.42329468528E+02 -0.46950930606E+03  0.47153488770E+03  0.00000000000E+00 0.  1.
</event>
<event>
12    1  0.8356052E-002  0.1799245E+03  0.7818608E-02  0.1168660E+00
         21   -1    0    0  501  502  0.00000000000E+00  0.00000000000E+00  0.82056417712E+03  0.82056417712E+03  0.00000000000E+00 0. -1.
         21   -1    0    0  502  503 -0.00000000000E+00 -0.00000000000E+00 -0.39372295834E+02  0.39372295834E+02  0.00000000000E+00 0. -1.
         -6    2    1    2    0  503  0.39684994407E+02  0.29647501284E+01  0.44112719569E+03  0.47520693915E+03  0.17217649002E+03 0.  0.
        -24    2    3    3    0    0  0.89910252009E+01 -0.19739152663E+02  0.82754702462E+02  0.11477591822E+03  0.76515997944E+02 0.  0.
          6    2    1    2  501    0 -0.39684994407E+02 -0.29647501284E+01  0.34006468559E+03  0.38472953380E+03  0.17546833124E+03 0.  0.
         24    2    5    5    0    0 -0.42221759945E+02  0.39329593942E+02  0.93244401457E+02  0.13425480577E+03  0.77461864795E+02 0.  0.
          5    1    5    5  501    0  0.25367655378E+01 -0.42294344071E+02  0.24682028414E+03  0.25047472803E+03  0.47000000000E+01 0. -1.
        -11    1    6    6    0    0  0.97086668175E+01  0.43290233532E+02  0.46559375475E+02  0.64312346989E+02  0.00000000000E+00 0.  1.
         12    1    6    6    0    0 -0.51930426763E+02 -0.39606395903E+01  0.46685025982E+02  0.69942458783E+02  0.00000000000E+00 0. -1.
         -5    1    3    3    0  503  0.30693969207E+02  0.22703902791E+02  0.35837249323E+03  0.36043102093E+03  0.47000000000E+01 0.  1.
         13    1    4    4    0    0  0.70541074819E+01  0.16767152853E+02 -0.57013544594E+01  0.19063139559E+02  0.00000000000E+00 0. -1.
        -14    1    4    4    0    0  0.19369177190E+01 -0.36506305516E+02  0.88456056922E+02  0.95712778660E+02  0.00000000000E+00 0.  1.
</event>
<event>
12    1  0.8356052E-002  0.1854148E+03  0.7818608E-02  0.1162855E+00
         21   -1    0    0  501  502  0.00000000000E+00  0.00000000000E+00  0.30381436971E+03  0.30381436971E+03  0.00000000000E+00 0. -1.
         21   -1    0    0  502  503 -0.00000000000E+00 -0.00000000000E+00 -0.26233296938E+03  0.26233296938E+03  0.00000000000E+00 0.  1.
         -6    2    1    2    0  503  0.63427299675E+02  0.28868999073E+02 -0.19309969034E+03  0.26713741967E+03  0.17093410756E+03 0.  0.
        -24    2    3    3    0    0 -0.91955960198E+01  0.49209225250E+02 -0.15856990843E+03  0.18405790583E+03  0.78910012070E+02 0.  0.
          6    2    1    2  501    0 -0.63427299675E+02 -0.28868999073E+02  0.23458109068E+03  0.29900991942E+03  0.17182026179E+03 0.  0.
         24    2    5    5    0    0 -0.53409247157E+02  0.33529218277E+02  0.20663462086E+03  0.22974958388E+03  0.78168079126E+02 0.  0.
          5    1    5    5  501    0 -0.10018052518E+02 -0.62398217350E+02  0.27946469814E+02  0.69260335545E+02  0.47000000000E+01 0. -1.
        -11    1    6    6    0    0  0.12453507792E+01  0.36277662415E+02  0.38411948261E+02  0.52849763084E+02  0.00000000000E+00 0.  1.
         12    1    6    6    0    0 -0.54654597936E+02 -0.27484441373E+01  0.16822267260E+03  0.17689982080E+03  0.00000000000E+00 0. -1.
         -5    1    3    3    0  503  0.72622895695E+02 -0.20340226177E+02 -0.34529781909E+02  0.83079513833E+02  0.47000000000E+01 0.  1.
         13    1    4    4    0    0 -0.95510565064E+01 -0.11655622565E+02 -0.95533354513E+00  0.15099300645E+02  0.00000000000E+00 0. -1.
        -14    1    4    4    0    0  0.35546048659E+00  0.60864847816E+02 -0.15761457488E+03  0.16895860519E+03  0.00000000000E+00 0.  1.
</event>
<event>
12    1  0.8356052E-002  0.2385431E+03  0.7818608E-02  0.1120964E+00
         21   -1    0    0  501  502  0.00000000000E+00  0.00000000000E+00  0.14736258013E+03  0.14736258013E+03  0.00000000000E+00 0. -1.
         21   -1    0    0  502  503 -0.00000000000E+00 -0.00000000000E+00 -0.76698899793E+03  0.76698899793E+03  0.00000000000E+00 0. -1.
         -6    2    1    2    0  503 -0.25384850928E+02 -0.16085090717E+03 -0.63238455591E+03  0.67546749769E+03  0.17270989807E+03 0.  0.
        -24    2    3    3    0    0 -0.19010497956E+02 -0.15947347444E+03 -0.35192830096E+03  0.39489606180E+03  0.79348487868E+02 0.  0.
          6    2    1    2  501    0  0.25384850928E+02  0.16085090717E+03  0.12758138111E+02  0.23888408037E+03  0.17431416688E+03 0.  0.
         24    2    5    5    0    0 -0.26614162690E+02  0.57676075354E+02  0.56855282885E+02  0.11512790269E+03  0.77376142720E+02 0.  0.
          5    1    5    5  501    0  0.51999013618E+02  0.10317483182E+03 -0.44097144774E+02  0.12375617768E+03  0.47000000000E+01 0. -1.
        -13    1    6    6    0    0 -0.38003498292E+02  0.70937231576E+01  0.49425966277E+02  0.62749605044E+02  0.00000000000E+00 0.  1.
         14    1    6    6    0    0  0.11389335602E+02  0.50582352196E+02  0.74293166079E+01  0.52378297647E+02  0.00000000000E+00 0. -1.
         -5    1    3    3    0  503 -0.63743529722E+01 -0.13774327245E+01 -0.28045625495E+03  0.28057143589E+03  0.47000000000E+01 0.  1.
         13    1    4    4    0    0 -0.45176662107E+02 -0.57785832611E+02 -0.16318914007E+03  0.17891570274E+03  0.00000000000E+00 0. -1.
        -14    1    4    4    0    0  0.26166164151E+02 -0.10168764183E+03 -0.18873916088E+03  0.21598035906E+03  0.00000000000E+00 0.  1.
</event>
<event>
12    1  0.8356052E-002  0.2025180E+03  0.7818608E-02  0.1148631E+00
         21   -1    0    0  503  502  0.00000000000E+00  0.00000000000E+00  0.61761781707E+03  0.61761781707E+03  0.00000000000E+00 0.  1.
         21   -1    0    0  501  503 -0.00000000000E+00 -0.00000000000E+00 -0.70417829105E+02  0.70417829105E+02  0.00000000000E+00 0.  1.
          6    2    1    2  501    0 -0.48367396276E+02 -0.87315756594E+02  0.17991435376E+03  0.27089245028E+03  0.17621038153E+03 0.  0.
         24    2    3    3    0    0 -0.92533839325E+02 -0.70947245437E+02  0.85705507999E+02  0.16546000997E+03  0.80221928074E+02 0.  0.
         -6    2    1    2    0  502  0.48367396276E+02  0.87315756594E+02  0.36728563420E+03  0.41714319589E+03  0.17072276478E+03 0.  0.
        -24    2    5    5    0    0  0.56826499245E+02  0.10603403712E+03  0.19178206137E+03  0.24037915960E+03  0.80804166115E+02 0.  0.
          5    1    3    3  501    0  0.44166443049E+02 -0.16368511157E+02  0.94208845760E+02  0.10543244030E+03  0.47000000000E+01 0. -1.
        -11    1    4    4    0    0 -0.33631446581E+01 -0.67123767690E+01  0.49033680312E+02  0.49605126235E+02  0.00000000000E+00 0.  1.
         12    1    4    4    0    0 -0.89170694667E+02 -0.64234868668E+02  0.36671827687E+02  0.11585488374E+03  0.00000000000E+00 0. -1.
         -5    1    5    5    0  502 -0.84591029691E+01 -0.18718280530E+02  0.17550357284E+03  0.17676403629E+03  0.47000000000E+01 0.  1.
         11    1    6    6    0    0  0.79941560444E+00  0.52168087694E+02  0.13319678441E+03  0.14305080153E+03  0.00000000000E+00 0. -1.
        -12    1    6    6    0    0  0.56027083641E+02  0.53865949430E+02  0.58585276953E+02  0.97328358072E+02  0.00000000000E+00 0.  1.
</event>
<event>
12    1  0.8356052E-002  0.2848768E+03  0.7818608E-02  0.1093345E+00
         21   -1    0    0  503  502  0.00000000000E+00  0.00000000000E+00  0.83712935345E+02  0.83712935345E+02  0.00000000000E+00 0.  1.
         21   -1    0    0  501  503 -0.00000000000E+00 -0.00000000000E+00 -0.10804523555E+04  0.10804523555E+04  0.00000000000E+00 0.  1.
          6    2    1    2  501    0  0.18052131229E+03 -0.13507834654E+03 -0.68933890410E+03  0.74505925955E+03  0.17056104964E+03 0.  0.
         24    2    3    3    0    0  0.15911475065E+03 -0.35636834184E+02 -0.43773612602E+03  0.47363173111E+03  0.78272682781E+02 0.  0.
         -6    2    1    2    0  502 -0.18052131229E+03  0.13507834654E+03 -0.30740051602E+03  0.41910603125E+03  0.17412835579E+03 0.  0.
        -24    2    5    5    0    0 -0.10344529607E+03  0.11961446252E+03 -0.11442639512E+03  0.21068111594E+03  0.79275366866E+02 0.  0.
          5    1    3    3  501    0  0.21406561639E+02 -0.99441512352E+02 -0.25160277808E+03  0.27142752845E+03  0.47000000000E+01 0. -1.
        -11    1    4    4    0    0  0.52837967325E+02 -0.47666883477E+02 -0.13586517302E+03  0.15337316522E+03  0.00000000000E+00 0.  1.
         12    1    4    4    0    0  0.10627678332E+03  0.12030049293E+02 -0.30187095300E+03  0.32025856588E+03  0.00000000000E+00 0. -1.
         -5    1    5    5    0  502 -0.77076016222E+02  0.15463884016E+02 -0.19297412090E+03  0.20842491531E+03  0.47000000000E+01 0.  1.
         11    1    6    6    0    0  0.13212180007E+01  0.15304279335E+02  0.92500677757E+01  0.17931267017E+02  0.00000000000E+00 0. -1.
        -12    1    6    6    0    0 -0.10476651407E+03  0.10431018319E+03 -0.12367646290E+03  0.19274984893E+03  0.00000000000E+00 0.  1.
</event>
<event>
12    1  0.8356052E-002  0.1989330E+03  0.7818608E-02  0.1151037E+00
         21   -1    0    0  501  502  0.00000000000E+00  0.00000000000E+00  0.19467745614E+03  0.19467745614E+03  0.00000000000E+00 0.  1.
         21   -1    0    0  502  503 -0.00000000000E+00 -0.00000000000E+00 -0.27597018467E+03  0.27597018467E+03  0.00000000000E+00 0.  1.
         -6    2    1    2    0  503 -0.91014204747E+02  0.31468218773E+02 -0.16283484843E+03  0.25565121953E+03  0.17195500553E+03 0.  0.
        -24    2    3    3    0    0 -0.29921287454E+02  0.52863287960E+02 -0.30902322195E+02  0.10861933521E+03  0.84577750078E+02 0.  0.
          6    2    1    2  501    0  0.91014204747E+02 -0.31468218773E+02  0.81542119892E+02  0.21499642128E+03  0.17407041560E+03 0.  0.
         24    2    5    5    0    0  0.11111365966E+03 -0.28282437594E+02  0.11142357407E+03  0.17853920534E+03  0.79466303210E+02 0.  0.
          5    1    5    5  501    0 -0.20099454912E+02 -0.31857811790E+01 -0.29881454182E+02  0.36457215932E+02  0.47000000000E+01 0. -1.
        -11    1    6    6    0    0  0.17620084097E+01 -0.28971607166E+02  0.33135754105E+02  0.44050390413E+02  0.00000000000E+00 0.  1.
         12    1    6    6    0    0  0.10935165125E+03  0.68916957217E+00  0.78287819969E+02  0.13448881493E+03  0.00000000000E+00 0. -1.
         -5    1    3    3    0  503 -0.61092917293E+02 -0.21395069187E+02 -0.13193252623E+03  0.14703188432E+03  0.47000000000E+01 0.  1.
         11    1    4    4    0    0 -0.51659966977E+02  0.45025394655E+02 -0.44593477672E+02  0.81759504663E+02  0.00000000000E+00 0. -1.
        -12    1    4    4    0    0  0.21738679523E+02  0.78378933053E+01  0.13691155477E+02  0.26859830550E+02  0.00000000000E+00 0.  1.
</event>
<event>
12    1  0.8356052E-002  0.2267600E+03  0.7818608E-02  0.1128945E+00
         21   -1    0    0  503  502  0.00000000000E+00  0.00000000000E+00  0.17832904436E+03  0.17832904436E+03  0.00000000000E+00 0.  1.
         21   -1    0    0  501  503 -0.00000000000E+00 -0.00000000000E+00 -0.38623145748E+03  0.38623145748E+03  0.00000000000E+00 0.  1.
          6    2    1    2  501    0 -0.10175132731E+03  0.10679507569E+03 -0.24608411819E+03  0.33463035735E+03  0.17222532344E+03 0.  0.
         24    2    3    3    0    0 -0.47266198208E+01  0.35602759566E+02 -0.17237179712E+03  0.19342930913E+03  0.80080982558E+02 0.  0.
         -6    2    1    2    0  502  0.10175132731E+03 -0.10679507569E+03  0.38181705071E+02  0.22993014448E+03  0.17219613218E+03 0.  0.
        -24    2    5    5    0    0  0.56245553803E+01  0.28304419249E+01  0.30876223061E+02  0.83869984062E+02  0.77725067072E+02 0.  0.
          5    1    3    3  501    0 -0.97024707493E+02  0.71192316125E+02 -0.73712321075E+02  0.14120104822E+03  0.47000000000E+01 0. -1.
        -11    1    4    4    0    0  0.35845577164E+01  0.60952772638E+02 -0.11760240225E+03  0.13250816790E+03  0.00000000000E+00 0.  1.
         12    1    4    4    0    0 -0.83111775372E+01 -0.25350013072E+02 -0.54769394867E+02  0.60921141231E+02  0.00000000000E+00 0. -1.
         -5    1    5    5    0  502  0.96126771933E+02 -0.10962551762E+03  0.73054820102E+01  0.14606016042E+03  0.47000000000E+01 0.  1.
         11    1    6    6    0    0 -0.33731543449E+02  0.11272389754E+02  0.47450987440E+01  0.35880353346E+02  0.00000000000E+00 0. -1.
        -12    1    6    6    0    0  0.39356098829E+02 -0.84419478287E+01  0.26131124317E+02  0.47989630716E+02  0.00000000000E+00 0.  1.
</event>
<event>
12    1  0.8356052E-002  0.1783609E+03  0.7818608E-02  0.1169702E+00
         21   -1    0    0  503  502  0.00000000000E+00  0.00000000000E+00  0.10191159898E+04  0.10191159898E+04  0.00000000000E+00 0.  1.
         21   -1    0    0  501  503 -0.00000000000E+00 -0.00000000000E+00 -0.35192287703E+02  0.35192287703E+02  0.00000000000E+00 0.  1.
          6    2    1    2  501    0 -0.47822974816E+02 -0.23401411789E+01  0.31153104727E+03  0.35897660627E+03  0.17181413578E+03 0.  0.
         24    2    3    3    0    0  0.36470290125E+02 -0.29235066328E+02  0.16760402729E+03  0.18996249860E+03  0.76222501553E+02 0.  0.
         -6    2    1    2    0  502  0.47822974816E+02  0.23401411789E+01  0.67239265483E+03  0.69533167124E+03  0.17053368457E+03 0.  0.
        -24    2    5    5    0    0  0.91038096560E+02 -0.22584206981E+02  0.53103758006E+03  0.54535795007E+03  0.81341261570E+02 0.  0.
          5    1    3    3  501    0 -0.84293264941E+02  0.26894925149E+02  0.14392701998E+03  0.16901410768E+03  0.47000000000E+01 0. -1.
        -13    1    4    4    0    0  0.72338896288E+01 -0.33589433609E+02  0.15333911536E+03  0.15714153973E+03  0.00000000000E+00 0.  1.
         14    1    4    4    0    0  0.29236400496E+02  0.43543672819E+01  0.14264911933E+02  0.32820958866E+02  0.00000000000E+00 0. -1.
         -5    1    5    5    0  502 -0.43215121744E+02  0.24924348160E+02  0.14135507477E+03  0.14997372117E+03  0.47000000000E+01 0.  1.
         13    1    6    6    0    0  0.74224395653E+02  0.16308716516E+02  0.25486224076E+03  0.26595111752E+03  0.00000000000E+00 0. -1.
        -14    1    6    6    0    0  0.16813700907E+02 -0.38892923497E+02  0.27617533930E+03  0.27940683255E+03  0.00000000000E+00 0.  1.
</event>
<event>
12    1  0.8356052E-002  0.1766024E+03  0.7818608E-02  0.1172301E+00
         21   -1    0    0  503  502  0.00000000000E+00  0.00000000000E+00  0.31205493891E+04  0.31205493891E+04  0.00000000000E+00 0.  1.
         21   -1    0    0  501  503 -0.00000000000E+00 -0.00000000000E+00 -0.15099036545E+02  0.15099036545E+02  0.00000000000E+00 0.  1.
          6    2    1    2  501    0 -0.42290267773E+02 -0.63681096175E+01  0.60482592457E+03  0.62879562897E+03  0.16655486908E+03 0.  0.
         24    2    3    3    0    0  0.12412128200E+02 -0.20856753997E+02  0.15826993083E+03  0.17864385625E+03  0.79216104779E+02 0.  0.
         -6    2    1    2    0  502  0.42290267773E+02  0.63681096175E+01  0.25006244279E+04  0.25068527966E+04  0.17134583387E+03 0.  0.
        -24    2    5    5    0    0  0.59152528533E+02  0.59730840498E+02  0.19368961317E+04  0.19403339541E+04  0.79135540370E+02 0.  0.
          5    1    3    3  501    0 -0.54702395973E+02  0.14488644379E+02  0.44655599374E+03  0.45015177273E+03  0.47000000000E+01 0. -1.
        -13    1    4    4    0    0 -0.27189002070E+02  0.38743405571E+01  0.23946457110E+02  0.36437414239E+02  0.00000000000E+00 0.  1.
         14    1    4    4    0    0  0.39601130270E+02 -0.24731094554E+02  0.13432347372E+03  0.14220644201E+03  0.00000000000E+00 0. -1.
         -5    1    5    5    0  502 -0.16862260760E+02 -0.53362730881E+02  0.56372829628E+03  0.56651884250E+03  0.47000000000E+01 0.  1.
         11    1    6    6    0    0 -0.15704001655E+02  0.24456034723E+02  0.74616425654E+03  0.74673007911E+03  0.00000000000E+00 0. -1.
        -12    1    6    6    0    0  0.74856530187E+02  0.35274805776E+02  0.11907318751E+04  0.11936038750E+04  0.00000000000E+00 0.  1.
</event>
<event>
12    1  0.8356052E-002  0.1769085E+03  0.7818608E-02  0.1170911E+00
         21   -1    0    0  503  502  0.00000000000E+00  0.00000000000E+00  0.73211475657E+03  0.73211475657E+03  0.00000000000E+00 0. -1.
         21   -1    0    0  501  503 -0.00000000000E+00 -0.00000000000E+00 -0.11915186268E+03  0.11915186268E+03  0.00000000000E+00 0. -1.
          6    2    1    2  501    0  0.41451786583E+02  0.44746664329E+01 -0.34427677431E+02  0.18022730355E+03  0.17192539871E+03 0.  0.
         24    2    3    3    0    0  0.77772519379E+01  0.68221584426E+02 -0.21962422474E+02  0.10691211810E+03  0.78950508330E+02 0.  0.
         -6    2    1    2    0  502 -0.41451786583E+02 -0.44746664329E+01  0.64739057132E+03  0.67103931571E+03  0.17158361850E+03 0.  0.
        -24    2    5    5    0    0  0.31224781863E+02  0.33294182914E+02  0.28588965240E+03  0.30034621628E+03  0.79946648875E+02 0.  0.
          5    1    3    3  501    0  0.33674534645E+02 -0.63746917993E+02 -0.12465254957E+02  0.73315185455E+02  0.47000000000E+01 0. -1.
        -11    1    4    4    0    0  0.29289445597E+02  0.38248951987E+02  0.18998099046E+02  0.51785922014E+02  0.00000000000E+00 0.  1.
         12    1    4    4    0    0 -0.21512193659E+02  0.29972632440E+02 -0.40960521520E+02  0.55126196083E+02  0.00000000000E+00 0. -1.
         -5    1    5    5    0  502 -0.72676568446E+02 -0.37768849347E+02  0.36150091892E+03  0.37069309942E+03  0.47000000000E+01 0.  1.
         11    1    6    6    0    0  0.10876161808E+02  0.58585978189E+02  0.18282349086E+03  0.19228894026E+03  0.00000000000E+00 0. -1.
        -12    1    6    6    0    0  0.20348620055E+02 -0.25291795275E+02  0.10306616155E+03  0.10805727603E+03  0.00000000000E+00 0.  1.
</event>
<event>
12    1  0.8356052E-002  0.1807321E+03  0.7818608E-02  0.1167785E+00
         21   -1    0    0  503  502  0.00000000000E+00  0.00000000000E+00  0.25384428119E+03  0.25384428119E+03  0.00000000000E+00 0.  1.
         21   -1    0    0  501  503 -0.00000000000E+00 -0.00000000000E+00 -0.14465131373E+03  0.14465131373E+03  0.00000000000E+00 0.  1.
          6    2    1    2  501    0  0.48164616560E+02 -0.65187063562E+01 -0.15282824585E+02  0.18137715759E+03  0.17407407833E+03 0.  0.
         24    2    3    3    0    0 -0.11207767103E+02 -0.32178180573E+02 -0.59683012116E+02  0.10278354963E+03  0.76428703975E+02 0.  0.
         -6    2    1    2    0  502 -0.48164616560E+02  0.65187063562E+01  0.12447579205E+03  0.21711843732E+03  0.17112530263E+03 0.  0.
        -24    2    5    5    0    0  0.20592128925E+02  0.46423618114E+02  0.39911426181E+02  0.10095857332E+03  0.77592032413E+02 0.  0.
          5    1    3    3  501    0  0.59372383663E+02  0.25659474217E+02  0.44400187531E+02  0.78593607957E+02  0.47000000000E+01 0. -1.
        -13    1    4    4    0    0  0.30811730042E+02 -0.15250749604E+02 -0.41697529242E+02  0.54042872023E+02  0.00000000000E+00 0.  1.
         14    1    4    4    0    0 -0.42019497145E+02 -0.16927430970E+02 -0.17985482875E+02  0.48740677609E+02  0.00000000000E+00 0. -1.
         -5    1    5    5    0  502 -0.68756745485E+02 -0.39904911758E+02  0.84564365865E+02  0.11615986401E+03  0.47000000000E+01 0.  1.
         11    1    6    6    0    0  0.19352312619E+02 -0.19103727969E+02  0.12039020174E+02  0.29738904364E+02  0.00000000000E+00 0. -1.
        -12    1    6    6    0    0  0.12398163058E+01  0.65527346083E+02  0.27872406007E+02  0.71219668953E+02  0.00000000000E+00 0.  1.
</event>
<event>
12    1  0.8356052E-002  0.2395503E+03  0.7818608E-02  0.1120342E+00
         21   -1    0    0  501  502  0.00000000000E+00  0.00000000000E+00  0.35366537351E+03  0.35366537351E+03  0.00000000000E+00 0. -1.
         21   -1    0    0  502  503 -0.00000000000E+00 -0.00000000000E+00 -0.19246893752E+03  0.19246893752E+03  0.00000000000E+00 0. -1.
         -6    2    1    2    0  503 -0.12438710240E+03 -0.10916408953E+03 -0.29165942388E+02  0.24131932540E+03  0.17319184430E+03 0.  0.
        -24    2    3    3    0    0 -0.32771337195E+02 -0.10827316496E+03  0.16095698850E+02  0.13902099527E+03  0.79187920877E+02 0.  0.
          6    2    1    2  501    0  0.12438710240E+03  0.10916408953E+03  0.19036237838E+03  0.30481498563E+03  0.17112974807E+03 0.  0.
         24    2    5    5    0    0  0.15861242277E+03  0.88452686785E+02  0.16088235748E+03  0.25490009416E+03  0.78161029915E+02 0.  0.
          5    1    5    5  501    0 -0.34225320369E+02  0.20711402741E+02  0.29480020901E+02  0.49914891467E+02  0.47000000000E+01 0. -1.
        -13    1    6    6    0    0  0.16498396606E+02 -0.13382065072E+02  0.81616174634E+01  0.22757169327E+02  0.00000000000E+00 0.  1.
         14    1    6    6    0    0  0.14211402616E+03  0.10183475186E+03  0.15272074002E+03  0.23214292483E+03  0.00000000000E+00 0. -1.
         -5    1    3    3    0  503 -0.91615765204E+02 -0.89092456824E+00 -0.45261641237E+02  0.10229833013E+03  0.47000000000E+01 0.  1.
         13    1    4    4    0    0 -0.50884422798E+02 -0.34765782634E+02  0.14443122437E+02  0.63296823865E+02  0.00000000000E+00 0. -1.
        -14    1    4    4    0    0  0.18113085603E+02 -0.73507382324E+02  0.16525764125E+01  0.75724171405E+02  0.00000000000E+00 0.  1.
</event>
<event>
12    1  0.8356052E-002  0.1723283E+03  0.7818608E-02  0.1176241E+00
         21   -1    0    0  501  502  0.00000000000E+00  0.00000000000E+00  0.16675496642E+02  0.16675496642E+02  0.00000000000E+00 0.  1.
         21   -1    0    0  502  503 -0.00000000000E+00 -0.00000000000E+00 -0.20869266005E+04  0.20869266005E+04  0.00000000000E+00 0.  1.
         -6    2    1    2    0  503  0.12055509519E+02  0.56424299763E+01 -0.14661767376E+04  0.14762693779E+04  0.17181349785E+03 0.  0.
        -24    2    3    3    0    0  0.40605584357E+02 -0.25176099847E+02 -0.13239553666E+04  0.13278985691E+04  0.90410992263E+02 0.  0.
          6    2    1    2  501    0 -0.12055509519E+02 -0.56424299763E+01 -0.60407436630E+03  0.62733271924E+03  0.16871078295E+03 0.  0.
         24    2    5    5    0    0  0.54693284752E+02  0.10040438850E+02 -0.28860506027E+03  0.30446381867E+03  0.79455460823E+02 0.  0.
          5    1    5    5  501    0 -0.66748794271E+02 -0.15682868827E+02 -0.31546930603E+03  0.32286890057E+03  0.47000000000E+01 0. -1.
        -13    1    6    6    0    0  0.38893851485E+02  0.25339628122E+02 -0.65521516149E+02  0.80298801456E+02  0.00000000000E+00 0.  1.
         14    1    6    6    0    0  0.15799433267E+02 -0.15299189272E+02 -0.22308354412E+03  0.22416501721E+03  0.00000000000E+00 0. -1.
         -5    1    3    3    0  503 -0.28550074838E+02  0.30818529824E+02 -0.14222137097E+03  0.14837080883E+03  0.47000000000E+01 0.  1.
         11    1    4    4    0    0  0.41419415507E+02  0.98717100988E+01 -0.26799975436E+03  0.27136117441E+03  0.00000000000E+00 0. -1.
        -12    1    4    4    0    0 -0.81383115041E+00 -0.35047809946E+02 -0.10559556122E+04  0.10565373947E+04  0.00000000000E+00 0.  1.
</event>
<event>
12    1  0.8356052E-002  0.2149406E+03  0.7818608E-02  0.1137917E+00
         21   -1    0    0  503  502  0.00000000000E+00  0.00000000000E+00  0.91552609122E+03  0.91552609122E+03  0.00000000000E+00 0. -1.
         21   -1    0    0  501  503 -0.00000000000E+00 -0.00000000000E+00 -0.10608623427E+03  0.10608623427E+03  0.00000000000E+00 0. -1.
          6    2    1    2  501    0 -0.12020182434E+03 -0.41992778303E+02  0.34489735176E+02  0.21769016269E+03  0.17316926141E+03 0.  0.
         24    2    3    3    0    0 -0.10738865614E+03 -0.81079899047E+02  0.62519392046E+02  0.16769284325E+03  0.78140525953E+02 0.  0.
         -6    2    1    2    0  502  0.12020182434E+03  0.41992778303E+02  0.77495012177E+03  0.80392216280E+03  0.17184667759E+03 0.  0.
        -24    2    5    5    0    0  0.29920058590E+02  0.80991494230E+01  0.15874791596E+03  0.18020201421E+03  0.79442173789E+02 0.  0.
          5    1    3    3  501    0 -0.12813168191E+02  0.39087120744E+02 -0.28029656870E+02  0.49997319442E+02  0.47000000000E+01 0. -1.
        -11    1    4    4    0    0  0.65731998343E+01  0.74661281843E+01  0.10028751998E+02  0.14125363456E+02  0.00000000000E+00 0.  1.
         12    1    4    4    0    0 -0.11396185598E+03 -0.88546027231E+02  0.52490640048E+02  0.15356747979E+03  0.00000000000E+00 0. -1.
         -5    1    5    5    0  502  0.90281765745E+02  0.33893628880E+02  0.61620220582E+03  0.62372014859E+03  0.47000000000E+01 0.  1.
         13    1    6    6    0    0  0.17361307720E+02 -0.14181118093E+02  0.15214477537E+03  0.15378735900E+03  0.00000000000E+00 0. -1.
        -14    1    6    6    0    0  0.12558750870E+02  0.22280267516E+02  0.66031405858E+01  0.26414655205E+02  0.00000000000E+00 0.  1.
</event>
<event>
12    1  0.8356052E-002  0.1917965E+03  0.7818608E-02  0.1158022E+00
         21   -1    0    0  503  502  0.00000000000E+00  0.00000000000E+00  0.26955340346E+02  0.26955340346E+02  0.00000000000E+00 0. -1.
         21   -1    0    0  501  503 -0.00000000000E+00 -0.00000000000E+00 -0.18222107831E+04  0.18222107831E+04  0.00000000000E+00 0. -1.
          6    2    1    2  501    0 -0.34683467949E+02 -0.68191662999E+02 -0.13880112118E+04  0.14011998523E+04  0.17587738971E+03 0.  0.
         24    2    3    3    0    0  0.45232541009E+02 -0.10495291539E+02 -0.65969892059E+03  0.66623296647E+03  0.80669485407E+02 0.  0.
         -6    2    1    2    0  502  0.34683467949E+02  0.68191662999E+02 -0.40724423102E+03  0.44796627119E+03  0.17021419028E+03 0.  0.
        -24    2    5    5    0    0  0.40021650896E+02  0.56906048473E+02 -0.41822991923E+03  0.43068516481E+03  0.75719316951E+02 0.  0.
          5    1    3    3  501    0 -0.79916008958E+02 -0.57696371460E+02 -0.72831229117E+03  0.73496688581E+03  0.47000000000E+01 0. -1.
        -13    1    4    4    0    0  0.31434099810E+01 -0.29423067312E+02 -0.47264039339E+03  0.47356577091E+03  0.00000000000E+00 0.  1.
         14    1    4    4    0    0  0.42089131028E+02  0.18927775773E+02 -0.18705852720E+03  0.19266719556E+03  0.00000000000E+00 0. -1.
         -5    1    5    5    0  502 -0.53381829473E+01  0.11285614526E+02  0.10985688204E+02  0.17281106380E+02  0.47000000000E+01 0.  1.
         11    1    6    6    0    0  0.27840746453E+02  0.49413863304E+02 -0.12682481752E+03  0.13892937554E+03  0.00000000000E+00 0. -1.
        -12    1    6    6    0    0  0.12180904443E+02  0.74921851696E+01 -0.29140510171E+03  0.29175578927E+03  0.00000000000E+00 0.  1.
</event>
<event>
12    1  0.8356052E-002  0.1789808E+03  0.7818608E-02  0.1169046E+00
         21   -1    0    0  503  502  0.00000000000E+00  0.00000000000E+00  0.21558647247E+03  0.21558647247E+03  0.00000000000E+00 0.  1.
         21   -1    0    0  501  503 -0.00000000000E+00 -0.00000000000E+00 -0.25441327042E+03  0.25441327042E+03  0.00000000000E+00 0.  1.
          6    2    1    2  501    0 -0.37363076236E+02 -0.27764681584E+02 -0.17161897423E+03  0.24796611814E+03  0.17282142928E+03 0.  0.
         24    2    3    3    0    0 -0.79841593946E+02  0.87656315919E+01 -0.14993676566E+03  0.18770753853E+03  0.79382428181E+02 0.  0.
         -6    2    1    2    0  502  0.37363076236E+02  0.27764681584E+02  0.13279217628E+03  0.22203362476E+03  0.17175066647E+03 0.  0.
        -24    2    5    5    0    0  0.82343880536E+02  0.31684348114E+02  0.53102298051E+02  0.13032101257E+03  0.79870518229E+02 0.  0.
          5    1    3    3  501    0  0.42478517710E+02 -0.36530313176E+02 -0.21682208570E+02  0.60258579605E+02  0.47000000000E+01 0. -1.
        -11    1    4    4    0    0 -0.51884508839E+02 -0.26927417926E+02 -0.46243328643E+02  0.74535451549E+02  0.00000000000E+00 0.  1.
         12    1    4    4    0    0 -0.27957085106E+02  0.35693049518E+02 -0.10369343702E+03  0.11317208698E+03  0.00000000000E+00 0. -1.
         -5    1    5    5    0  502 -0.44980804300E+02 -0.39196665306E+01  0.79689878232E+02  0.91712612185E+02  0.47000000000E+01 0.  1.
         13    1    6    6    0    0  0.19921275656E+01 -0.17507020655E+02 -0.65640967857E+01  0.18802970804E+02  0.00000000000E+00 0. -1.
        -14    1    6    6    0    0  0.80351752970E+02  0.49191368769E+02  0.59666394837E+02  0.11151804177E+03  0.00000000000E+00 0.  1.
</event>
<event>
12    1  0.8356052E-002  0.2587511E+03  0.7818608E-02  0.1107910E+00
         21   -1    0    0  501  502  0.00000000000E+00  0.00000000000E+00  0.14845160661E+03  0.14845160661E+03  0.00000000000E+00 0. -1.
         21   -1    0    0  502  503 -0.00000000000E+00 -0.00000000000E+00 -0.83377224901E+03  0.83377224901E+03  0.00000000000E+00 0. -1.
         -6    2    1    2    0  503 -0.40929412776E+02  0.18877135900E+03 -0.67545345263E+03  0.72328470958E+03  0.17202779319E+03 0.  0.
        -24    2    3    3    0    0 -0.78831825244E+02  0.14847178588E+03 -0.39403463266E+03  0.43644104013E+03  0.83421591375E+02 0.  0.
          6    2    1    2  501    0  0.40929412776E+02 -0.18877135900E+03 -0.98671897707E+01  0.25893914604E+03  0.17216932686E+03 0.  0.
         24    2    5    5    0    0  0.50756739555E+01 -0.13539739622E+03 -0.68536149069E+02  0.17177030255E+03  0.80309499690E+02 0.  0.
          5    1    5    5  501    0  0.35853738820E+02 -0.53373962777E+02  0.58668959298E+02  0.87168843488E+02  0.47000000000E+01 0. -1.
        -13    1    6    6    0    0  0.19256457643E+02 -0.11364010317E+03 -0.83008208019E+02  0.14203959591E+03  0.00000000000E+00 0.  1.
         14    1    6    6    0    0 -0.14180783688E+02 -0.21757293053E+02  0.14472058950E+02  0.29730706639E+02  0.00000000000E+00 0. -1.
         -5    1    3    3    0  503  0.37902412468E+02  0.40299573121E+02 -0.28141881998E+03  0.28684366945E+03  0.47000000000E+01 0.  1.
         13    1    4    4    0    0 -0.68752160544E+02  0.41709795599E+02 -0.16646805033E+03  0.18487341185E+03  0.00000000000E+00 0. -1.
        -14    1    4    4    0    0 -0.10079664700E+02  0.10676199028E+03 -0.22756658233E+03  0.25156762829E+03  0.00000000000E+00 0.  1.
</event>
<event>
12    1  0.8356052E-002  0.6387427E+03  0.7818608E-02  0.9828800E-01
         21   -1    0    0  501  502  0.00000000000E+00  0.00000000000E+00  0.10681578142E+04  0.10681578142E+04  0.00000000000E+00 0.  1.
         21   -1    0    0  502  503 -0.00000000000E+00 -0.00000000000E+00 -0.38450018967E+03  0.38450018967E+03  0.00000000000E+00 0. -1.
         -6    2    1    2    0  503 -0.23629503813E+03  0.56822760347E+03  0.27347309499E+03  0.69355093340E+03  0.16585357743E+03 0.  0.
        -24    2    3    3    0    0 -0.65995972191E+02  0.31638035980E+03  0.14380410990E+03  0.36299845391E+03  0.81463213188E+02 0.  0.
          6    2    1    2  501    0  0.23629503813E+03 -0.56822760347E+03  0.41018452949E+03  0.75910707042E+03  0.17109717046E+03 0.  0.
         24    2    5    5    0    0  0.25529492826E+02 -0.17371636165E+03  0.11308398338E+03  0.22212284392E+03  0.75640208792E+02 0.  0.
          5    1    5    5  501    0  0.21076554530E+03 -0.39451124182E+03  0.29710054612E+03  0.53698422650E+03  0.47000000000E+01 0. -1.
        -11    1    6    6    0    0  0.81226548755E+01  0.57872660358E+01  0.11164118776E+02  0.14970221055E+02  0.00000000000E+00 0.  1.
         12    1    6    6    0    0  0.17406837951E+02 -0.17950362768E+03  0.10191986460E+03  0.20715262286E+03  0.00000000000E+00 0. -1.
         -5    1    3    3    0  503 -0.17029906593E+03  0.25184724367E+03  0.12966898509E+03  0.33055247949E+03  0.47000000000E+01 0.  1.
         11    1    4    4    0    0 -0.44517262128E+02  0.26881996092E+03  0.87397614425E+02  0.28615433078E+03  0.00000000000E+00 0. -1.
        -12    1    4    4    0    0 -0.21478710062E+02  0.47560398881E+02  0.56406495478E+02  0.76844123131E+02  0.00000000000E+00 0.  1.
</event>
<event>
12    1  0.8356052E-002  0.2052560E+03  0.7818608E-02  0.1145711E+00
         21   -1    0    0  501  502  0.00000000000E+00  0.00000000000E+00  0.22549849800E+03  0.22549849800E+03  0.00000000000E+00 0.  1.
         21   -1    0    0  502  503 -0.00000000000E+00 -0.00000000000E+00 -0.38779455665E+03  0.38779455665E+03  0.00000000000E+00 0.  1.
         -6    2    1    2    0  503  0.29927724322E+02  0.10489554169E+03 -0.30285684658E+03  0.36585827916E+03  0.17387141099E+03 0.  0.
        -24    2    3    3    0    0  0.31803882345E+02  0.28155801922E+02 -0.26476941719E+03  0.28003724499E+03  0.80707980946E+02 0.  0.
          6    2    1    2  501    0 -0.29927724322E+02 -0.10489554169E+03  0.14056078793E+03  0.24743477549E+03  0.17195316127E+03 0.  0.
         24    2    5    5    0    0  0.95818326473E+00 -0.12779431892E+03  0.14458736721E+03  0.20849126991E+03  0.78935396434E+02 0.  0.
          5    1    5    5  501    0 -0.30885907587E+02  0.22898777232E+02 -0.40265792755E+01  0.38943505580E+02  0.47000000000E+01 0. -1.
        -13    1    6    6    0    0  0.26627888816E+02 -0.83132725198E+02  0.49510830663E+02  0.10035644879E+03  0.00000000000E+00 0.  1.
         14    1    6    6    0    0 -0.25669705551E+02 -0.44661593719E+02  0.95076536543E+02  0.10813482111E+03  0.00000000000E+00 0. -1.
         -5    1    3    3    0  503 -0.18761580221E+01  0.76739739763E+02 -0.38087429386E+02  0.85821034164E+02  0.47000000000E+01 0.  1.
         13    1    4    4    0    0  0.10355402038E+02 -0.84282950446E+01 -0.15706352278E+01  0.13443861192E+02  0.00000000000E+00 0. -1.
        -14    1    4    4    0    0  0.21448480306E+02  0.36584096967E+02 -0.26319878197E+03  0.26659338380E+03  0.00000000000E+00 0.  1.
</event>
<event>
12    1  0.8356052E-002  0.1814886E+03  0.7818608E-02  0.1167011E+00
         21   -1    0    0  503  502  0.00000000000E+00  0.00000000000E+00  0.10327624026E+04  0.10327624026E+04  0.00000000000E+00 0.  1.
         21   -1    0    0  501  503 -0.00000000000E+00 -0.00000000000E+00 -0.51270870942E+02  0.51270870942E+02  0.00000000000E+00 0.  1.
          6    2    1    2  501    0  0.63099417224E+01  0.48900041107E+02  0.15134499834E+03  0.23427955346E+03  0.17190279598E+03 0.  0.
         24    2    3    3    0    0 -0.33039207482E+02  0.82027525841E+02  0.70571457968E+02  0.13840338014E+03  0.79718634755E+02 0.  0.
         -6    2    1    2    0  502 -0.63099417224E+01 -0.48900041107E+02  0.83014653331E+03  0.84975372006E+03  0.17466278543E+03 0.  0.
        -24    2    5    5    0    0 -0.23647139577E+02  0.37009260589E+02  0.49216296330E+03  0.50056040663E+03  0.80046646832E+02 0.  0.
          5    1    3    3  501    0  0.39349149205E+02 -0.33127484735E+02  0.80773540369E+02  0.95876173327E+02  0.47000000000E+01 0. -1.
        -11    1    4    4    0    0 -0.15512451504E+02 -0.87845402952E+01 -0.54932586351E+01  0.18654227143E+02  0.00000000000E+00 0.  1.
         12    1    4    4    0    0 -0.17526755978E+02  0.90812066137E+02  0.76064716604E+02  0.11974915300E+03  0.00000000000E+00 0. -1.
         -5    1    5    5    0  502  0.17337197854E+02 -0.85909301695E+02  0.33798357001E+03  0.34919331343E+03  0.47000000000E+01 0.  1.
         13    1    6    6    0    0  0.12389752051E+02  0.46934643175E+02  0.35842282201E+03  0.36169501797E+03  0.00000000000E+00 0. -1.
        -14    1    6    6    0    0 -0.36036891628E+02 -0.99253825867E+01  0.13374014129E+03  0.13886538866E+03  0.00000000000E+00 0.  1.
</event>
<event>
12    1  0.8356052E-002  0.2074790E+03  0.7818608E-02  0.1143896E+00
         21   -1    0    0  503  502  0.00000000000E+00  0.00000000000E+00  0.14436927305E+04  0.14436927305E+04  0.00000000000E+00 0. -1.
         21   -1    0    0  501  503 -0.00000000000E+00 -0.00000000000E+00 -0.47286801655E+02  0.47286801655E+02  0.00000000000E+00 0. -1.
          6    2    1    2  501    0 -0.80345053399E+02  0.83648210297E+02  0.24383429155E+03  0.32016040511E+03  0.17203247535E+03 0.  0.
         24    2    3    3    0    0 -0.88339018150E+02  0.27425388801E+02  0.23123163657E+03  0.26180094965E+03  0.80720092959E+02 0.  0.
         -6    2    1    2    0  502  0.80345053399E+02 -0.83648210297E+02  0.11525716373E+04  0.11708191271E+04  0.17012847632E+03 0.  0.
        -24    2    5    5    0    0  0.29540125597E+02 -0.15555583628E+02  0.90817563476E+03  0.91203496495E+03  0.76877815492E+02 0.  0.
          5    1    3    3  501    0  0.79939647512E+01  0.56222821496E+02  0.12602654976E+02  0.58359455462E+02  0.47000000000E+01 0. -1.
        -11    1    4    4    0    0 -0.15239188133E+00 -0.21694148495E+02  0.45632940324E+02  0.50527463273E+02  0.00000000000E+00 0.  1.
         12    1    4    4    0    0 -0.88186626269E+02  0.49119537296E+02  0.18559869625E+03  0.21127348638E+03  0.00000000000E+00 0. -1.
         -5    1    5    5    0  502  0.50804927802E+02 -0.68092626669E+02  0.24439600258E+03  0.25878416214E+03  0.47000000000E+01 0. -1.
         13    1    6    6    0    0  0.41597469416E+02 -0.34594196255E+02  0.43944792932E+03  0.44276584157E+03  0.00000000000E+00 0. -1.
        -14    1    6    6    0    0 -0.12057343820E+02  0.19038612627E+02  0.46872770544E+03  0.46926912338E+03  0.00000000000E+00 0.  1.
</event>
<event>
12    1  0.8356052E-002  0.2322772E+03  0.7818608E-02  0.1125477E+00
         21   -1    0    0  503  502  0.00000000000E+00  0.00000000000E+00  0.15184485671E+04  0.15184485671E+04  0.00000000000E+00 0.  1.
         21   -1    0    0  501  503 -0.00000000000E+00 -0.00000000000E+00 -0.99834683427E+02  0.99834683427E+02  0.00000000000E+00 0. -1.
          6    2    1    2  501    0  0.12411471259E+03 -0.94274117902E+02  0.56703628371E+02  0.23670725235E+03  0.16888739047E+03 0.  0.
         24    2    3    3    0    0  0.53351043233E+02 -0.88109895179E+02  0.90041440987E+02  0.15810067316E+03  0.79238086276E+02 0.  0.
         -6    2    1    2    0  502 -0.12411471259E+03  0.94274117902E+02  0.13619102553E+04  0.13815759982E+04  0.17222260029E+03 0.  0.
        -24    2    5    5    0    0 -0.13651712649E+03  0.12374212500E+03  0.11908434420E+04  0.12074837010E+04  0.77199388364E+02 0.  0.
          5    1    3    3  501    0  0.70763669353E+02 -0.61642227238E+01 -0.33337812616E+02  0.78606579191E+02  0.47000000000E+01 0. -1.
        -13    1    4    4    0    0  0.69748489202E+02 -0.70486225141E+02  0.49209456724E+02  0.11070108541E+03  0.00000000000E+00 0.  1.
         14    1    4    4    0    0 -0.16397445969E+02 -0.17623670038E+02  0.40831984263E+02  0.47399587749E+02  0.00000000000E+00 0. -1.
         -5    1    5    5    0  502  0.12402413905E+02 -0.29468007100E+02  0.17106681327E+03  0.17409229712E+03  0.47000000000E+01 0.  1.
         11    1    6    6    0    0  0.79836347608E+01  0.15420670390E+02  0.16012878108E+03  0.16106756977E+03  0.00000000000E+00 0. -1.
        -12    1    6    6    0    0 -0.14450076125E+03  0.10832145461E+03  0.10307146609E+04  0.10464161313E+04  0.00000000000E+00 0.  1.
</event>
<event>
12    1  0.8356052E-002  0.2511383E+03  0.7818608E-02  0.1112651E+00
         21   -1    0    0  503  502  0.00000000000E+00  0.00000000000E+00  0.71092050616E+03  0.71092050616E+03  0.00000000000E+00 0. -1.
         21   -1    0    0  501  503 -0.00000000000E+00 -0.00000000000E+00 -0.93965004137E+02  0.93965004137E+02  0.00000000000E+00 0.  1.
          6    2    1    2  501    0  0.80787911928E+02 -0.16404824140E+03  0.21185712594E+03  0.32825657340E+03  0.17155297709E+03 0.  0.
         24    2    3    3    0    0 -0.24516107673E+02 -0.82624492679E+02  0.95442147604E+02  0.15135744796E+03  0.79824978473E+02 0.  0.
         -6    2    1    2    0  502 -0.80787911928E+02  0.16404824140E+03  0.40509837609E+03  0.47662893690E+03  0.17213929523E+03 0.  0.
        -24    2    5    5    0    0  0.34318814273E+01  0.16615225327E+02  0.13271063530E+03  0.15562015329E+03  0.79483808831E+02 0.  0.
          5    1    3    3  501    0  0.10530401960E+03 -0.81423748725E+02  0.11641497833E+03  0.17689912544E+03  0.47000000000E+01 0. -1.
        -11    1    4    4    0    0 -0.58839049681E+01 -0.30100725704E+02 -0.98605371897E+01  0.32216520906E+02  0.00000000000E+00 0.  1.
         12    1    4    4    0    0 -0.18632202705E+02 -0.52523766974E+02  0.10530268479E+03  0.11914092706E+03  0.00000000000E+00 0. -1.
         -5    1    5    5    0  502 -0.84219793355E+02  0.14743301608E+03  0.27238774078E+03  0.32100878361E+03  0.47000000000E+01 0.  1.
         13    1    6    6    0    0 -0.23597683509E+02 -0.15209703078E+02  0.96005399042E+02  0.10002610849E+03  0.00000000000E+00 0. -1.
        -14    1    6    6    0    0  0.27029564936E+02  0.31824928405E+02  0.36705236259E+02  0.55594044803E+02  0.00000000000E+00 0.  1.
</event>
<event>
12    1  0.8356052E-002  0.1856971E+03  0.7818608E-02  0.1162413E+00
         21   -1    0    0  503  502  0.00000000000E+00  0.00000000000E+00  0.45135248098E+02  0.45135248098E+02  0.00000000000E+00 0.  1.
         21   -1    0    0  501  503 -0.00000000000E+00 -0.00000000000E+00 -0.80474538584E+03  0.80474538584E+03  0.00000000000E+00 0.  1.
          6    2    1    2  501    0  0.46443251847E+02 -0.48554273523E+02 -0.47574304307E+03  0.51070036231E+03  0.17311534857E+03 0.  0.
         24    2    3    3    0    0  0.29991021480E+02  0.33246846106E+02 -0.33150800833E+03  0.34400322885E+03  0.80223735433E+02 0.  0.
         -6    2    1    2    0  502 -0.46443251847E+02  0.48554273523E+02 -0.28386709467E+03  0.33918027163E+03  0.17305558676E+03 0.  0.
        -24    2    5    5    0    0 -0.42702490181E+02  0.77978125131E+02 -0.28439953205E+03  0.30914479543E+03  0.82360913311E+02 0.  0.
          5    1    3    3  501    0  0.16452230367E+02 -0.81801119629E+02 -0.14423503475E+03  0.16669713346E+03  0.47000000000E+01 0. -1.
        -11    1    4    4    0    0 -0.13237242624E+02  0.12300068034E+02 -0.13937754227E+02  0.22820544666E+02  0.00000000000E+00 0.  1.
         12    1    4    4    0    0  0.43228264104E+02  0.20946778072E+02 -0.31757025410E+03  0.32118268418E+03  0.00000000000E+00 0. -1.
         -5    1    5    5    0  502 -0.37407616656E+01 -0.29423851608E+02  0.53243737996E+00  0.30035476205E+02  0.47000000000E+01 0.  1.
         13    1    6    6    0    0 -0.61071012831E+02  0.65381509419E+02 -0.26469706986E+03  0.27940821243E+03  0.00000000000E+00 0. -1.
        -14    1    6    6    0    0  0.18368522650E+02  0.12596615712E+02 -0.19702462190E+02  0.29736582993E+02  0.00000000000E+00 0.  1.
</event>
<event>
12    1  0.8356052E-002  0.2681395E+03  0.7818608E-02  0.1103012E+00
         21   -1    0    0  501  502  0.00000000000E+00  0.00000000000E+00  0.63836438665E+03  0.63836438665E+03  0.00000000000E+00 0.  1.
         21   -1    0    0  502  503 -0.00000000000E+00 -0.00000000000E+00 -0.11732238100E+03  0.11732238100E+03  0.00000000000E+00 0.  1.
         -6    2    1    2    0  503  0.19625639271E+03 -0.32354687870E+02  0.34800923367E+03  0.43656431830E+03  0.17295831806E+03 0.  0.
        -24    2    3    3    0    0  0.14123173881E+03 -0.39052457757E+01  0.12379495729E+03  0.20390315905E+03  0.79307325180E+02 0.  0.
          6    2    1    2  501    0 -0.19625639271E+03  0.32354687870E+02  0.17303277199E+03  0.31912244935E+03  0.17982046599E+03 0.  0.
         24    2    5    5    0    0 -0.15432594785E+03  0.90031266549E+02  0.11407105174E+03  0.22647621689E+03  0.79731705330E+02 0.  0.
          5    1    5    5  501    0 -0.41930444861E+02 -0.57676578679E+02  0.58961720248E+02  0.92646232459E+02  0.47000000000E+01 0. -1.
        -11    1    6    6    0    0 -0.15378010999E+03  0.99742249194E+02  0.98412868731E+02  0.20804309946E+03  0.00000000000E+00 0.  1.
         12    1    6    6    0    0 -0.54583786180E+00 -0.97109826454E+01  0.15658183006E+02  0.18433117424E+02  0.00000000000E+00 0. -1.
         -5    1    3    3    0  503  0.55024653900E+02 -0.28449442094E+02  0.22421427638E+03  0.23266115925E+03  0.47000000000E+01 0.  1.
         13    1    4    4    0    0  0.14311838764E+03  0.14124259246E+02  0.10785571957E+03  0.17976435638E+03  0.00000000000E+00 0. -1.
        -14    1    4    4    0    0 -0.18866488324E+01 -0.18029505021E+02  0.15939237719E+02  0.24138802667E+02  0.00000000000E+00 0.  1.
</event>
<event>
12    1  0.8356052E-002  0.1865166E+03  0.7818608E-02  0.1164044E+00
         21   -1    0    0  503  502  0.00000000000E+00  0.00000000000E+00  0.16601056828E+03  0.16601056828E+03  0.00000000000E+00 0.  1.
         21   -1    0    0  501  503 -0.00000000000E+00 -0.00000000000E+00 -0.35612130050E+03  0.35612130050E+03  0.00000000000E+00 0.  1.
          6    2    1    2  501    0 -0.86667472379E+01  0.34335713654E+02 -0.26730248225E+03  0.32027301074E+03  0.17282977364E+03 0.  0.
         24    2    3    3    0    0 -0.30666245999E+02 -0.37267266670E+02 -0.19633845908E+03  0.21698241427E+03  0.78761093038E+02 0.  0.
         -6    2    1    2    0  502  0.86667472379E+01 -0.34335713654E+02  0.77191750028E+02  0.20185885804E+03  0.18312394316E+03 0.  0.
        -24    2    5    5    0    0 -0.85517183913E+01  0.12942541485E+02 -0.28606251097E+02  0.84611188515E+02  0.78103100787E+02 0.  0.
          5    1    3    3  501    0  0.21999498761E+02  0.71602980324E+02 -0.70964023162E+02  0.10329059648E+03  0.47000000000E+01 0. -1.
        -13    1    4    4    0    0  0.12683204948E+02  0.15542457970E+02 -0.22204331936E+02  0.29924305243E+02  0.00000000000E+00 0.  1.
         14    1    4    4    0    0 -0.43349450947E+02 -0.52809724641E+02 -0.17413412715E+03  0.18705810902E+03  0.00000000000E+00 0. -1.
         -5    1    5    5    0  502  0.17218465629E+02 -0.47278255138E+02  0.10579800113E+03  0.11724766953E+03  0.47000000000E+01 0.  1.
         11    1    6    6    0    0  0.21319419223E+02  0.35836559701E+02 -0.18662060729E+02  0.45684233143E+02  0.00000000000E+00 0. -1.
        -12    1    6    6    0    0 -0.29871137614E+02 -0.22894018216E+02 -0.99441903688E+01  0.38926955372E+02  0.00000000000E+00 0.  1.
</event>
<event>
12    1  0.8356052E-002  0.2108140E+03  0.7818608E-02  0.1141078E+00
         21   -1    0    0  501  502  0.00000000000E+00  0.00000000000E+00  0.54532472297E+03  0.54532472297E+03  0.00000000000E+00 0. -1.
         21   -1    0    0  502  503 -0.00000000000E+00 -0.00000000000E+00 -0.20184670959E+03  0.20184670959E+03  0.00000000000E+00 0. -1.
         -6    2    1    2    0  503  0.12080702533E+03  0.25856351038E+01 -0.11722295024E+03  0.24052767130E+03  0.17178858437E+03 0.  0.
        -24    2    3    3    0    0  0.15716406657E+02  0.78121703115E+01 -0.10690243107E+03  0.13469781767E+03  0.80045842331E+02 0.  0.
          6    2    1    2  501    0 -0.12080702533E+03 -0.25856351038E+01  0.46070096363E+03  0.50664376125E+03  0.17274692486E+03 0.  0.
         24    2    5    5    0    0 -0.29546791963E+02  0.55218520773E+02  0.21819282544E+03  0.24112156308E+03  0.81298223594E+02 0.  0.
          5    1    5    5  501    0 -0.91260233368E+02 -0.57804155877E+02  0.24250813819E+03  0.26552219817E+03  0.47000000000E+01 0. -1.
        -13    1    6    6    0    0 -0.44205351132E+02  0.68701961912E+02  0.18760630690E+03  0.20462208832E+03  0.00000000000E+00 0.  1.
         14    1    6    6    0    0  0.14658559169E+02 -0.13483441139E+02  0.30586518536E+02  0.36499474763E+02  0.00000000000E+00 0. -1.
         -5    1    3    3    0  503  0.10509061867E+03 -0.52265352077E+01 -0.10320519176E+02  0.10582985363E+03  0.47000000000E+01 0.  1.
         13    1    4    4    0    0 -0.18835411010E+01  0.37082120458E+02 -0.88339436555E+02  0.95825296429E+02  0.00000000000E+00 0. -1.
        -14    1    4    4    0    0  0.17599947758E+02 -0.29269950146E+02 -0.18562994513E+02  0.38872521245E+02  0.00000000000E+00 0.  1.
</event>
<event>
12    1  0.8356052E-002  0.2417910E+03  0.7818608E-02  0.1118930E+00
         21   -1    0    0  501  502  0.00000000000E+00  0.00000000000E+00  0.82911059380E+03  0.82911059380E+03  0.00000000000E+00 0. -1.
         21   -1    0    0  502  503 -0.00000000000E+00 -0.00000000000E+00 -0.76759379889E+02  0.76759379889E+02  0.00000000000E+00 0. -1.
         -6    2    1    2    0  503  0.16817597332E+03 -0.11339853892E+02  0.24258904867E+03  0.34250885317E+03  0.17335258198E+03 0.  0.
        -24    2    3    3    0    0  0.16697263065E+03 -0.57428849583E+01  0.26257589740E+03  0.32119364225E+03  0.79412932249E+02 0.  0.
          6    2    1    2  501    0 -0.16817597332E+03  0.11339853892E+02  0.50976216524E+03  0.56336112051E+03  0.17060637946E+03 0.  0.
         24    2    5    5    0    0 -0.40594896984E+02 -0.33129937196E+02  0.13829660438E+03  0.16805965801E+03  0.79828312436E+02 0.  0.
          5    1    5    5  501    0 -0.12758107633E+03  0.44469791088E+02  0.37146556085E+03  0.39530146250E+03  0.47000000000E+01 0. -1.
        -11    1    6    6    0    0  0.29123202216E+01 -0.47520636443E+02  0.87742601372E+02  0.99827133548E+02  0.00000000000E+00 0.  1.
         12    1    6    6    0    0 -0.43507217206E+02  0.14390699247E+02  0.50554003011E+02  0.68232524460E+02  0.00000000000E+00 0. -1.
         -5    1    3    3    0  503  0.12033426605E+01 -0.55969689336E+01 -0.19986848728E+02  0.21315210928E+02  0.47000000000E+01 0.  1.
         13    1    4    4    0    0  0.52182293815E+02  0.12708530195E+02  0.15013562396E+03  0.15945282723E+03  0.00000000000E+00 0. -1.
        -14    1    4    4    0    0  0.11479033684E+03 -0.18451415153E+02  0.11244027344E+03  0.16174081502E+03  0.00000000000E+00 0.  1.
</event>
<event>
12    1  0.8356052E-002  0.2123079E+03  0.7818608E-02  0.1140233E+00
         21   -1    0    0  503  502  0.00000000000E+00  0.00000000000E+00  0.64696849006E+03  0.64696849006E+03  0.00000000000E+00 0. -1.
         21   -1    0    0  501  503 -0.00000000000E+00 -0.00000000000E+00 -0.17271158776E+03  0.17271158776E+03  0.00000000000E+00 0. -1.
          6    2    1    2  501    0 -0.15980430799E+02 -0.12079783612E+03 -0.81212733450E+02  0.22501953465E+03  0.17085312851E+03 0.  0.
         24    2    3    3    0    0 -0.84719244557E+01 -0.77501450272E+02 -0.12184106152E+03  0.16498866146E+03  0.79358464194E+02 0.  0.
         -6    2    1    2    0  502  0.15980430799E+02  0.12079783612E+03  0.55546963575E+03  0.59466054317E+03  0.17385958122E+03 0.  0.
        -24    2    5    5    0    0 -0.13758560400E+02  0.63977268980E+02  0.49101535575E+03  0.50361424364E+03  0.90823113166E+02 0.  0.
          5    1    3    3  501    0 -0.75085063433E+01 -0.43296385847E+02  0.40628328068E+02  0.60030873195E+02  0.47000000000E+01 0. -1.
        -13    1    4    4    0    0  0.29206359655E+02 -0.20928658400E+02 -0.72762507043E+02  0.81150493639E+02  0.00000000000E+00 0.  1.
         14    1    4    4    0    0 -0.37678284110E+02 -0.56572791872E+02 -0.49078554476E+02  0.83838167818E+02  0.00000000000E+00 0. -1.
         -5    1    5    5    0  502  0.29738991199E+02  0.56820567139E+02  0.64454280001E+02  0.91046299529E+02  0.47000000000E+01 0.  1.
         11    1    6    6    0    0  0.43631579488E+01  0.82500117192E+02  0.41928482116E+03  0.42734654292E+03  0.00000000000E+00 0. -1.
        -12    1    6    6    0    0 -0.18121718348E+02 -0.18522848212E+02  0.71730534582E+02  0.76267700721E+02  0.00000000000E+00 0.  1.
</event>
<event>
12    1  0.8356052E-002  0.2131923E+03  0.7818608E-02  0.1139083E+00
         21   -1    0    0  501  502  0.00000000000E+00  0.00000000000E+00  0.71491652380E+03  0.71491652380E+03  0.00000000000E+00 0.  1.
         21   -1    0    0  502  503 -0.00000000000E+00 -0.00000000000E+00 -0.79351884463E+02  0.79351884463E+02  0.00000000000E+00 0. -1.
         -6    2    1    2    0  503 -0.19195581816E+02 -0.12552163478E+03  0.49497420258E+03  0.53889296984E+03  0.17111990113E+03 0.  0.
        -24    2    3    3    0    0 -0.73244629340E+02 -0.62822619170E+02  0.27179043757E+03  0.30080569790E+03  0.85455068465E+02 0.  0.
          6    2    1    2  501    0  0.19195581816E+02  0.12552163478E+03  0.14059043676E+03  0.25537543843E+03  0.17125067148E+03 0.  0.
         24    2    5    5    0    0  0.26002032116E+02  0.12209883097E+03  0.37630977198E+02  0.15202756150E+03  0.78179657278E+02 0.  0.
          5    1    5    5  501    0 -0.68064503004E+01  0.34228038108E+01  0.10295945956E+03  0.10334787693E+03  0.47000000000E+01 0. -1.
        -11    1    6    6    0    0 -0.16000745973E+02  0.92546884973E+02  0.36187131315E+02  0.10065017766E+03  0.00000000000E+00 0.  1.
         12    1    6    6    0    0  0.42002778089E+02  0.29551946000E+02  0.14438458834E+01  0.51377383843E+02  0.00000000000E+00 0. -1.
         -5    1    3    3    0  503  0.54049047524E+02 -0.62699015614E+02  0.22318376500E+03  0.23808727194E+03  0.47000000000E+01 0.  1.
         13    1    4    4    0    0 -0.35905128461E+02 -0.79980595107E+02  0.17860272049E+03  0.19895980903E+03  0.00000000000E+00 0. -1.
        -14    1    4    4    0    0 -0.37339500879E+02  0.17157975937E+02  0.93187717085E+02  0.10184588887E+03  0.00000000000E+00 0.  1.
</event>
<event>
12    1  0.8356052E-002  0.2544849E+03  0.7818608E-02  0.1110515E+00
         21   -1    0    0  503  502  0.00000000000E+00  0.00000000000E+00  0.14539423747E+04  0.14539423747E+04  0.00000000000E+00 0. -1.
         21   -1    0    0  501  503 -0.00000000000E+00 -0.00000000000E+00 -0.65087917376E+02  0.65087917376E+02  0.00000000000E+00 0.  1.
          6    2    1    2  501    0 -0.15495993213E+03  0.10588182934E+03  0.26763831271E+03  0.36931403328E+03  0.17186927123E+03 0.  0.
         24    2    3    3    0    0 -0.15989673964E+03  0.32799772504E+02  0.16666258724E+03  0.24447995847E+03  0.73152167988E+02 0.  0.
         -6    2    1    2    0  502  0.15495993213E+03 -0.10588182934E+03  0.11212161447E+04  0.11497162588E+04  0.17175066363E+03 0.  0.
        -24    2    5    5    0    0  0.44176071773E+02  0.77307787105E+01  0.31915838250E+03  0.33209799079E+03  0.80098140475E+02 0.  0.
          5    1    3    3  501    0  0.49368075108E+01  0.73082056840E+02  0.10097572547E+03  0.12483407481E+03  0.47000000000E+01 0. -1.
        -11    1    4    4    0    0 -0.67480395287E+02 -0.12478486892E+01  0.11480224327E+03  0.13317175352E+03  0.00000000000E+00 0.  1.
         12    1    4    4    0    0 -0.92416344351E+02  0.34047621193E+02  0.51860343972E+02  0.11130820495E+03  0.00000000000E+00 0. -1.
         -5    1    5    5    0  502  0.11078386035E+03 -0.11361260805E+03  0.80205776215E+03  0.81761826805E+03  0.47000000000E+01 0.  1.
         13    1    6    6    0    0 -0.95129467221E+01  0.24637873650E+02  0.18094485490E+03  0.18286213793E+03  0.00000000000E+00 0. -1.
        -14    1    6    6    0    0  0.53689018495E+02 -0.16907094940E+02  0.13821352760E+03  0.14923585285E+03  0.00000000000E+00 0.  1.
</event>
<event>
12    1  0.8356052E-002  0.1826713E+03  0.7818608E-02  0.1166197E+00
         21   -1    0    0  503  502  0.00000000000E+00  0.00000000000E+00  0.25989351187E+03  0.25989351187E+03  0.00000000000E+00 0. -1.
         21   -1    0    0  501  503 -0.00000000000E+00 -0.00000000000E+00 -0.15966286547E+03  0.15966286547E+03  0.00000000000E+00 0. -1.
          6    2    1    2  501    0 -0.16346529818E+02  0.43222436258E+02 -0.46316535980E+02  0.18845167566E+03  0.17672980654E+03 0.  0.
         24    2    3    3    0    0  0.58990605607E+02  0.35547537523E+02 -0.23936108194E+02  0.10934692490E+03  0.81487997495E+02 0.  0.
         -6    2    1    2    0  502  0.16346529818E+02 -0.43222436258E+02  0.14654718238E+03  0.23110470168E+03  0.17262073583E+03 0.  0.
        -24    2    5    5    0    0  0.27548694128E+02  0.82310851995E+01  0.15676255583E+03  0.17725865066E+03  0.77585108175E+02 0.  0.
          5    1    3    3  501    0 -0.75337135424E+02  0.76748987356E+01 -0.22380427786E+02  0.79104750758E+02  0.47000000000E+01 0. -1.
        -13    1    4    4    0    0  0.56262164009E+00 -0.19530473856E+02  0.10264772317E+02  0.22070829229E+02  0.00000000000E+00 0.  1.
         14    1    4    4    0    0  0.58427983967E+02  0.55078011378E+02 -0.34200880511E+02  0.87276095670E+02  0.00000000000E+00 0. -1.
         -5    1    5    5    0  502 -0.11202164310E+02 -0.51453521458E+02 -0.10215373449E+02  0.53846051019E+02  0.47000000000E+01 0.  1.
         13    1    6    6    0    0 -0.16764570279E+02 -0.99267480350E+01  0.10479374950E+03  0.10658949797E+03  0.00000000000E+00 0. -1.
        -14    1    6    6    0    0  0.44313264407E+02  0.18157833234E+02  0.51968806332E+02  0.70669152689E+02  0.00000000000E+00 0.  1.
</event>
<event>
12    1  0.8356052E-002  0.1820626E+03  0.7818608E-02  0.1166003E+00
         21   -1    0    0  501  502  0.00000000000E+00  0.00000000000E+00  0.13525966009E+04  0.13525966009E+04  0.00000000000E+00 0.  1.
         21   -1    0    0  502  503 -0.00000000000E+00 -0.00000000000E+00 -0.27635660103E+02  0.27635660103E+02  0.00000000000E+00 0.  1.
         -6    2    1    2    0  503  0.13000535819E+02 -0.54936882782E+02  0.89724897389E+03  0.91538354535E+03  0.17229114581E+03 0.  0.
        -24    2    3    3    0    0  0.42169779008E+01  0.32460703031E+02  0.31933367194E+03  0.33081218518E+03  0.79945154249E+02 0.  0.
          6    2    1    2  501    0 -0.13000535819E+02  0.54936882782E+02  0.42771196690E+03  0.46484871565E+03  0.17308878297E+03 0.  0.
         24    2    5    5    0    0  0.15618919158E+02  0.66711905832E+02  0.41967827154E+03  0.43253223948E+03  0.79119261702E+02 0.  0.
          5    1    5    5  501    0 -0.28619454977E+02 -0.11775023050E+02  0.80336953656E+01  0.32316476173E+02  0.47000000000E+01 0. -1.
        -11    1    6    6    0    0 -0.26552413038E+02  0.10516867219E+02  0.19626230092E+03  0.19832933695E+03  0.00000000000E+00 0.  1.
         12    1    6    6    0    0  0.42171332197E+02  0.56195038612E+02  0.22341597062E+03  0.23420290253E+03  0.00000000000E+00 0. -1.
         -5    1    3    3    0  503  0.87835579179E+01 -0.87397585813E+02  0.57791530195E+03  0.58457136017E+03  0.47000000000E+01 0.  1.
         13    1    4    4    0    0 -0.25995692753E+02  0.51339711352E+00  0.22764641094E+03  0.22912644551E+03  0.00000000000E+00 0. -1.
        -14    1    4    4    0    0  0.30212670653E+02  0.31947305917E+02  0.91687260999E+02  0.10168573967E+03  0.00000000000E+00 0.  1.
</event>
<event>
12    1  0.8356052E-002  0.1782597E+03  0.7818608E-02  0.1169857E+00
         21   -1    0    0  503  502  0.00000000000E+00  0.00000000000E+00  0.29971949120E+03  0.29971949120E+03  0.00000000000E+00 0. -1.
         21   -1    0    0  501  503 -0.00000000000E+00 -0.00000000000E+00 -0.18405566225E+03  0.18405566225E+03  0.00000000000E+00 0. -1.
          6    2    1    2  501    0 -0.10903986239E+02 -0.46547265005E+02  0.21633987702E+03  0.28032029404E+03  0.17172938032E+03 0.  0.
         24    2    3    3    0    0  0.53417710087E+02 -0.53110191307E+02  0.10211038007E+03  0.14897791476E+03  0.78062444218E+02 0.  0.
         -6    2    1    2    0  502  0.10903986239E+02  0.46547265005E+02 -0.10067604806E+03  0.20345485941E+03  0.17021359631E+03 0.  0.
        -24    2    5    5    0    0  0.54768232202E+02 -0.14933062142E+02 -0.44412919937E+02  0.10915993756E+03  0.81980661790E+02 0.  0.
          5    1    3    3  501    0 -0.64321696326E+02  0.65629263025E+01  0.11422949695E+03  0.13134237928E+03  0.47000000000E+01 0. -1.
        -11    1    4    4    0    0  0.64359475829E+02 -0.17527105282E+02  0.84887958659E+02  0.10795974747E+03  0.00000000000E+00 0.  1.
         12    1    4    4    0    0 -0.10941765742E+02 -0.35583086025E+02  0.17222421407E+02  0.41018167289E+02  0.00000000000E+00 0. -1.
         -5    1    5    5    0  502 -0.43864245963E+02  0.61480327147E+02 -0.56263128126E+02  0.94294921849E+02  0.47000000000E+01 0.  1.
         13    1    6    6    0    0 -0.15859628353E+02  0.50947791071E+01 -0.30046031911E+02  0.34354746677E+02  0.00000000000E+00 0. -1.
        -14    1    6    6    0    0  0.70627860555E+02 -0.20027841249E+02 -0.14366888026E+02  0.74805190884E+02  0.00000000000E+00 0.  1.
</event>
<event>
12    1  0.8356052E-002  0.2226164E+03  0.7818608E-02  0.1132522E+00
         21   -1    0    0  501  502  0.00000000000E+00  0.00000000000E+00  0.10603107225E+03  0.10603107225E+03  0.00000000000E+00 0.  1.
         21   -1    0    0  502  503 -0.00000000000E+00 -0.00000000000E+00 -0.54788781531E+03  0.54788781531E+03  0.00000000000E+00 0. -1.
         -6    2    1    2    0  503 -0.48512995175E+02  0.13052705082E+03 -0.35252333615E+03  0.41693014716E+03  0.17368714226E+03 0.  0.
        -24    2    3    3    0    0 -0.22893949762E+02  0.15993014776E+03 -0.31344362479E+03  0.36152083894E+03  0.79678265364E+02 0.  0.
          6    2    1    2  501    0  0.48512995175E+02 -0.13052705082E+03 -0.89333406915E+02  0.23698874039E+03  0.16968318652E+03 0.  0.
         24    2    5    5    0    0  0.58075639857E+02 -0.56990830049E+02  0.61451897043E+01  0.11600414488E+03  0.82452796309E+02 0.  0.
          5    1    5    5  501    0 -0.95626446819E+01 -0.73536220767E+02 -0.95478596619E+02  0.12098459551E+03  0.47000000000E+01 0. -1.
        -13    1    6    6    0    0  0.40108949739E+02  0.67507470490E+01  0.24243646405E+02  0.47350341349E+02  0.00000000000E+00 0.  1.
         14    1    6    6    0    0  0.17966690118E+02 -0.63741577098E+02 -0.18098456701E+02  0.68653803534E+02  0.00000000000E+00 0. -1.
         -5    1    3    3    0  503 -0.25619045413E+02 -0.29403096939E+02 -0.39079711358E+02  0.55409308219E+02  0.47000000000E+01 0.  1.
         13    1    4    4    0    0 -0.11045894360E+02  0.70458865529E+02 -0.22143497418E+03  0.23263686575E+03  0.00000000000E+00 0. -1.
        -14    1    4    4    0    0 -0.11848055401E+02  0.89471282226E+02 -0.92008650613E+02  0.12888397320E+03  0.00000000000E+00 0.  1.
</event>
<event>
12    1  0.8356052E-002  0.2795020E+03  0.7818608E-02  0.1095988E+00
         21   -1    0    0  501  502  0.00000000000E+00  0.00000000000E+00  0.45055412061E+03  0.45055412061E+03  0.00000000000E+00 0. -1.
         21   -1    0    0  502  503 -0.00000000000E+00 -0.00000000000E+00 -0.28319301563E+03  0.28319301563E+03  0.00000000000E+00 0. -1.
         -6    2    1    2    0  503  0.17960407291E+03  0.12654664255E+03 -0.14490921819E+03  0.31465990592E+03  0.17245433926E+03 0.  0.
        -24    2    3    3    0    0  0.18114822227E+03  0.11465568020E+03 -0.82723491910E+02  0.25115452082E+03  0.10136475613E+03 0.  0.
          6    2    1    2  501    0 -0.17960407291E+03 -0.12654664255E+03  0.31227032317E+03  0.41908723032E+03  0.17277058818E+03 0.  0.
         24    2    5    5    0    0 -0.18623451449E+03 -0.11796913953E+03  0.32541763123E+03  0.40141018241E+03  0.81446224935E+02 0.  0.
          5    1    5    5  501    0  0.66304415840E+01 -0.85775030263E+01 -0.13147308059E+02  0.17677047914E+02  0.47000000000E+01 0. -1.
        -13    1    6    6    0    0 -0.39429257927E+02 -0.57487707587E+02  0.59275021100E+02  0.91504267828E+02  0.00000000000E+00 0.  1.
         14    1    6    6    0    0 -0.14680525657E+03 -0.60481431939E+02  0.26614261013E+03  0.30990591458E+03  0.00000000000E+00 0. -1.
         -5    1    3    3    0  503 -0.15441493556E+01  0.11890962357E+02 -0.62185726280E+02  0.63505385094E+02  0.47000000000E+01 0.  1.
         13    1    4    4    0    0  0.70528782978E+02 -0.84361541162E+01 -0.33215583270E+02  0.78413984063E+02  0.00000000000E+00 0. -1.
        -14    1    4    4    0    0  0.11061943929E+03  0.12309183431E+03 -0.49507908639E+02  0.17274053676E+03  0.00000000000E+00 0.  1.
</event>
<event>
12    1  0.8356052E-002  0.2233099E+03  0.7818608E-02  0.1131447E+00
         21   -1    0    0  501  502  0.00000000000E+00  0.00000000000E+00  0.11895477329E+03  0.11895477329E+03  0.00000000000E+00 0. -1.
         21   -1    0    0  502  503 -0.00000000000E+00 -0.00000000000E+00 -0.46189335469E+03  0.46189335469E+03  0.00000000000E+00 0. -1.
         -6    2    1    2    0  503  0.36692882191E+02  0.13720541601E+03 -0.25982434649E+03  0.34257251006E+03  0.17226589865E+03 0.  0.
        -24    2    3    3    0    0  0.54758505184E+02  0.12799165032E+03 -0.11649993745E+03  0.19774421021E+03  0.78423088471E+02 0.  0.
          6    2    1    2  501    0 -0.36692882191E+02 -0.13720541601E+03 -0.83114234916E+02  0.23827561791E+03  0.17232411398E+03 0.  0.
         24    2    5    5    0    0 -0.41302893926E+02 -0.25071040061E+01 -0.39978949106E+02  0.96685963105E+02  0.77702281002E+02 0.  0.
          5    1    5    5  501    0  0.46100117353E+01 -0.13469831201E+03 -0.43135285810E+02  0.14158965481E+03  0.47000000000E+01 0. -1.
        -13    1    6    6    0    0 -0.13218086196E+02  0.50072762078E+01  0.23184182137E+02  0.27153211948E+02  0.00000000000E+00 0.  1.
         14    1    6    6    0    0 -0.28084807730E+02 -0.75143802139E+01 -0.63163131243E+02  0.69532751158E+02  0.00000000000E+00 0. -1.
         -5    1    3    3    0  503 -0.18065622993E+02  0.92137656968E+01 -0.14332440904E+03  0.14482829985E+03  0.47000000000E+01 0.  1.
         13    1    4    4    0    0  0.18167777560E+02  0.92925081772E+02 -0.33387901026E+02  0.10039865985E+03  0.00000000000E+00 0. -1.
        -14    1    4    4    0    0  0.36590727624E+02  0.35066568545E+02 -0.83112036423E+02  0.97345550366E+02  0.00000000000E+00 0.  1.
</event>
<event>
12    1  0.8356052E-002  0.2521301E+03  0.7818608E-02  0.1113633E+00
         21   -1    0    0  501  502  0.00000000000E+00  0.00000000000E+00  0.34321963246E+03  0.34321963246E+03  0.00000000000E+00 0. -1.
         21   -1    0    0  502  503 -0.00000000000E+00 -0.00000000000E+00 -0.17772854739E+03  0.17772854739E+03  0.00000000000E+00 0.  1.
         -6    2    1    2    0  503  0.12378422351E+03  0.12049709157E+03  0.86986290587E+02  0.25687887497E+03  0.16905046166E+03 0.  0.
        -24    2    3    3    0    0  0.10406450178E+02  0.90046177759E+02  0.65855324141E+02  0.13750389693E+03  0.79710661893E+02 0.  0.
          6    2    1    2  501    0 -0.12378422351E+03 -0.12049709157E+03  0.78504794487E+02  0.26406930488E+03  0.18365051580E+03 0.  0.
         24    2    5    5    0    0 -0.14813399447E+03 -0.71943923965E+02  0.19968912580E+02  0.18407642457E+03  0.79785738687E+02 0.  0.
          5    1    5    5  501    0  0.24349770960E+02 -0.48553167607E+02  0.58535881907E+02  0.79992880315E+02  0.47000000000E+01 0. -1.
        -13    1    6    6    0    0 -0.10151956857E+03 -0.87051635142E+02  0.18920772885E+02  0.13506370952E+03  0.00000000000E+00 0.  1.
         14    1    6    6    0    0 -0.46614425901E+02  0.15107711177E+02  0.10481396951E+01  0.49012715043E+02  0.00000000000E+00 0. -1.
         -5    1    3    3    0  503  0.11337777333E+03  0.30450913814E+02  0.21130966446E+02  0.11937497804E+03  0.47000000000E+01 0.  1.
         13    1    4    4    0    0 -0.65753805343E+00  0.19732481605E+02  0.63269119516E+02  0.66278085902E+02  0.00000000000E+00 0. -1.
        -14    1    4    4    0    0  0.11063988231E+02  0.70313696154E+02  0.25862046248E+01  0.71225811030E+02  0.00000000000E+00 0.  1.
</event>
<event>
12    1  0.8356052E-002  0.1927143E+03  0.7818608E-02  0.1156050E+00
         21   -1    0    0  501  502  0.00000000000E+00  0.00000000000E+00  0.17044286028E+03  0.17044286028E+03  0.00000000000E+00 0.  1.
         21   -1    0    0  502  503 -0.00000000000E+00 -0.00000000000E+00 -0.44954266636E+03  0.44954266636E+03  0.00000000000E+00 0.  1.
         -6    2    1    2    0  503 -0.68704477784E+02  0.53620981143E+02 -0.36212286146E+03  0.41020941645E+03  0.17188159780E+03 0.  0.
        -24    2    3    3    0    0 -0.54442194922E+02 -0.13811789856E+02 -0.98526984513E+02  0.13771085194E+03  0.78115260588E+02 0.  0.
          6    2    1    2  501    0  0.68704477784E+02 -0.53620981143E+02  0.83023055378E+02  0.20977611019E+03  0.17180708308E+03 0.  0.
         24    2    5    5    0    0 -0.71539272788E+00 -0.22569724976E+02  0.99261050925E+02  0.13187192910E+03  0.83830454983E+02 0.  0.
          5    1    5    5  501    0  0.69419870512E+02 -0.31051256168E+02 -0.16237995547E+02  0.77904181087E+02  0.47000000000E+01 0. -1.
        -13    1    6    6    0    0 -0.43550967271E+01  0.24281810423E+02  0.75067323302E+02  0.79016936240E+02  0.00000000000E+00 0.  1.
         14    1    6    6    0    0  0.36397039992E+01 -0.46851535399E+02  0.24193727622E+02  0.52854992864E+02  0.00000000000E+00 0. -1.
         -5    1    3    3    0  503 -0.14262282862E+02  0.67432771000E+02 -0.26359587695E+03  0.27249856451E+03  0.47000000000E+01 0.  1.
         11    1    4    4    0    0 -0.13754508659E+02 -0.27863871140E+02 -0.98105957200E+00  0.31089295605E+02  0.00000000000E+00 0. -1.
        -12    1    4    4    0    0 -0.40687686263E+02  0.14052081283E+02 -0.97545924941E+02  0.10662155633E+03  0.00000000000E+00 0.  1.
</event>
<event>
12    1  0.8356052E-002  0.1975135E+03  0.7818608E-02  0.1152013E+00
         21   -1    0    0  503  502  0.00000000000E+00  0.00000000000E+00  0.56117386145E+03  0.56117386145E+03  0.00000000000E+00 0. -1.
         21   -1    0    0  501  503 -0.00000000000E+00 -0.00000000000E+00 -0.10045625552E+03  0.10045625552E+03  0.00000000000E+00 0.  1.
          6    2    1    2  501    0 -0.92897655865E+02 -0.22477703359E+02  0.45703949017E+02  0.20201297740E+03  0.17200340250E+03 0.  0.
         24    2    3    3    0    0 -0.86283772766E+02  0.14201722296E+02 -0.25750077422E+02  0.12128571057E+03  0.80003617057E+02 0.  0.
         -6    2    1    2    0  502  0.92897655865E+02  0.22477703359E+02  0.41501365692E+03  0.45961713957E+03  0.17284778838E+03 0.  0.
        -24    2    5    5    0    0  0.63445870064E+02 -0.28858100639E+02  0.36896846747E+03  0.38448377861E+03  0.82655172996E+02 0.  0.
          5    1    3    3  501    0 -0.66138830986E+01 -0.36679425655E+02  0.71454026439E+02  0.80727266834E+02  0.47000000000E+01 0. -1.
        -11    1    4    4    0    0 -0.60315537548E+02 -0.13817560018E+02  0.16784340779E+02  0.64113985447E+02  0.00000000000E+00 0.  1.
         12    1    4    4    0    0 -0.25968235218E+02  0.28019282314E+02 -0.42534418201E+02  0.57171725122E+02  0.00000000000E+00 0. -1.
         -5    1    5    5    0  502  0.29451785801E+02  0.51335803998E+02  0.46045189446E+02  0.75133360966E+02  0.47000000000E+01 0.  1.
         11    1    6    6    0    0  0.67750968457E+01 -0.25273082901E+02  0.26266186490E+03  0.26396190242E+03  0.00000000000E+00 0. -1.
        -12    1    6    6    0    0  0.56670773218E+02 -0.35850177380E+01  0.10630660257E+03  0.12052187619E+03  0.00000000000E+00 0.  1.
</event>
<event>
12    1  0.8356052E-002  0.1932366E+03  0.7818608E-02  0.1156383E+00
         21   -1    0    0  503  502  0.00000000000E+00  0.00000000000E+00  0.15865708058E+04  0.15865708058E+04  0.00000000000E+00 0.  1.
         21   -1    0    0  501  503 -0.00000000000E+00 -0.00000000000E+00 -0.63530893174E+02  0.63530893174E+02  0.00000000000E+00 0.  1.
          6    2    1    2  501    0 -0.66224713997E+02 -0.57984978865E+02  0.10068784033E+03  0.21468336822E+03  0.16793730045E+03 0.  0.
         24    2    3    3    0    0  0.29311816574E+02 -0.32278949413E+02  0.51990285362E+02  0.10431321608E+03  0.79228429936E+02 0.  0.
         -6    2    1    2    0  502  0.66224713997E+02  0.57984978865E+02  0.14223520723E+04  0.14354183307E+04  0.17202440580E+03 0.  0.
        -24    2    5    5    0    0  0.70340810600E+02  0.56722558408E+02  0.14238088191E+04  0.14288801301E+04  0.79382582782E+02 0.  0.
          5    1    3    3  501    0 -0.95536530572E+02 -0.25706029452E+02  0.48697554970E+02  0.11037015214E+03  0.47000000000E+01 0. -1.
        -11    1    4    4    0    0  0.69585453173E+01 -0.56755535320E+02  0.30467670270E+02  0.64791134224E+02  0.00000000000E+00 0.  1.
         12    1    4    4    0    0  0.22353271257E+02  0.24476585907E+02  0.21522615091E+02  0.39522081852E+02  0.00000000000E+00 0. -1.
         -5    1    5    5    0  502 -0.41160966026E+01  0.12624204566E+01 -0.14567468376E+01  0.65382006699E+01  0.47000000000E+01 0.  1.
         11    1    6    6    0    0  0.22202367458E+02 -0.19725651142E+02  0.39241522057E+03  0.39353748458E+03  0.00000000000E+00 0. -1.
        -12    1    6    6    0    0  0.48138443142E+02  0.76448209550E+02  0.10313935985E+04  0.10353426455E+04  0.00000000000E+00 0.  1.
</event>
<event>
12    1  0.8356052E-002  0.1881555E+03  0.7818608E-02  0.1160453E+00
         21   -1    0    0  503  502  0.00000000000E+00  0.00000000000E+00  0.94184850823E+03  0.94184850823E+03  0.00000000000E+00 0.  1.
         21   -1    0    0  501  503 -0.00000000000E+00 -0.00000000000E+00 -0.43258994995E+02  0.43258994995E+02  0.00000000000E+00 0.  1.
          6    2    1    2  501    0 -0.57911675897E+02  0.51355299089E+02  0.26524036994E+03  0.32440058502E+03  0.16997693009E+03 0.  0.
         24    2    3    3    0    0 -0.78197893209E+02 -0.50743003475E+01  0.10476606375E+03  0.15302403104E+03  0.79371071147E+02 0.  0.
         -6    2    1    2    0  502  0.57911675897E+02 -0.51355299089E+02  0.63334914329E+03  0.66070691821E+03  0.17149742130E+03 0.  0.
        -24    2    5    5    0    0 -0.16336767052E+02  0.13315057007E+02  0.24796406633E+03  0.26291446758E+03  0.84815437084E+02 0.  0.
          5    1    3    3  501    0  0.20286217312E+02  0.56429599437E+02  0.16047430619E+03  0.17137655398E+03  0.47000000000E+01 0. -1.
        -13    1    4    4    0    0 -0.29169518395E+02  0.36325355214E+02  0.53102046133E+02  0.70641485957E+02  0.00000000000E+00 0.  1.
         14    1    4    4    0    0 -0.49028374815E+02 -0.41399655562E+02  0.51664017619E+02  0.82382545082E+02  0.00000000000E+00 0. -1.
         -5    1    5    5    0  502  0.74248442949E+02 -0.64670356097E+02  0.38538507696E+03  0.39779245063E+03  0.47000000000E+01 0.  1.
         13    1    6    6    0    0 -0.22310043861E+02 -0.47834716259E+01  0.11259708584E+02  0.25444069944E+02  0.00000000000E+00 0. -1.
        -14    1    6    6    0    0  0.59732768094E+01  0.18098528633E+02  0.23670435775E+03  0.23747039763E+03  0.00000000000E+00 0.  1.
</event>
<event>
12    1  0.8356052E-002  0.1904755E+03  0.7818608E-02  0.1158227E+00
         21   -1    0    0  501  502  0.00000000000E+00  0.00000000000E+00  0.24904021737E+03  0.24904021737E+03  0.00000000000E+00 0.  1.
         21   -1    0    0  502  503 -0.00000000000E+00 -0.00000000000E+00 -0.21927389616E+03  0.21927389616E+03  0.00000000000E+00 0.  1.
         -6    2    1    2    0  503  0.17268502233E+02 -0.77229764004E+02 -0.12135025850E+03  0.22584685171E+03  0.17325783553E+03 0.  0.
        -24    2    3    3    0    0  0.48009518033E+02 -0.80437145752E+02 -0.14203333276E+03  0.18836116230E+03  0.80817149222E+02 0.  0.
          6    2    1    2  501    0 -0.17268502233E+02  0.77229764004E+02  0.15111657971E+03  0.24246726181E+03  0.17231225948E+03 0.  0.
         24    2    5    5    0    0  0.50972196065E+02  0.59364241127E+02  0.61804943656E+02  0.12856103658E+03  0.81153010844E+02 0.  0.
          5    1    5    5  501    0 -0.68240698298E+02  0.17865522877E+02  0.89311636058E+02  0.11390622523E+03  0.47000000000E+01 0. -1.
        -13    1    6    6    0    0 -0.10202864200E+02  0.34872390452E+02  0.49696136823E+02  0.61562066802E+02  0.00000000000E+00 0.  1.
         14    1    6    6    0    0  0.61175060266E+02  0.24491850675E+02  0.12108806833E+02  0.66998969775E+02  0.00000000000E+00 0. -1.
         -5    1    3    3    0  503 -0.30741015800E+02  0.32073817486E+01  0.20683074260E+02  0.37485689415E+02  0.47000000000E+01 0.  1.
         13    1    4    4    0    0  0.38374302587E+02  0.21837485579E-01 -0.70516712458E+02  0.80281967538E+02  0.00000000000E+00 0. -1.
        -14    1    4    4    0    0  0.96352154457E+01 -0.80458983238E+02 -0.71516620306E+02  0.10807919476E+03  0.00000000000E+00 0.  1.
</event>
<event>
12    1  0.8356052E-002  0.2184349E+03  0.7818608E-02  0.1135265E+00
         21   -1    0    0  503  502  0.00000000000E+00  0.00000000000E+00  0.32589991836E+03  0.32589991836E+03  0.00000000000E+00 0.  1.
         21   -1    0    0  501  503 -0.00000000000E+00 -0.00000000000E+00 -0.18284448507E+03  0.18284448507E+03  0.00000000000E+00 0. -1.
          6    2    1    2  501    0  0.13221043857E+03 -0.23092771238E+02 -0.43326295712E+02  0.22159990989E+03  0.17092827738E+03 0.  0.
         24    2    3    3    0    0  0.37123741622E+02 -0.41825067589E+02 -0.72808185526E+02  0.12019157349E+03  0.77572379021E+02 0.  0.
         -6    2    1    2    0  502 -0.13221043857E+03  0.23092771238E+02  0.18638172900E+03  0.28714449354E+03  0.17233959241E+03 0.  0.
        -24    2    5    5    0    0 -0.55505253564E+02 -0.50735996122E+02  0.11318121560E+03  0.15785885064E+03  0.80339620896E+02 0.  0.
          5    1    3    3  501    0  0.95086696952E+02  0.18732296351E+02  0.29481889815E+02  0.10140833640E+03  0.47000000000E+01 0. -1.
        -13    1    4    4    0    0  0.39757755863E+00 -0.35577943652E+01 -0.66706160992E+02  0.66802154778E+02  0.00000000000E+00 0.  1.
         14    1    4    4    0    0  0.36726164064E+02 -0.38267273224E+02 -0.61020245347E+01  0.53389418711E+02  0.00000000000E+00 0. -1.
         -5    1    5    5    0  502 -0.76705185010E+02  0.73828767360E+02  0.73200513399E+02  0.12928564290E+03  0.47000000000E+01 0.  1.
         11    1    6    6    0    0  0.18092698113E+02 -0.89061269407E+01  0.55321587938E+01  0.20910992397E+02  0.00000000000E+00 0. -1.
        -12    1    6    6    0    0 -0.73597951677E+02 -0.41829869181E+02  0.10764905681E+03  0.13694785825E+03  0.00000000000E+00 0.  1.
</event>
<event>
12    1  0.8356052E-002  0.1779946E+03  0.7818608E-02  0.1169935E+00
         21   -1    0    0  503  502  0.00000000000E+00  0.00000000000E+00  0.51883571293E+02  0.51883571293E+02  0.00000000000E+00 0. -1.
         21   -1    0    0  501  503 -0.00000000000E+00 -0.00000000000E+00 -0.63983190765E+03  0.63983190765E+03  0.00000000000E+00 0.  1.
          6    2    1    2  501    0 -0.42232291177E+02  0.51574427885E+01 -0.37033385395E+03  0.41057827347E+03  0.17209645444E+03 0.  0.
         24    2    3    3    0    0 -0.83748743079E+02 -0.73438436628E+01 -0.33414581706E+03  0.35390762890E+03  0.80804694986E+02 0.  0.
         -6    2    1    2    0  502  0.42232291177E+02 -0.51574427885E+01 -0.21761448241E+03  0.28113720548E+03  0.17283489148E+03 0.  0.
        -24    2    5    5    0    0 -0.62574282998E+01 -0.53286673293E+02 -0.18815519438E+03  0.20658778982E+03  0.66313744955E+02 0.  0.
          5    1    3    3  501    0  0.41516451902E+02  0.12501286451E+02 -0.36188036891E+02  0.56670644566E+02  0.47000000000E+01 0. -1.
        -11    1    4    4    0    0 -0.19168105473E+02 -0.35359113105E+02 -0.71976481633E+02  0.82451786247E+02  0.00000000000E+00 0.  1.
         12    1    4    4    0    0 -0.64580637606E+02  0.28015269442E+02 -0.26216933542E+03  0.27145584266E+03  0.00000000000E+00 0. -1.
         -5    1    5    5    0  502  0.48489719477E+02  0.48129230504E+02 -0.29459288032E+02  0.74549415660E+02  0.47000000000E+01 0.  1.
         11    1    6    6    0    0 -0.22950258732E+02  0.36528105584E+00 -0.24578294738E+02  0.33629457004E+02  0.00000000000E+00 0. -1.
        -12    1    6    6    0    0  0.16692830433E+02 -0.53651954349E+02 -0.16357689964E+03  0.17295833281E+03  0.00000000000E+00 0.  1.
</event>
<event>
12    1  0.8356052E-002  0.1864348E+03  0.7818608E-02  0.1162322E+00
         21   -1    0    0  501  502  0.00000000000E+00  0.00000000000E+00  0.15523449480E+03  0.15523449480E+03  0.00000000000E+00 0.  1.
         21   -1    0    0  502  503 -0.00000000000E+00 -0.00000000000E+00 -0.61648788946E+03  0.61648788946E+03  0.00000000000E+00 0.  1.
         -6    2    1    2    0  503  0.53408878253E+02  0.15532638353E+01 -0.54033848418E+03  0.57159741835E+03  0.17861413793E+03 0.  0.
        -24    2    3    3    0    0  0.33147490846E+02 -0.66662090345E+02 -0.25435928766E+03  0.27686016382E+03  0.80064428122E+02 0.  0.
          6    2    1    2  501    0 -0.53408878253E+02 -0.15532638353E+01  0.79085089519E+02  0.20012496591E+03  0.17589948747E+03 0.  0.
         24    2    5    5    0    0 -0.28419823344E+02 -0.35234406286E+02  0.11341294825E+03  0.14572492816E+03  0.79524261152E+02 0.  0.
          5    1    5    5  501    0 -0.24989054909E+02  0.33681142451E+02 -0.34327858731E+02  0.54400037749E+02  0.47000000000E+01 0. -1.
        -13    1    6    6    0    0 -0.36877019840E+02 -0.53981222700E+02  0.60970686726E+02  0.89394136476E+02  0.00000000000E+00 0.  1.
         14    1    6    6    0    0  0.84571964963E+01  0.18746816414E+02  0.52442261524E+02  0.56330791686E+02  0.00000000000E+00 0. -1.
         -5    1    3    3    0  503  0.20261387407E+02  0.68215354180E+02 -0.28597919652E+03  0.29473725453E+03  0.47000000000E+01 0.  1.
         11    1    4    4    0    0  0.22310260640E+01 -0.10397780543E+02  0.34482144072E+01  0.11179512517E+02  0.00000000000E+00 0. -1.
        -12    1    4    4    0    0  0.30916464782E+02 -0.56264309802E+02 -0.25780750207E+03  0.26568065130E+03  0.00000000000E+00 0.  1.
</event>
<event>
12    1  0.8356052E-002  0.3195105E+03  0.7818608E-02  0.1076221E+00
         21   -1    0    0  503  502  0.00000000000E+00  0.00000000000E+00  0.19351804678E+03  0.19351804678E+03  0.00000000000E+00 0.  1.
         21   -1    0    0  501  503 -0.00000000000E+00 -0.00000000000E+00 -0.52423884425E+03  0.52423884425E+03  0.00000000000E+00 0.  1.
          6    2    1    2  501    0  0.21182260172E+03  0.16065636026E+03 -0.18461153154E+03  0.36642389325E+03  0.17177244038E+03 0.  0.
         24    2    3    3    0    0  0.22362063866E+03  0.11225018911E+03 -0.13170427911E+03  0.29359794704E+03  0.79040764040E+02 0.  0.
         -6    2    1    2    0  502 -0.21182260172E+03 -0.16065636026E+03 -0.14610926594E+03  0.35133299779E+03  0.17722211220E+03 0.  0.
        -24    2    5    5    0    0 -0.20907157394E+03 -0.18625129641E+03 -0.14502490428E+03  0.32514264173E+03  0.79278283072E+02 0.  0.
          5    1    3    3  501    0 -0.11798036942E+02  0.48406171157E+02 -0.52907252425E+02  0.72825946207E+02  0.47000000000E+01 0. -1.
        -11    1    4    4    0    0  0.11973312210E+03  0.10167202391E+03 -0.67131844902E+02  0.17082126792E+03  0.00000000000E+00 0.  1.
         12    1    4    4    0    0  0.10388751656E+03  0.10578165196E+02 -0.64572434210E+02  0.12277667912E+03  0.00000000000E+00 0. -1.
         -5    1    5    5    0  502 -0.27510277784E+01  0.25594936148E+02 -0.10843616607E+01  0.26190356059E+02  0.47000000000E+01 0.  1.
         11    1    6    6    0    0 -0.10570625120E+02  0.41909985509E+01 -0.19942122373E+02  0.22956280818E+02  0.00000000000E+00 0. -1.
        -12    1    6    6    0    0 -0.19850094882E+03 -0.19044229496E+03 -0.12508278190E+03  0.30218636091E+03  0.00000000000E+00 0.  1.
</event>
<event>
12    1  0.8356052E-002  0.3506143E+03  0.7818608E-02  0.1062398E+00
         21   -1    0    0  501  502  0.00000000000E+00  0.00000000000E+00  0.69339065594E+03  0.69339065594E+03  0.00000000000E+00 0. -1.
         21   -1    0    0  502  503 -0.00000000000E+00 -0.00000000000E+00 -0.20011919586E+03  0.20011919586E+03  0.00000000000E+00 0. -1.
         -6    2    1    2    0  503  0.16788787848E+03  0.25461524282E+03  0.95068307356E+02  0.36294775397E+03  0.17227253824E+03 0.  0.
        -24    2    3    3    0    0  0.85196927626E+02  0.19243045407E+03  0.12152525920E+03  0.25605153511E+03  0.80659803378E+02 0.  0.
          6    2    1    2  501    0 -0.16788787848E+03 -0.25461524282E+03  0.39820315272E+03  0.53056209783E+03  0.17295990055E+03 0.  0.
         24    2    5    5    0    0 -0.61386076721E+02 -0.36163909598E+02  0.12413406868E+03  0.16422950087E+03  0.80535601925E+02 0.  0.
          5    1    5    5  501    0 -0.10650180176E+03 -0.21845133322E+03  0.27406908404E+03  0.36633259695E+03  0.47000000000E+01 0. -1.
        -11    1    6    6    0    0 -0.28491742328E+02 -0.36975701195E+01 -0.30652710971E+01  0.28893724103E+02  0.00000000000E+00 0.  1.
         12    1    6    6    0    0 -0.32894334393E+02 -0.32466339478E+02  0.12719933978E+03  0.13533577677E+03  0.00000000000E+00 0. -1.
         -5    1    3    3    0  503  0.82690950856E+02  0.62184788752E+02 -0.26456951840E+02  0.10689621886E+03  0.47000000000E+01 0.  1.
         13    1    4    4    0    0  0.70184496663E+02  0.71078175532E+02  0.76230741872E+02  0.12565467208E+03  0.00000000000E+00 0. -1.
        -14    1    4    4    0    0  0.15012430963E+02  0.12135227854E+03  0.45294517323E+02  0.13039686304E+03  0.00000000000E+00 0.  1.
</event>
<event>
12    1  0.8356052E-002  0.4576670E+03  0.7818608E-02  0.1025488E+00
         21   -1    0    0  501  502  0.00000000000E+00  0.00000000000E+00  0.74313921742E+03  0.74313921742E+03  0.00000000000E+00 0. -1.
         21   -1    0    0  502  503 -0.00000000000E+00 -0.00000000000E+00 -0.40063625112E+03  0.40063625112E+03  0.00000000000E+00 0.  1.
         -6    2    1    2    0  503  0.27011550419E+03  0.32580545535E+03 -0.14049964741E+03  0.47838038309E+03  0.17319370560E+03 0.  0.
        -24    2    3    3    0    0  0.58313485126E+02  0.14920370707E+03 -0.79687600497E+02  0.19594726211E+03  0.79893723808E+02 0.  0.
          6    2    1    2  501    0 -0.27011550419E+03 -0.32580545535E+03  0.48300261371E+03  0.66539508546E+03  0.17420538037E+03 0.  0.
         24    2    5    5    0    0 -0.26162038915E+03 -0.22015528407E+03  0.36156934928E+03  0.50414294320E+03  0.80710195828E+02 0.  0.
          5    1    5    5  501    0 -0.84951150364E+01 -0.10565017128E+03  0.12143326443E+03  0.16125214226E+03  0.47000000000E+01 0. -1.
        -11    1    6    6    0    0 -0.56570770640E+02 -0.25926866958E+02  0.10767377514E+03  0.12436276121E+03  0.00000000000E+00 0.  1.
         12    1    6    6    0    0 -0.20504961851E+03 -0.19422841711E+03  0.25389557414E+03  0.37978018199E+03  0.00000000000E+00 0. -1.
         -5    1    3    3    0  503  0.21180201907E+03  0.17660174828E+03 -0.60812046913E+02  0.28243312098E+03  0.47000000000E+01 0.  1.
         11    1    4    4    0    0  0.41956292266E+01  0.17619819109E+02 -0.46424386822E+02  0.49832569890E+02  0.00000000000E+00 0. -1.
        -12    1    4    4    0    0  0.54117855899E+02  0.13158388796E+03 -0.33263213675E+02  0.14611469222E+03  0.00000000000E+00 0.  1.
</event>
<event>
12    1  0.8356052E-002  0.1946728E+03  0.7818608E-02  0.1154786E+00
         21   -1    0    0  501  502  0.00000000000E+00  0.00000000000E+00  0.84590779368E+03  0.84590779368E+03  0.00000000000E+00 0. -1.
         21   -1    0    0  502  503 -0.00000000000E+00 -0.00000000000E+00 -0.31077197316E+03  0.31077197316E+03  0.00000000000E+00 0. -1.
         -6    2    1    2    0  503  0.88034220869E+02  0.19113752191E+02 -0.26774704905E+03  0.33103772604E+03  0.17257501042E+03 0.  0.
        -24    2    3    3    0    0  0.10392298243E+03 -0.29504810331E+02 -0.23282836674E+03  0.26892797044E+03  0.80266336784E+02 0.  0.
          6    2    1    2  501    0 -0.88034220869E+02 -0.19113752191E+02  0.80288286957E+03  0.82564204079E+03  0.17014263932E+03 0.  0.
         24    2    5    5    0    0 -0.11460226088E+03 -0.18249014387E+02  0.44290080811E+03  0.46464926649E+03  0.79190342266E+02 0.  0.
          5    1    5    5  501    0  0.26568040012E+02 -0.86473780358E+00  0.35998206146E+03  0.36099277430E+03  0.47000000000E+01 0. -1.
        -13    1    6    6    0    0 -0.38760341272E+02  0.22165109588E+02  0.24285538689E+03  0.24692588985E+03  0.00000000000E+00 0.  1.
         14    1    6    6    0    0 -0.75841919609E+02 -0.40414123976E+02  0.20004542122E+03  0.21772337665E+03  0.00000000000E+00 0. -1.
         -5    1    3    3    0  503 -0.15888761561E+02  0.48618562522E+02 -0.34918682315E+02  0.62109755597E+02  0.47000000000E+01 0.  1.
         13    1    4    4    0    0  0.40043657459E+02 -0.22629724304E+02 -0.17989704110E+03  0.18568399048E+03  0.00000000000E+00 0. -1.
        -14    1    4    4    0    0  0.63879324970E+02 -0.68750860268E+01 -0.52931325638E+02  0.83243979965E+02  0.00000000000E+00 0.  1.
</event>
<event>
12    1  0.8356052E-002  0.1756098E+03  0.7818608E-02  0.1172365E+00
         21   -1    0    0  503  502  0.00000000000E+00  0.00000000000E+00  0.92141558356E+03  0.92141558356E+03  0.00000000000E+00 0.  1.
         21   -1    0    0  501  503 -0.00000000000E+00 -0.00000000000E+00 -0.33721698821E+02  0.33721698821E+02  0.00000000000E+00 0.  1.
          6    2    1    2  501    0 -0.24700904021E+02 -0.21358900178E+02  0.39062809514E+03  0.42828626741E+03  0.17254703957E+03 0.  0.
         24    2    3    3    0    0 -0.24529750174E+02 -0.16927436581E+02  0.40431050617E+03  0.41315466027E+03  0.79633794031E+02 0.  0.
         -6    2    1    2    0  502  0.24700904021E+02  0.21358900178E+02  0.49706578959E+03  0.52685101496E+03  0.17155540070E+03 0.  0.
        -24    2    5    5    0    0 -0.52655185992E+02  0.16422042353E+02  0.29224784004E+03  0.30780576922E+03  0.79330570812E+02 0.  0.
          5    1    3    3  501    0 -0.17115384707E+00 -0.44314635968E+01 -0.13682411027E+02  0.15131607144E+02  0.47000000000E+01 0. -1.
        -13    1    4    4    0    0 -0.17635642301E+02  0.10260113414E+02  0.22727375818E+02  0.30542092565E+02  0.00000000000E+00 0.  1.
         14    1    4    4    0    0 -0.68941078730E+01 -0.27187549995E+02  0.38158313035E+03  0.38261256771E+03  0.00000000000E+00 0. -1.
         -5    1    5    5    0  502  0.77356090013E+02  0.49368578252E+01  0.20481794955E+03  0.21904524575E+03  0.47000000000E+01 0.  1.
         13    1    6    6    0    0 -0.24776189768E+02  0.40929502198E+02  0.87555599561E+02  0.99775080777E+02  0.00000000000E+00 0. -1.
        -14    1    6    6    0    0 -0.27878996224E+02 -0.24507459845E+02  0.20469224048E+03  0.20803068844E+03  0.00000000000E+00 0.  1.
</event>
<event>
12    1  0.8356052E-002  0.2785342E+03  0.7818608E-02  0.1096616E+00
         21   -1    0    0  501  502  0.00000000000E+00  0.00000000000E+00  0.10058064834E+03  0.10058064834E+03  0.00000000000E+00 0.  1.
         21   -1    0    0  502  503 -0.00000000000E+00 -0.00000000000E+00 -0.98219679308E+03  0.98219679308E+03  0.00000000000E+00 0.  1.
         -6    2    1    2    0  503 -0.19761686455E+03 -0.90787255025E+02 -0.69257005841E+03  0.74614749328E+03  0.17259213509E+03 0.  0.
        -24    2    3    3    0    0 -0.26455919177E+02 -0.21197871263E+01 -0.22774751065E+03  0.24291784393E+03  0.80223071082E+02 0.  0.
          6    2    1    2  501    0  0.19761686455E+03  0.90787255025E+02 -0.18904608634E+03  0.33662994815E+03  0.17403030885E+03 0.  0.
         24    2    5    5    0    0  0.20104637189E+03  0.53132559180E+02 -0.10889076015E+03  0.24787971459E+03  0.79652010420E+02 0.  0.
          5    1    5    5  501    0 -0.34295073411E+01  0.37654695844E+02 -0.80155326190E+02  0.88750233557E+02  0.47000000000E+01 0. -1.
        -13    1    6    6    0    0  0.72089172491E+02  0.52524619080E+02 -0.20452609203E+02  0.91509527500E+02  0.00000000000E+00 0.  1.
         14    1    6    6    0    0  0.12895719940E+03  0.60794010019E+00 -0.88438150943E+02  0.15637018709E+03  0.00000000000E+00 0. -1.
         -5    1    3    3    0  503 -0.17116094537E+03 -0.88667467898E+02 -0.46482254775E+03  0.50322964935E+03  0.47000000000E+01 0.  1.
         11    1    4    4    0    0 -0.24715236060E+00  0.15936748053E+02 -0.33657642913E+01  0.16290162432E+02  0.00000000000E+00 0. -1.
        -12    1    4    4    0    0 -0.26208766816E+02 -0.18056535179E+02 -0.22438174636E+03  0.22662768150E+03  0.00000000000E+00 0.  1.
</event>
<event>
12    1  0.8356052E-002  0.4994573E+03  0.7818608E-02  0.1013933E+00
         21   -1    0    0  501  502  0.00000000000E+00  0.00000000000E+00  0.31458964651E+03  0.31458964651E+03  0.00000000000E+00 0. -1.
         21   -1    0    0  502  503 -0.00000000000E+00 -0.00000000000E+00 -0.92418538900E+03  0.92418538900E+03  0.00000000000E+00 0.  1.
         -6    2    1    2    0  503 -0.15071521494E+03 -0.44401899660E+03 -0.53850848545E+03  0.73447189072E+03  0.17201634808E+03 0.  0.
        -24    2    3    3    0    0 -0.62633935392E+02 -0.34883055209E+03 -0.44415537204E+03  0.57402329526E+03  0.81381724345E+02 0.  0.
          6    2    1    2  501    0  0.15071521494E+03  0.44401899660E+03 -0.71087257051E+02  0.50430314479E+03  0.17146521041E+03 0.  0.
         24    2    5    5    0    0  0.65963163561E+02  0.14666465478E+03 -0.82166280157E+02  0.19487245859E+03  0.73227847258E+02 0.  0.
          5    1    5    5  501    0  0.84752051383E+02  0.29735434182E+03  0.11079023107E+02  0.30943068620E+03  0.47000000000E+01 0. -1.
        -11    1    6    6    0    0  0.61015242543E+02  0.75727646235E+02 -0.17611813811E+02  0.98831736869E+02  0.00000000000E+00 0.  1.
         12    1    6    6    0    0  0.49479210177E+01  0.70937008544E+02 -0.64554466346E+02  0.96040721722E+02  0.00000000000E+00 0. -1.
         -5    1    3    3    0  503 -0.88081279552E+02 -0.95188444506E+02 -0.94353113405E+02  0.16044859546E+03  0.47000000000E+01 0.  1.
         13    1    4    4    0    0 -0.51940053208E+01 -0.13346361626E+03 -0.11361081615E+03  0.17534803136E+03  0.00000000000E+00 0. -1.
        -14    1    4    4    0    0 -0.57439930071E+02 -0.21536693583E+03 -0.33054455589E+03  0.39867526390E+03  0.00000000000E+00 0.  1.
</event>
<event>
12    1  0.8356052E-002  0.2274038E+03  0.7818608E-02  0.1130288E+00
         21   -1    0    0  501  502  0.00000000000E+00  0.00000000000E+00  0.27618337166E+02  0.27618337166E+02  0.00000000000E+00 0.  1.
         21   -1    0    0  502  503 -0.00000000000E+00 -0.00000000000E+00 -0.18879541054E+04  0.18879541054E+04  0.00000000000E+00 0.  1.
         -6    2    1    2    0  503 -0.10837741153E+03 -0.77769707301E+02 -0.11265524070E+04  0.11473599065E+04  0.17181571172E+03 0.  0.
        -24    2    3    3    0    0 -0.86937506327E+02 -0.12019392350E+03 -0.79976486135E+03  0.81709989742E+03  0.77612496800E+02 0.  0.
          6    2    1    2  501    0  0.10837741153E+03  0.77769707301E+02 -0.73378336126E+03  0.76821253601E+03  0.18417027048E+03 0.  0.
         24    2    5    5    0    0  0.14380179415E+03  0.72919626237E+02 -0.49665768621E+03  0.52836031915E+03  0.80619735080E+02 0.  0.
          5    1    5    5  501    0 -0.35424382621E+02  0.48500810645E+01 -0.23712567504E+03  0.23985221687E+03  0.47000000000E+01 0. -1.
        -13    1    6    6    0    0  0.49712084630E+02  0.20861536735E+02 -0.29439038706E+03  0.29928614245E+03  0.00000000000E+00 0.  1.
         14    1    6    6    0    0  0.94089709522E+02  0.52058089502E+02 -0.20226729915E+03  0.22907417669E+03  0.00000000000E+00 0. -1.
         -5    1    3    3    0  503 -0.21439905204E+02  0.42424216202E+02 -0.32678754562E+03  0.33026000913E+03  0.47000000000E+01 0.  1.
         13    1    4    4    0    0 -0.57494334728E+02 -0.76689464968E+02 -0.67435230491E+03  0.68112987286E+03  0.00000000000E+00 0. -1.
        -14    1    4    4    0    0 -0.29443171599E+02 -0.43504458536E+02 -0.12541255644E+03  0.13597002456E+03  0.00000000000E+00 0.  1.
</event>
<event>
12    1  0.8356052E-002  0.1903667E+03  0.7818608E-02  0.1159015E+00
         21   -1    0    0  501  502  0.00000000000E+00  0.00000000000E+00  0.35976297906E+03  0.35976297906E+03  0.00000000000E+00 0.  1.
         21   -1    0    0  502  503 -0.00000000000E+00 -0.00000000000E+00 -0.12136482025E+03  0.12136482025E+03  0.00000000000E+00 0.  1.
         -6    2    1    2    0  503  0.40284473263E+02 -0.58155617359E+02  0.22418808342E+03  0.29410843868E+03  0.17673302562E+03 0.  0.
        -24    2    3    3    0    0  0.65083500746E+02  0.21232155152E+01  0.19884572458E+03  0.22401668020E+03  0.80021751468E+02 0.  0.
          6    2    1    2  501    0 -0.40284473263E+02  0.58155617359E+02  0.14210075400E+02  0.18701936062E+03  0.17253811286E+03 0.  0.
         24    2    5    5    0    0 -0.91775162867E+02  0.21360003627E+02  0.48627129988E+01  0.12287365547E+03  0.78710602571E+02 0.  0.
          5    1    5    5  501    0  0.51490689603E+02  0.36795613731E+02  0.93473624016E+01  0.64145705153E+02  0.47000000000E+01 0. -1.
        -13    1    6    6    0    0 -0.38989996188E+02  0.39837464758E+02  0.27964967145E+02  0.62364114590E+02  0.00000000000E+00 0.  1.
         14    1    6    6    0    0 -0.52785166679E+02 -0.18477461131E+02 -0.23102254146E+02  0.60509540882E+02  0.00000000000E+00 0. -1.
         -5    1    3    3    0  503 -0.24799027482E+02 -0.60278832874E+02  0.25342358833E+02  0.70091758488E+02  0.47000000000E+01 0.  1.
         11    1    4    4    0    0  0.58064571420E+01  0.95525655865E+01 -0.45197787374E+01  0.12057978838E+02  0.00000000000E+00 0. -1.
        -12    1    4    4    0    0  0.59277043604E+02 -0.74293500713E+01  0.20336550332E+03  0.21195870136E+03  0.00000000000E+00 0.  1.
</event>
<event>
12    1  0.8356052E-002  0.1981947E+03  0.7818608E-02  0.1152381E+00
         21   -1    0    0  501  502  0.00000000000E+00  0.00000000000E+00  0.47924626118E+03  0.47924626118E+03  0.00000000000E+00 0. -1.
         21   -1    0    0  502  503 -0.00000000000E+00 -0.00000000000E+00 -0.11120696047E+03  0.11120696047E+03  0.00000000000E+00 0. -1.
         -6    2    1    2    0  503  0.91089480921E+02 -0.32664910947E+02  0.29012472443E+02  0.20030691122E+03  0.17296486690E+03 0.  0.
        -24    2    3    3    0    0  0.94974996223E+02  0.35514030860E+01  0.72770826510E+02  0.14317896550E+03  0.78560553706E+02 0.  0.
          6    2    1    2  501    0 -0.91089480921E+02  0.32664910947E+02  0.33902682827E+03  0.39014631044E+03  0.16706484766E+03 0.  0.
         24    2    5    5    0    0 -0.10302382342E+03 -0.14772395350E+02  0.17430721265E+03  0.21825283084E+03  0.80119672567E+02 0.  0.
          5    1    5    5  501    0  0.11934342501E+02  0.47437306297E+02  0.16471961561E+03  0.17189347960E+03  0.47000000000E+01 0. -1.
        -11    1    6    6    0    0 -0.16872842167E+02 -0.27745713017E+02  0.95156859131E+02  0.10054523973E+03  0.00000000000E+00 0.  1.
         12    1    6    6    0    0 -0.86150981255E+02  0.12973317667E+02  0.79150353521E+02  0.11770759111E+03  0.00000000000E+00 0. -1.
         -5    1    3    3    0  503 -0.38855153012E+01 -0.36216314033E+02 -0.43758354067E+02  0.57127945718E+02  0.47000000000E+01 0.  1.
         13    1    4    4    0    0  0.22534448325E+02 -0.60881375914E+00 -0.16648214171E+02  0.28023830048E+02  0.00000000000E+00 0. -1.
        -14    1    4    4    0    0  0.72440547898E+02  0.41602168451E+01  0.89419040682E+02  0.11515513545E+03  0.00000000000E+00 0.  1.
</event>
<event>
12    1  0.8356052E-002  0.2967616E+03  0.7818608E-02  0.1087213E+00
         21   -1    0    0  503  502  0.00000000000E+00  0.00000000000E+00  0.10233782969E+04  0.10233782969E+04  0.00000000000E+00 0. -1.
         21   -1    0    0  501  503 -0.00000000000E+00 -0.00000000000E+00 -0.17579853718E+03  0.17579853718E+03  0.00000000000E+00 0. -1.
          6    2    1    2  501    0 -0.89691037004E+02  0.22385727691E+03 -0.55204648312E+01  0.29681293651E+03  0.17294762560E+03 0.  0.
         24    2    3    3    0    0 -0.12258651587E+03  0.18591157435E+03  0.25044964102E+02  0.23783561613E+03  0.79674103220E+02 0.  0.
         -6    2    1    2    0  502  0.89691037004E+02 -0.22385727691E+03  0.85310022459E+03  0.90236389761E+03  0.16829749838E+03 0.  0.
        -24    2    5    5    0    0  0.75201118573E+02 -0.10546691267E+03  0.64151122342E+03  0.65942721553E+03  0.80803000589E+02 0.  0.
          5    1    3    3  501    0  0.32895478866E+02  0.37945702569E+02 -0.30565428933E+02  0.58977320380E+02  0.47000000000E+01 0. -1.
        -11    1    4    4    0    0  0.10362261129E+02  0.23650313212E+02  0.94107598918E+01  0.27482288341E+02  0.00000000000E+00 0.  1.
         12    1    4    4    0    0 -0.13294877700E+03  0.16226126113E+03  0.15634204210E+02  0.21035332779E+03  0.00000000000E+00 0. -1.
         -5    1    5    5    0  502  0.14489918431E+02 -0.11839036425E+03  0.21158900118E+03  0.24293668208E+03  0.47000000000E+01 0.  1.
         13    1    6    6    0    0  0.30068334955E+02 -0.99734583843E+02  0.38151215970E+03  0.39547771111E+03  0.00000000000E+00 0. -1.
        -14    1    6    6    0    0  0.45132783618E+02 -0.57323288251E+01  0.25999906371E+03  0.26394950442E+03  0.00000000000E+00 0.  1.
</event>
<event>
12    1  0.8356052E-002  0.3686965E+03  0.7818608E-02  0.1055554E+00
         21   -1    0    0  501  502  0.00000000000E+00  0.00000000000E+00  0.59671504939E+03  0.59671504939E+03  0.00000000000E+00 0.  1.
         21   -1    0    0  502  503 -0.00000000000E+00 -0.00000000000E+00 -0.25335071844E+03  0.25335071844E+03  0.00000000000E+00 0. -1.
         -6    2    1    2    0  503 -0.79117397767E+02  0.31174515205E+03  0.31540735284E+02  0.37004312015E+03  0.18025673451E+03 0.  0.
        -24    2    3    3    0    0 -0.41199922947E+02  0.24186003320E+03 -0.41921549257E+02  0.26168970773E+03  0.80810751342E+02 0.  0.
          6    2    1    2  501    0  0.79117397767E+02 -0.31174515205E+03  0.31182359567E+03  0.48002264767E+03  0.17246212630E+03 0.  0.
         24    2    5    5    0    0  0.23770658519E+02 -0.24507940307E+03  0.29338681236E+03  0.39131194589E+03  0.80126520650E+02 0.  0.
          5    1    5    5  501    0  0.55346739248E+02 -0.66665748975E+02  0.18436783306E+02  0.88710701781E+02  0.47000000000E+01 0. -1.
        -11    1    6    6    0    0  0.27365361124E+02 -0.31076287272E+02  0.26330391026E+02  0.49070236515E+02  0.00000000000E+00 0.  1.
         12    1    6    6    0    0 -0.35947026048E+01 -0.21400311580E+03  0.26705642134E+03  0.34224170937E+03  0.00000000000E+00 0. -1.
         -5    1    3    3    0  503 -0.37917474820E+02  0.69885118850E+02  0.73462284542E+02  0.10835341242E+03  0.47000000000E+01 0.  1.
         11    1    4    4    0    0 -0.62647969138E+02  0.13586512402E+03 -0.15866782591E+02  0.15045216765E+03  0.00000000000E+00 0. -1.
        -12    1    4    4    0    0  0.21448046191E+02  0.10599490918E+03 -0.26054766666E+02  0.11123754008E+03  0.00000000000E+00 0.  1.
</event>
<event>
12    1  0.8356052E-002  0.1726699E+03  0.7818608E-02  0.1175290E+00
         21   -1    0    0  501  502  0.00000000000E+00  0.00000000000E+00  0.20735560380E+02  0.20735560380E+02  0.00000000000E+00 0. -1.
         21   -1    0    0  502  503 -0.00000000000E+00 -0.00000000000E+00 -0.16961369453E+04  0.16961369453E+04  0.00000000000E+00 0. -1.
         -6    2    1    2    0  503 -0.78847197700E+01  0.12140197701E+02 -0.11752377269E+04  0.11877424774E+04  0.17128609031E+03 0.  0.
        -24    2    3    3    0    0 -0.33918647938E+02  0.32430128285E+02 -0.11141510095E+04  0.11181499222E+04  0.82003589265E+02 0.  0.
          6    2    1    2  501    0  0.78847197700E+01 -0.12140197701E+02 -0.50016365802E+03  0.52913002826E+03  0.17206204926E+03 0.  0.
         24    2    5    5    0    0  0.14761192677E+02 -0.72576599677E+02 -0.36707023913E+03  0.38272035401E+03  0.79050953723E+02 0.  0.
          5    1    5    5  501    0 -0.68764729073E+01  0.60436401976E+02 -0.13309341889E+03  0.14640967426E+03  0.47000000000E+01 0. -1.
        -13    1    6    6    0    0 -0.26170587558E+02 -0.21181661168E+01 -0.73396283116E+02  0.77951271036E+02  0.00000000000E+00 0.  1.
         14    1    6    6    0    0  0.40931780235E+02 -0.70458433561E+02 -0.29367395602E+03  0.30476908297E+03  0.00000000000E+00 0. -1.
         -5    1    3    3    0  503  0.26033928168E+02 -0.20289930584E+02 -0.61086717393E+02  0.69592555211E+02  0.47000000000E+01 0.  1.
         13    1    4    4    0    0  0.17621862300E+02 -0.14627481447E+02 -0.19185267406E+03  0.19321475562E+03  0.00000000000E+00 0. -1.
        -14    1    4    4    0    0 -0.51540510238E+02  0.47057609732E+02 -0.92229833542E+03  0.92493516656E+03  0.00000000000E+00 0.  1.
</event>
<event>
12    1  0.8356052E-002  0.1815945E+03  0.7818608E-02  0.1166349E+00
         21   -1    0    0  501  502  0.00000000000E+00  0.00000000000E+00  0.11211974563E+04  0.11211974563E+04  0.00000000000E+00 0.  1.
         21   -1    0    0  502  503 -0.00000000000E+00 -0.00000000000E+00 -0.60483799659E+02  0.60483799659E+02  0.00000000000E+00 0.  1.
         -6    2    1    2    0  503 -0.57549080966E+02  0.74871545694E+01  0.10674324140E+03  0.21064349491E+03  0.17207152047E+03 0.  0.
        -24    2    3    3    0    0  0.25048445140E+02 -0.50355606835E+01  0.11314836712E+02  0.83726828793E+02  0.78926388835E+02 0.  0.
          6    2    1    2  501    0  0.57549080966E+02 -0.74871545694E+01  0.95397041523E+03  0.97103776104E+03  0.17171728518E+03 0.  0.
         24    2    5    5    0    0  0.76452779282E+02  0.34066101512E+02  0.84154778740E+03  0.84960893353E+03  0.81407215499E+02 0.  0.
          5    1    5    5  501    0 -0.18903698316E+02 -0.41553256082E+02  0.11242262783E+03  0.12142882751E+03  0.47000000000E+01 0. -1.
        -13    1    6    6    0    0  0.28492125615E+02  0.23161462080E+02  0.67378508581E+03  0.67478485194E+03  0.00000000000E+00 0.  1.
         14    1    6    6    0    0  0.47960653667E+02  0.10904639432E+02  0.16776270159E+03  0.17482408160E+03  0.00000000000E+00 0. -1.
         -5    1    3    3    0  503 -0.82597526106E+02  0.12522715253E+02  0.95428404687E+02  0.12691666611E+03  0.47000000000E+01 0.  1.
         13    1    4    4    0    0  0.45357603128E+02  0.11169795869E+02  0.26426388166E+02  0.53669642190E+02  0.00000000000E+00 0. -1.
        -14    1    4    4    0    0 -0.20309157988E+02 -0.16205356552E+02 -0.15111551453E+02  0.30057186603E+02  0.00000000000E+00 0.  1.
</event>
<event>
12    1  0.8356052E-002  0.2081226E+03  0.7818608E-02  0.1143999E+00
         21   -1    0    0  503  502  0.00000000000E+00  0.00000000000E+00  0.11237773944E+03  0.11237773944E+03  0.00000000000E+00 0. -1.
         21   -1    0    0  501  503 -0.00000000000E+00 -0.00000000000E+00 -0.55054763157E+03  0.55054763157E+03  0.00000000000E+00 0.  1.
          6    2    1    2  501    0  0.10783930191E+02  0.11633123241E+03 -0.40690092481E+03  0.45703762975E+03  0.17223757898E+03 0.  0.
         24    2    3    3    0    0  0.72321619537E+02  0.86278047398E+02 -0.25896945998E+03  0.29395516771E+03  0.81670933039E+02 0.  0.
         -6    2    1    2    0  502 -0.10783930191E+02 -0.11633123241E+03 -0.31268967316E+02  0.20588774126E+03  0.16662162195E+03 0.  0.
        -24    2    5    5    0    0 -0.57621597193E+02 -0.12146401526E+03 -0.13905635466E+02  0.15545275536E+03  0.76801282440E+02 0.  0.
          5    1    3    3  501    0 -0.61537689346E+02  0.30053185011E+02 -0.14793146483E+03  0.16308246204E+03  0.47000000000E+01 0. -1.
        -13    1    4    4    0    0  0.17718272110E+02  0.58722915000E+02 -0.19923183778E+03  0.20846017149E+03  0.00000000000E+00 0.  1.
         14    1    4    4    0    0  0.54603347427E+02  0.27555132398E+02 -0.59737622199E+02  0.85494996215E+02  0.00000000000E+00 0. -1.
         -5    1    5    5    0  502  0.46837667002E+02  0.51327828515E+01 -0.17363331850E+02  0.50434985902E+02  0.47000000000E+01 0.  1.
         13    1    6    6    0    0 -0.54927955726E+02 -0.28759045447E+02 -0.80842729845E+01  0.62526142412E+02  0.00000000000E+00 0. -1.
        -14    1    6    6    0    0 -0.26936414676E+01 -0.92704969814E+02 -0.58213624819E+01  0.92926612947E+02  0.00000000000E+00 0.  1.
</event>
<event>
12    1  0.8356052E-002  0.1885493E+03  0.7818608E-02  0.1160246E+00
         21   -1    0    0  503  502  0.00000000000E+00  0.00000000000E+00  0.11064898371E+03  0.11064898371E+03  0.00000000000E+00 0.  1.
         21   -1    0    0  501  503 -0.00000000000E+00 -0.00000000000E+00 -0.67751482900E+03  0.67751482900E+03  0.00000000000E+00 0.  1.
          6    2    1    2  501    0  0.73019111163E+02 -0.13210964430E+02 -0.56984848556E+03  0.59959088656E+03  0.17110118225E+03 0.  0.
         24    2    3    3    0    0  0.90268853933E+02 -0.13384348846E+02 -0.23116476504E+03  0.26043555897E+03  0.77858364945E+02 0.  0.
         -6    2    1    2    0  502 -0.73019111163E+02  0.13210964430E+02  0.29826402700E+01  0.18857292616E+03  0.17333358636E+03 0.  0.
        -24    2    5    5    0    0 -0.11558953778E+03  0.34738309032E+02  0.71308619808E+01  0.14045883746E+03  0.71485274486E+02 0.  0.
          5    1    3    3  501    0 -0.17249742771E+02  0.17338441626E+00 -0.33868372052E+03  0.33915532759E+03  0.47000000000E+01 0. -1.
        -13    1    4    4    0    0  0.72557710746E+02  0.25266247524E+02 -0.13591091311E+03  0.15612424846E+03  0.00000000000E+00 0.  1.
         14    1    4    4    0    0  0.17711143187E+02 -0.38650596370E+02 -0.95253851929E+02  0.10431131051E+03  0.00000000000E+00 0. -1.
         -5    1    5    5    0  502  0.42570426617E+02 -0.21527344602E+02 -0.41482217108E+01  0.48114088699E+02  0.47000000000E+01 0.  1.
         11    1    6    6    0    0 -0.25334182907E+02  0.42640519749E+02  0.27953916563E+00  0.49599525100E+02  0.00000000000E+00 0. -1.
        -12    1    6    6    0    0 -0.90255354873E+02 -0.79022107169E+01  0.68513228152E+01  0.90859312356E+02  0.00000000000E+00 0.  1.
</event>
<event>
12    1  0.8356052E-002  0.1856936E+03  0.7818608E-02  0.1163150E+00
         21   -1    0    0  501  502  0.00000000000E+00  0.00000000000E+00  0.27571285831E+03  0.27571285831E+03  0.00000000000E+00 0. -1.
         21   -1    0    0  502  503 -0.00000000000E+00 -0.00000000000E+00 -0.17685237438E+03  0.17685237438E+03  0.00000000000E+00 0. -1.
         -6    2    1    2    0  503 -0.48330983444E+02 -0.40080635300E+02 -0.75810085843E+02  0.19763011159E+03  0.17137138210E+03 0.  0.
        -24    2    3    3    0    0 -0.73825360453E+02 -0.77653952327E+01  0.84178064418E+01  0.10376496449E+03  0.72012659875E+02 0.  0.
          6    2    1    2  501    0  0.48330983444E+02  0.40080635300E+02  0.17467056977E+03  0.25493512110E+03  0.17475630673E+03 0.  0.
         24    2    5    5    0    0  0.17124727780E+02  0.90432008882E+02  0.93552946674E+02  0.15438040967E+03  0.81301614542E+02 0.  0.
          5    1    5    5  501    0  0.31206255665E+02 -0.50351373581E+02  0.81117623096E+02  0.10055471143E+03  0.47000000000E+01 0. -1.
        -13    1    6    6    0    0  0.61985987928E+01  0.40668848782E+02 -0.69308941448E+01  0.41718283545E+02  0.00000000000E+00 0.  1.
         14    1    6    6    0    0  0.10926128987E+02  0.49763160100E+02  0.10048384082E+03  0.11266212613E+03  0.00000000000E+00 0. -1.
         -5    1    3    3    0  503  0.25494377009E+02 -0.32315240068E+02 -0.84227892284E+02  0.93865147091E+02  0.47000000000E+01 0.  1.
         13    1    4    4    0    0 -0.70198598283E+02 -0.57105911397E+01 -0.21436935927E+02  0.73620623971E+02  0.00000000000E+00 0. -1.
        -14    1    4    4    0    0 -0.36267621700E+01 -0.20548040931E+01  0.29854742369E+02  0.30144340524E+02  0.00000000000E+00 0.  1.
</event>
<event>
12    1  0.8356052E-002  0.1741829E+03  0.7818608E-02  0.1173697E+00
         21   -1    0    0  501  502  0.00000000000E+00  0.00000000000E+00  0.30140126299E+02  0.30140126299E+02  0.00000000000E+00 0. -1.
         21   -1    0    0  502  503 -0.00000000000E+00 -0.00000000000E+00 -0.12452479039E+04  0.12452479039E+04  0.00000000000E+00 0. -1.
         -6    2    1    2    0  503  0.18635409242E+02  0.20052402506E+02 -0.88939829519E+03  0.90629411699E+03  0.17201837601E+03 0.  0.
        -24    2    3    3    0    0 -0.20368588674E+02  0.28074410698E+02 -0.23325316893E+03  0.24892498083E+03  0.79709179669E+02 0.  0.
          6    2    1    2  501    0 -0.18635409242E+02 -0.20052402506E+02 -0.32570948245E+03  0.36909391325E+03  0.17144757949E+03 0.  0.
         24    2    5    5    0    0 -0.10584423641E+02  0.32406043913E+02 -0.82902838644E+02  0.12051019848E+03  0.80545922159E+02 0.  0.
          5    1    5    5  501    0 -0.80509856003E+01 -0.52458446419E+02 -0.24280664381E+03  0.24858371477E+03  0.47000000000E+01 0. -1.
        -13    1    6    6    0    0 -0.36388475157E+02  0.35152174487E+01 -0.71212265663E+02  0.80047889784E+02  0.00000000000E+00 0.  1.
         14    1    6    6    0    0  0.25804051515E+02  0.28890826464E+02 -0.11690572980E+02  0.40462308696E+02  0.00000000000E+00 0. -1.
         -5    1    3    3    0  503  0.39003997915E+02 -0.80220081924E+01 -0.65614512626E+03  0.65736913617E+03  0.47000000000E+01 0.  1.
         13    1    4    4    0    0  0.11347369885E+01  0.46295111576E+02 -0.20020170381E+03  0.20548782735E+03  0.00000000000E+00 0. -1.
        -14    1    4    4    0    0 -0.21503325662E+02 -0.18220700878E+02 -0.33051465122E+02  0.43437153472E+02  0.00000000000E+00 0.  1.
</event>
<event>
12    1  0.8356052E-002  0.1804951E+03  0.7818608E-02  0.1167420E+00
         21   -1    0    0  501  502  0.00000000000E+00  0.00000000000E+00  0.38667371896E+02  0.38667371896E+02  0.00000000000E+00 0.  1.
         21   -1    0    0  502  503 -0.00000000000E+00 -0.00000000000E+00 -0.84146476684E+03  0.84146476684E+03  0.00000000000E+00 0.  1.
         -6    2    1    2    0  503 -0.39511164191E+02 -0.34765623097E+02 -0.38844889605E+03  0.42833518373E+03  0.17265197402E+03 0.  0.
        -24    2    3    3    0    0  0.39116028127E+02 -0.42015394462E+02 -0.24414273880E+03  0.26377166537E+03  0.81697353146E+02 0.  0.
          6    2    1    2  501    0  0.39511164191E+02  0.34765623097E+02 -0.41434849889E+03  0.45179695500E+03  0.17223829241E+03 0.  0.
         24    2    5    5    0    0 -0.64167634604E+01  0.74094311609E+02 -0.33105175305E+03  0.34876027151E+03  0.80667973310E+02 0.  0.
          5    1    5    5  501    0  0.45927927652E+02 -0.39328688512E+02 -0.83296745840E+02  0.10303668350E+03  0.47000000000E+01 0. -1.
        -11    1    6    6    0    0  0.36174051429E+02  0.46729725532E+02 -0.17765782538E+03  0.18722855595E+03  0.00000000000E+00 0.  1.
         12    1    6    6    0    0 -0.42590814889E+02  0.27364586077E+02 -0.15339392767E+03  0.16153171555E+03  0.00000000000E+00 0. -1.
         -5    1    3    3    0  503 -0.78627192318E+02  0.72497713642E+01 -0.14430615725E+03  0.16456351836E+03  0.47000000000E+01 0.  1.
         13    1    4    4    0    0  0.26670810173E+02 -0.65557581799E+01 -0.14467433768E+02  0.31042176477E+02  0.00000000000E+00 0. -1.
        -14    1    4    4    0    0  0.12445217954E+02 -0.35459636282E+02 -0.22967530504E+03  0.23272948889E+03  0.00000000000E+00 0.  1.
</event>
<event>
12    1  0.8356052E-002  0.1857546E+03  0.7818608E-02  0.1162936E+00
         21   -1    0    0  501  502  0.00000000000E+00  0.00000000000E+00  0.13324987180E+04  0.13324987180E+04  0.00000000000E+00 0.  1.
         21   -1    0    0  502  503 -0.00000000000E+00 -0.00000000000E+00 -0.29387316284E+02  0.29387316284E+02  0.00000000000E+00 0.  1.
         -6    2    1    2    0  503 -0.40277975228E+02 -0.54149646695E+02  0.40146715669E+03  0.44130626940E+03  0.17035505859E+03 0.  0.
        -24    2    3    3    0    0 -0.38660146696E+02 -0.93842578289E+02  0.36574834442E+03  0.38767726850E+03  0.78871900094E+02 0.  0.
          6    2    1    2  501    0  0.40277975228E+02  0.54149646695E+02  0.90164424507E+03  0.92057976492E+03  0.17306143244E+03 0.  0.
         24    2    5    5    0    0  0.38506062297E+02 -0.31921990937E+01  0.25197940152E+03  0.26836988621E+03  0.83880093372E+02 0.  0.
          5    1    5    5  501    0  0.17719129309E+01  0.57341845788E+02  0.64966484355E+03  0.65220987872E+03  0.47000000000E+01 0. -1.
        -11    1    6    6    0    0  0.32137512684E+02 -0.41367402965E+02  0.12251258650E+03  0.13324194385E+03  0.00000000000E+00 0.  1.
         12    1    6    6    0    0  0.63685496127E+01  0.38175203872E+02  0.12946681502E+03  0.13512794236E+03  0.00000000000E+00 0. -1.
         -5    1    3    3    0  503 -0.16178285320E+01  0.39692931594E+02  0.35718812273E+02  0.53629000904E+02  0.47000000000E+01 0.  1.
         11    1    4    4    0    0  0.20566830084E+02 -0.27952593945E+02  0.59602475972E+02  0.68969537841E+02  0.00000000000E+00 0. -1.
        -12    1    4    4    0    0 -0.59226976780E+02 -0.65889984344E+02  0.30614586845E+03  0.31870773066E+03  0.00000000000E+00 0.  1.
</event>
<event>
12    1  0.8356052E-002  0.2003411E+03  0.7818608E-02  0.1149454E+00
         21   -1    0    0  503  502  0.00000000000E+00  0.00000000000E+00  0.16125105499E+03  0.16125105499E+03  0.00000000000E+00 0. -1.
         21   -1    0    0  501  503 -0.00000000000E+00 -0.00000000000E+00 -0.34867619670E+03  0.34867619670E+03  0.00000000000E+00 0.  1.
          6    2    1    2  501    0  0.10270733676E+03 -0.15357729362E+02 -0.23010356938E+03  0.30509072221E+03  0.17131269439E+03 0.  0.
         24    2    3    3    0    0  0.52600236953E+02  0.13749291273E-01 -0.23378549437E+03  0.25233988924E+03  0.79075768791E+02 0.  0.
         -6    2    1    2    0  502 -0.10270733676E+03  0.15357729362E+02  0.42678427673E+02  0.20483652949E+03  0.17132395848E+03 0.  0.
        -24    2    5    5    0    0 -0.28658660580E+02  0.63535706982E+02  0.43940176452E+02  0.11636051024E+03  0.82164008839E+02 0.  0.
          5    1    3    3  501    0  0.50107099809E+02 -0.15371478653E+02  0.36819249832E+01  0.52750832968E+02  0.47000000000E+01 0. -1.
        -13    1    4    4    0    0  0.43116000759E+02 -0.27799241779E+02 -0.20456272026E+03  0.21089735391E+03  0.00000000000E+00 0.  1.
         14    1    4    4    0    0  0.94842361934E+01  0.27812991071E+02 -0.29222774106E+02  0.41442535334E+02  0.00000000000E+00 0. -1.
         -5    1    5    5    0  502 -0.74048676182E+02 -0.48177977620E+02 -0.12617487789E+01  0.88476019247E+02  0.47000000000E+01 0.  1.
         13    1    6    6    0    0 -0.33018294987E+02  0.55149028298E+02 -0.69019693794E+01  0.64647198759E+02  0.00000000000E+00 0. -1.
        -14    1    6    6    0    0  0.43596344077E+01  0.83866786844E+01  0.50842145831E+02  0.51713311480E+02  0.00000000000E+00 0.  1.
</event>
<event>
12    1  0.8356052E-002  0.1882192E+03  0.7818608E-02  0.1160126E+00
         21   -1    0    0  503  502  0.00000000000E+00  0.00000000000E+00  0.11389515627E+04  0.11389515627E+04  0.00000000000E+00 0.  1.
         21   -1    0    0  501  503 -0.00000000000E+00 -0.00000000000E+00 -0.12462357323E+03  0.12462357323E+03  0.00000000000E+00 0.  1.
          6    2    1    2  501    0 -0.61386617719E+02 -0.43509021255E+02 -0.40162011760E+02  0.19245634746E+03  0.17252566975E+03 0.  0.
         24    2    3    3    0    0 -0.59345651455E+02 -0.73689940338E+02 -0.75731750487E+02  0.14552714831E+03  0.80565124026E+02 0.  0.
         -6    2    1    2    0  502  0.61386617719E+02  0.43509021255E+02  0.10544900012E+04  0.10711187885E+04  0.17229319355E+03 0.  0.
        -24    2    5    5    0    0  0.34598118281E+02 -0.30559012609E+02  0.77432761173E+03  0.78005736568E+03  0.82312577576E+02 0.  0.
          5    1    3    3  501    0 -0.20409662645E+01  0.30180919082E+02  0.35569738726E+02  0.46929199152E+02  0.47000000000E+01 0. -1.
        -11    1    4    4    0    0  0.41046534003E+01 -0.58401965485E+02 -0.42052188945E+02  0.72083454046E+02  0.00000000000E+00 0.  1.
         12    1    4    4    0    0 -0.63450304855E+02 -0.15287974852E+02 -0.33679561542E+02  0.73443694263E+02  0.00000000000E+00 0. -1.
         -5    1    5    5    0  502  0.26788499439E+02  0.74068033864E+02  0.28016238951E+03  0.29106142279E+03  0.47000000000E+01 0.  1.
         11    1    6    6    0    0  0.33846056658E+02 -0.82519485154E+01  0.11065163168E+03  0.11600618000E+03  0.00000000000E+00 0. -1.
        -12    1    6    6    0    0  0.75206162228E+00 -0.22307064093E+02  0.66367598005E+03  0.66405118568E+03  0.00000000000E+00 0.  1.
</event>
<event>
12    1  0.8356052E-002  0.2412972E+03  0.7818608E-02  0.1118976E+00
         21   -1    0    0  503  502  0.00000000000E+00  0.00000000000E+00  0.62926232759E+03  0.62926232759E+03  0.00000000000E+00 0.  1.
         21   -1    0    0  501  503 -0.00000000000E+00 -0.00000000000E+00 -0.15612222110E+03  0.15612222110E+03  0.00000000000E+00 0.  1.
          6    2    1    2  501    0 -0.69155091279E+02 -0.15402531525E+03 -0.14340464249E+02  0.24145287234E+03  0.17201051206E+03 0.  0.
         24    2    3    3    0    0 -0.73631366444E+02 -0.64557907963E+02 -0.59365349457E+02  0.14108462889E+03  0.82409503017E+02 0.  0.
         -6    2    1    2    0  502  0.69155091279E+02  0.15402531525E+03  0.48748057074E+03  0.54393167635E+03  0.17238949302E+03 0.  0.
        -24    2    5    5    0    0 -0.24908865665E+00  0.13400342861E+03  0.42046861970E+03  0.44528834044E+03  0.59421082599E+02 0.  0.
          5    1    3    3  501    0  0.44762751644E+01 -0.89467407289E+02  0.45024885208E+02  0.10036824346E+03  0.47000000000E+01 0. -1.
        -11    1    4    4    0    0  0.10285859583E+02 -0.33155439377E+02 -0.21629363229E+01  0.34781609525E+02  0.00000000000E+00 0.  1.
         12    1    4    4    0    0 -0.83917226027E+02 -0.31402468586E+02 -0.57202413134E+02  0.10630301936E+03  0.00000000000E+00 0. -1.
         -5    1    5    5    0  502  0.69404179936E+02  0.20021886638E+02  0.67011951038E+02  0.98643335908E+02  0.47000000000E+01 0.  1.
         11    1    6    6    0    0 -0.27097860864E+02  0.37310069882E+02  0.14099661509E+03  0.14834547801E+03  0.00000000000E+00 0. -1.
        -12    1    6    6    0    0  0.26848772208E+02  0.96693358732E+02  0.27947200461E+03  0.29694286244E+03  0.00000000000E+00 0.  1.
</event>
<event>
12    1  0.8356052E-002  0.2489687E+03  0.7818608E-02  0.1114156E+00
         21   -1    0    0  503  502  0.00000000000E+00  0.00000000000E+00  0.48282388830E+03  0.48282388830E+03  0.00000000000E+00 0. -1.
         21   -1    0    0  501  503 -0.00000000000E+00 -0.00000000000E+00 -0.13034813406E+03  0.13034813406E+03  0.00000000000E+00 0.  1.
          6    2    1    2  501    0 -0.97068675847E+02 -0.15065940026E+03  0.13246260253E+03  0.28092027540E+03  0.17102420105E+03 0.  0.
         24    2    3    3    0    0 -0.61553729824E+01 -0.12972923965E+03  0.10109188574E+03  0.18238341868E+03  0.78591206951E+02 0.  0.
         -6    2    1    2    0  502  0.97068675847E+02  0.15065940026E+03  0.22001315170E+03  0.33225174695E+03  0.17281450666E+03 0.  0.
        -24    2    5    5    0    0  0.12872904619E+03  0.14231049956E+03  0.21412809774E+03  0.29865402302E+03  0.80746130593E+02 0.  0.
          5    1    3    3  501    0 -0.90913302864E+02 -0.20930160605E+02  0.31370716798E+02  0.98536856724E+02  0.47000000000E+01 0. -1.
        -11    1    4    4    0    0  0.19914666157E+02 -0.41043094320E+02  0.72437411654E+02  0.85605537944E+02  0.00000000000E+00 0.  1.
         12    1    4    4    0    0 -0.26070039140E+02 -0.88686145333E+02  0.28654474083E+02  0.96777880736E+02  0.00000000000E+00 0. -1.
         -5    1    5    5    0  502 -0.31660370346E+02  0.83489006992E+01  0.58850539678E+01  0.33597723934E+02  0.47000000000E+01 0.  1.
         11    1    6    6    0    0  0.11063023624E+03  0.10859282038E+03  0.20874161173E+03  0.26000867346E+03  0.00000000000E+00 0. -1.
        -12    1    6    6    0    0  0.18098809955E+02  0.33717679174E+02  0.53864860086E+01  0.38645349555E+02  0.00000000000E+00 0.  1.
</event>
<event>
12    1  0.8356052E-002  0.2619741E+03  0.7818608E-02  0.1106086E+00
         21   -1    0    0  503  502  0.00000000000E+00  0.00000000000E+00  0.15947793793E+03  0.15947793793E+03  0.00000000000E+00 0.  1.
         21   -1    0    0  501  503 -0.00000000000E+00 -0.00000000000E+00 -0.86035070422E+03  0.86035070422E+03  0.00000000000E+00 0. -1.
          6    2    1    2  501    0  0.96783746875E+02 -0.17286640150E+03 -0.71122046809E+03  0.75765022881E+03  0.17014531601E+03 0.  0.
         24    2    3    3    0    0  0.65887168195E+02 -0.45281979606E+02 -0.46617259515E+03  0.47961617817E+03  0.79518634807E+02 0.  0.
         -6    2    1    2    0  502 -0.96783746875E+02  0.17286640150E+03  0.10347701807E+02  0.26217841334E+03  0.17140758169E+03 0.  0.
        -24    2    5    5    0    0 -0.11125484095E+03  0.64851984739E+02  0.90994148478E+01  0.15309049003E+03  0.82282921844E+02 0.  0.
          5    1    3    3  501    0  0.30896578680E+02 -0.12758442189E+03 -0.24504787294E+03  0.27803405064E+03  0.47000000000E+01 0. -1.
        -11    1    4    4    0    0  0.72374402311E+02 -0.17531225398E+02 -0.40911631842E+03  0.41583838204E+03  0.00000000000E+00 0.  1.
         12    1    4    4    0    0 -0.64872341163E+01 -0.27750754207E+02 -0.57056276729E+02  0.63777796134E+02  0.00000000000E+00 0. -1.
         -5    1    5    5    0  502  0.14471094073E+02  0.10801441676E+03  0.12482869593E+01  0.10908792331E+03  0.47000000000E+01 0.  1.
         13    1    6    6    0    0 -0.20804730640E+02 -0.14504452440E+02 -0.16251202318E+02  0.30121712009E+02  0.00000000000E+00 0. -1.
        -14    1    6    6    0    0 -0.90450110308E+02  0.79356437179E+02  0.25350617166E+02  0.12296877802E+03  0.00000000000E+00 0.  1.
</event>
<event>
12    1  0.8356052E-002  0.1813321E+03  0.7818608E-02  0.1167825E+00
         21   -1    0    0  501  502  0.00000000000E+00  0.00000000000E+00  0.20480251939E+03  0.20480251939E+03  0.00000000000E+00 0.  1.
         21   -1    0    0  502  503 -0.00000000000E+00 -0.00000000000E+00 -0.27062924606E+03  0.27062924606E+03  0.00000000000E+00 0.  1.
         -6    2    1    2    0  503 -0.16002259591E+02 -0.56894775620E+02 -0.18743610358E+03  0.25709676497E+03  0.16575091502E+03 0.  0.
        -24    2    3    3    0    0 -0.44586057197E+02 -0.84903598782E+02 -0.13300694887E+03  0.18937564166E+03  0.94740422334E+02 0.  0.
          6    2    1    2  501    0  0.16002259591E+02  0.56894775620E+02  0.12160937690E+03  0.21833500047E+03  0.17142999760E+03 0.  0.
         24    2    5    5    0    0  0.24013655765E+02 -0.30883288309E+02  0.38190214671E+02  0.96885349987E+02  0.79986532525E+02 0.  0.
          5    1    5    5  501    0 -0.80113961731E+01  0.87778063929E+02  0.83419162232E+02  0.12144965049E+03  0.47000000000E+01 0. -1.
        -13    1    6    6    0    0  0.46132893010E+02  0.29061671492E+01  0.31531320503E+02  0.55954569050E+02  0.00000000000E+00 0.  1.
         14    1    6    6    0    0 -0.22119237246E+02 -0.33789455458E+02  0.66588941685E+01  0.40930780936E+02  0.00000000000E+00 0. -1.
         -5    1    3    3    0  503  0.28583797605E+02  0.28008823162E+02 -0.54429154709E+02  0.67721123313E+02  0.47000000000E+01 0.  1.
         11    1    4    4    0    0 -0.15848559094E+02  0.35309335367E+01 -0.81449468537E+02  0.83052153747E+02  0.00000000000E+00 0. -1.
        -12    1    4    4    0    0 -0.28737498102E+02 -0.88434532319E+02 -0.51557480329E+02  0.10632348791E+03  0.00000000000E+00 0.  1.
</event>
<event>
12    1  0.8356052E-002  0.1953607E+03  0.7818608E-02  0.1153821E+00
         21   -1    0    0  503  502  0.00000000000E+00  0.00000000000E+00  0.40894045763E+02  0.40894045763E+02  0.00000000000E+00 0.  1.
         21   -1    0    0  501  503 -0.00000000000E+00 -0.00000000000E+00 -0.93244675551E+03  0.93244675551E+03  0.00000000000E+00 0.  1.
          6    2    1    2  501    0  0.47237262375E+02 -0.78298864243E+02 -0.42666066791E+03  0.46926019726E+03  0.17263758597E+03 0.  0.
         24    2    3    3    0    0  0.63041851730E+02 -0.83037861248E+02 -0.43180133079E+03  0.45135043589E+03  0.79970402226E+02 0.  0.
         -6    2    1    2    0  502 -0.47237262375E+02  0.78298864243E+02 -0.46489204184E+03  0.50408060401E+03  0.17207723174E+03 0.  0.
        -24    2    5    5    0    0 -0.14819473583E+02  0.92441554140E+02 -0.44762769281E+03  0.46444379719E+03  0.81070535039E+02 0.  0.
          5    1    3    3  501    0 -0.15804589355E+02  0.47389970046E+01  0.51406628855E+01  0.17909761366E+02  0.47000000000E+01 0. -1.
        -13    1    4    4    0    0  0.36685930277E+02 -0.93158678086E+02 -0.29088215318E+03  0.30763098645E+03  0.00000000000E+00 0.  1.
         14    1    4    4    0    0  0.26355921453E+02  0.10120816838E+02 -0.14091917761E+03  0.14371944944E+03  0.00000000000E+00 0. -1.
         -5    1    5    5    0  502 -0.32417788792E+02 -0.14142689897E+02 -0.17264349026E+02  0.39636806821E+02  0.47000000000E+01 0.  1.
         13    1    6    6    0    0  0.26085634753E+02  0.59843540704E+02 -0.17359909368E+03  0.18546793532E+03  0.00000000000E+00 0. -1.
        -14    1    6    6    0    0 -0.40905108336E+02  0.32598013436E+02 -0.27402859913E+03  0.27897586188E+03  0.00000000000E+00 0.  1.
</event>
<event>
12    1  0.8356052E-002  0.3324144E+03  0.7818608E-02  0.1070500E+00
         21   -1    0    0  503  502  0.00000000000E+00  0.00000000000E+00  0.72492219738E+03  0.72492219738E+03  0.00000000000E+00 0. -1.
         21   -1    0    0  501  503 -0.00000000000E+00 -0.00000000000E+00 -0.27635712440E+03  0.27635712440E+03  0.00000000000E+00 0.  1.
          6    2    1    2  501    0  0.19043572182E+03 -0.20421325205E+03 -0.11406804514E+03  0.34778457810E+03  0.17312936603E+03 0.  0.
         24    2    3    3    0    0  0.19984628492E+03 -0.21044511365E+03 -0.12993301715E+03  0.32775504656E+03  0.79467591767E+02 0.  0.
         -6    2    1    2    0  502 -0.19043572182E+03  0.20421325205E+03  0.56263311812E+03  0.65349474369E+03  0.18036224097E+03 0.  0.
        -24    2    5    5    0    0 -0.16406698689E+03  0.21566821258E+03  0.55599148023E+03  0.62361619526E+03  0.79623355886E+02 0.  0.
          5    1    3    3  501    0 -0.94105631029E+01  0.62318615996E+01  0.15864972007E+02  0.20029531540E+02  0.47000000000E+01 0. -1.
        -13    1    4    4    0    0  0.89015169889E+02 -0.14075855496E+03 -0.48042739939E+02  0.17333429011E+03  0.00000000000E+00 0.  1.
         14    1    4    4    0    0  0.11083111503E+03 -0.69686558687E+02 -0.81890277209E+02  0.15442075645E+03  0.00000000000E+00 0. -1.
         -5    1    5    5    0  502 -0.26368734926E+02 -0.11454960530E+02  0.66416378947E+01  0.29878548430E+02  0.47000000000E+01 0.  1.
         11    1    6    6    0    0 -0.10013137062E+03  0.13205100668E+03  0.42095733992E+03  0.45240340602E+03  0.00000000000E+00 0. -1.
        -12    1    6    6    0    0 -0.63935616274E+02  0.83617205904E+02  0.13503414031E+03  0.17121278924E+03  0.00000000000E+00 0.  1.
</event>
<event>
12    1  0.8356052E-002  0.3256829E+03  0.7818608E-02  0.1073068E+00
         21   -1    0    0  503  502  0.00000000000E+00  0.00000000000E+00  0.23477279158E+04  0.23477279158E+04  0.00000000000E+00 0. -1.
         21   -1    0    0  501  503 -0.00000000000E+00 -0.00000000000E+00 -0.50899592755E+02  0.50899592755E+02  0.00000000000E+00 0.  1.
          6    2    1    2  501    0  0.13676956075E+03  0.24065567700E+03  0.15506089182E+04  0.15844329718E+04  0.17151897028E+03 0.  0.
         24    2    3    3    0    0  0.10538654151E+03  0.86768540179E+02  0.57615182660E+03  0.59738947821E+03  0.79297911001E+02 0.  0.
         -6    2    1    2    0  502 -0.13676956075E+03 -0.24065567700E+03  0.74621940480E+03  0.81419453676E+03  0.17160499981E+03 0.  0.
        -24    2    5    5    0    0 -0.47923824142E+02 -0.17435982317E+03  0.59299898654E+03  0.62501924312E+03  0.79392791727E+02 0.  0.
          5    1    3    3  501    0  0.31383019246E+02  0.15388713683E+03  0.97445709163E+03  0.98704349357E+03  0.47000000000E+01 0. -1.
        -11    1    4    4    0    0  0.10908501063E+02  0.34273065457E+02  0.59279889722E+02  0.69337895387E+02  0.00000000000E+00 0.  1.
         12    1    4    4    0    0  0.94478040442E+02  0.52495474722E+02  0.51687193688E+03  0.52805158283E+03  0.00000000000E+00 0. -1.
         -5    1    5    5    0  502 -0.88845736609E+02 -0.66295853838E+02  0.15322041826E+03  0.18917529363E+03  0.47000000000E+01 0.  1.
         13    1    6    6    0    0  0.21827116536E+02 -0.46789976273E+02  0.13723069663E+03  0.14662192535E+03  0.00000000000E+00 0. -1.
        -14    1    6    6    0    0 -0.69750940678E+02 -0.12756984689E+03  0.45576828992E+03  0.47839731778E+03  0.00000000000E+00 0.  1.
</event>
<event>
12    1  0.8356052E-002  0.2181710E+03  0.7818608E-02  0.1135356E+00
         21   -1    0    0  501  502  0.00000000000E+00  0.00000000000E+00  0.67935007482E+03  0.67935007482E+03  0.00000000000E+00 0. -1.
         21   -1    0    0  502  503 -0.00000000000E+00 -0.00000000000E+00 -0.11331606630E+03  0.11331606630E+03  0.00000000000E+00 0.  1.
         -6    2    1    2    0  503 -0.55243616639E+02  0.12323163749E+03  0.37449486080E+02  0.22082685482E+03  0.17065796830E+03 0.  0.
        -24    2    3    3    0    0 -0.10821124218E+02  0.12428395360E+03  0.70360454870E+02  0.16533192650E+03  0.82586042752E+02 0.  0.
          6    2    1    2  501    0  0.55243616639E+02 -0.12323163749E+03  0.52858452244E+03  0.57183928630E+03  0.17134957932E+03 0.  0.
         24    2    5    5    0    0  0.73970270946E+01 -0.67830946016E+02  0.88453500574E+02  0.12563760639E+03  0.57489417525E+02 0.  0.
          5    1    5    5  501    0  0.47846589545E+02 -0.55400691471E+02  0.44013102187E+03  0.44620167991E+03  0.47000000000E+01 0. -1.
        -11    1    6    6    0    0 -0.38054544269E+01  0.98212098133E+01  0.13597775963E+02  0.17199917347E+02  0.00000000000E+00 0.  1.
         12    1    6    6    0    0  0.11202481521E+02 -0.77652155829E+02  0.74855724611E+02  0.10843768904E+03  0.00000000000E+00 0. -1.
         -5    1    3    3    0  503 -0.44422492421E+02 -0.10523161173E+01 -0.32910968790E+02  0.55494928316E+02  0.47000000000E+01 0.  1.
         13    1    4    4    0    0  0.28486399303E+02  0.98208392584E+02  0.44280003239E+02  0.11143196133E+03  0.00000000000E+00 0. -1.
        -14    1    4    4    0    0 -0.39307523520E+02  0.26075561021E+02  0.26080451631E+02  0.53899965168E+02  0.00000000000E+00 0.  1.
</event>
<event>
12    1  0.8356052E-002  0.1730544E+03  0.7818608E-02  0.1174766E+00
         21   -1    0    0  501  502  0.00000000000E+00  0.00000000000E+00  0.48217310358E+02  0.48217310358E+02  0.00000000000E+00 0. -1.
         21   -1    0    0  502  503 -0.00000000000E+00 -0.00000000000E+00 -0.68455382829E+03  0.68455382829E+03  0.00000000000E+00 0. -1.
         -6    2    1    2    0  503  0.14812774348E+02 -0.11563834356E+02 -0.43075706119E+03  0.46421920561E+03  0.17203105693E+03 0.  0.
        -24    2    3    3    0    0 -0.23446920068E+02 -0.60483385729E+02 -0.19341198682E+03  0.21883847888E+03  0.79209123112E+02 0.  0.
          6    2    1    2  501    0 -0.14812774348E+02  0.11563834356E+02 -0.20557945675E+03  0.26855193304E+03  0.17176753813E+03 0.  0.
         24    2    5    5    0    0 -0.49157640312E+02 -0.84755113534E+01 -0.20692817057E+03  0.22848880506E+03  0.83063580282E+02 0.  0.
          5    1    5    5  501    0  0.34344865964E+02  0.20039345710E+02  0.13487138202E+01  0.40063127980E+02  0.47000000000E+01 0. -1.
        -11    1    6    6    0    0 -0.23345413574E+02  0.32381963727E+02 -0.14227486672E+03  0.14776920386E+03  0.00000000000E+00 0.  1.
         12    1    6    6    0    0 -0.25812226738E+02 -0.40857475080E+02 -0.64653303849E+02  0.80719601199E+02  0.00000000000E+00 0. -1.
         -5    1    3    3    0  503  0.38259694416E+02  0.48919551373E+02 -0.23734507437E+03  0.24538072673E+03  0.47000000000E+01 0.  1.
         13    1    4    4    0    0 -0.40955745632E+02 -0.28078817155E+02 -0.16503183618E+03  0.17234065111E+03  0.00000000000E+00 0. -1.
        -14    1    4    4    0    0  0.17508825564E+02 -0.32404568574E+02 -0.28380150644E+02  0.46497827774E+02  0.00000000000E+00 0.  1.
</event>
<event>
12    1  0.8356052E-002  0.2737859E+03  0.7818608E-02  0.1099471E+00
         21   -1    0    0  501  502  0.00000000000E+00  0.00000000000E+00  0.98620426109E+02  0.98620426109E+02  0.00000000000E+00 0.  1.
         21   -1    0    0  502  503 -0.00000000000E+00 -0.00000000000E+00 -0.82809835279E+03  0.82809835279E+03  0.00000000000E+00 0. -1.
         -6    2    1    2    0  503  0.12061593008E+03 -0.17811891453E+03 -0.50534121446E+03  0.57474206608E+03  0.16936395481E+03 0.  0.
        -24    2    3    3    0    0  0.89615155264E+02 -0.20086036875E+03 -0.45067161188E+03  0.50774148978E+03  0.79503175403E+02 0.  0.
          6    2    1    2  501    0 -0.12061593008E+03  0.17811891453E+03 -0.22413671222E+03  0.35197671282E+03  0.16545630934E+03 0.  0.
         24    2    5    5    0    0 -0.11327522453E+03  0.11681579571E+03 -0.89342052228E+02  0.20364044383E+03  0.83727065198E+02 0.  0.
          5    1    5    5  501    0 -0.73407055425E+01  0.61303118821E+02 -0.13479465999E+03  0.14833626899E+03  0.47000000000E+01 0. -1.
        -11    1    6    6    0    0 -0.59045603258E+02  0.92163866788E+02 -0.93460261937E+02  0.14392839250E+03  0.00000000000E+00 0.  1.
         12    1    6    6    0    0 -0.54229621275E+02  0.24651928922E+02  0.41182097090E+01  0.59712051333E+02  0.00000000000E+00 0. -1.
         -5    1    3    3    0  503  0.31000774812E+02  0.22741454215E+02 -0.54669602574E+02  0.67000576299E+02  0.47000000000E+01 0.  1.
         13    1    4    4    0    0  0.55670839620E+02 -0.59778959051E+02 -0.10641638506E+03  0.13415369297E+03  0.00000000000E+00 0. -1.
        -14    1    4    4    0    0  0.33944315644E+02 -0.14108140970E+03 -0.34425522683E+03  0.37358779681E+03  0.00000000000E+00 0.  1.
</event>
<event>
12    1  0.8356052E-002  0.1902489E+03  0.7818608E-02  0.1158393E+00
         21   -1    0    0  501  502  0.00000000000E+00  0.00000000000E+00  0.96092521959E+02  0.96092521959E+02  0.00000000000E+00 0.  1.
         21   -1    0    0  502  503 -0.00000000000E+00 -0.00000000000E+00 -0.65359605520E+03  0.65359605520E+03  0.00000000000E+00 0.  1.
         -6    2    1    2    0  503 -0.21228090023E+02  0.79072430254E+02 -0.52305715897E+03  0.55634642002E+03  0.17096627294E+03 0.  0.
        -24    2    3    3    0    0  0.86103616202E+01 -0.18145357576E+02 -0.18400024400E+03  0.20233609099E+03  0.81733784916E+02 0.  0.
          6    2    1    2  501    0  0.21228090023E+02 -0.79072430254E+02 -0.34446374270E+02  0.19334215714E+03  0.17173105717E+03 0.  0.
         24    2    5    5    0    0 -0.10080912714E+02 -0.71938446209E+02  0.35641869910E+02  0.11610486464E+03  0.83266030641E+02 0.  0.
          5    1    5    5  501    0  0.31309002737E+02 -0.71339840455E+01 -0.70088244179E+02  0.77237292501E+02  0.47000000000E+01 0. -1.
        -11    1    6    6    0    0  0.20102165177E+02 -0.62697844056E+02  0.48750660446E+02  0.81925231693E+02  0.00000000000E+00 0.  1.
         12    1    6    6    0    0 -0.30183077892E+02 -0.92406021528E+01 -0.13108790536E+02  0.34179632948E+02  0.00000000000E+00 0. -1.
         -5    1    3    3    0  503 -0.29838451643E+02  0.97217787830E+02 -0.33905691497E+03  0.35401032902E+03  0.47000000000E+01 0.  1.
         13    1    4    4    0    0 -0.21230840228E+02 -0.26877111664E+02 -0.30961478709E+02  0.46170779417E+02  0.00000000000E+00 0. -1.
        -14    1    4    4    0    0  0.29841201848E+02  0.87317540876E+01 -0.15303876529E+03  0.15616531157E+03  0.00000000000E+00 0.  1.
</event>
<event>
12    1  0.8356052E-002  0.2429197E+03  0.7818608E-02  0.1119363E+00
         21   -1    0    0  501  502  0.00000000000E+00  0.00000000000E+00  0.44152577896E+03  0.44152577896E+03  0.00000000000E+00 0.  1.
         21   -1    0    0  502  503 -0.00000000000E+00 -0.00000000000E+00 -0.16998620711E+03  0.16998620711E+03  0.00000000000E+00 0.  1.
         -6    2    1    2    0  503 -0.16792036562E+03  0.11605519512E+02 -0.12847182988E+02  0.24325915254E+03  0.17515144279E+03 0.  0.
        -24    2    3    3    0    0 -0.99881014648E+02 -0.58269141821E+02  0.16431074167E+02  0.14132227051E+03  0.79564401383E+02 0.  0.
          6    2    1    2  501    0  0.16792036562E+03 -0.11605519512E+02  0.28438675483E+03  0.36825283353E+03  0.16248810975E+03 0.  0.
         24    2    5    5    0    0  0.12051734706E+03 -0.67484922153E+02  0.20925612954E+03  0.26319925356E+03  0.80044198200E+02 0.  0.
          5    1    5    5  501    0  0.47403018559E+02  0.55879402641E+02  0.75130625297E+02  0.10505357997E+03  0.47000000000E+01 0. -1.
        -13    1    6    6    0    0  0.74418333467E+02 -0.14470591024E+02  0.16103548392E+03  0.17798852053E+03  0.00000000000E+00 0.  1.
         14    1    6    6    0    0  0.46099013590E+02 -0.53014331129E+02  0.48220645619E+02  0.85210733027E+02  0.00000000000E+00 0. -1.
         -5    1    3    3    0  503 -0.68039350967E+02  0.69874661333E+02 -0.29278257155E+02  0.10193688203E+03  0.47000000000E+01 0.  1.
         13    1    4    4    0    0  0.98989530970E+01 -0.12203208502E+02  0.15777043871E+02  0.22267076222E+02  0.00000000000E+00 0. -1.
        -14    1    4    4    0    0 -0.10977996775E+03 -0.46065933319E+02  0.65403029563E+00  0.11905519429E+03  0.00000000000E+00 0.  1.
</event>
<event>
12    1  0.8356052E-002  0.2173335E+03  0.7818608E-02  0.1136041E+00
         21   -1    0    0  501  502  0.00000000000E+00  0.00000000000E+00  0.31216431610E+03  0.31216431610E+03  0.00000000000E+00 0.  1.
         21   -1    0    0  502  503 -0.00000000000E+00 -0.00000000000E+00 -0.16351962885E+03  0.16351962885E+03  0.00000000000E+00 0.  1.
         -6    2    1    2    0  503 -0.18433167354E+02 -0.12590560020E+03  0.77162132246E+01  0.21665754889E+03  0.17518262392E+03 0.  0.
        -24    2    3    3    0    0 -0.26814391138E+02 -0.15359190594E+03  0.31932171417E+02  0.17864072276E+03  0.81137901850E+02 0.  0.
          6    2    1    2  501    0  0.18433167354E+02  0.12590560020E+03  0.14092847403E+03  0.25902639606E+03  0.17618693835E+03 0.  0.
         24    2    5    5    0    0 -0.30376638962E+02  0.14096356797E+03  0.98643003028E+02  0.19254865058E+03  0.80938699685E+02 0.  0.
          5    1    5    5  501    0  0.48809806316E+02 -0.15057967768E+02  0.42285470999E+02  0.66477745476E+02  0.47000000000E+01 0. -1.
        -13    1    6    6    0    0  0.59226293824E+01  0.59804304487E+02  0.82690029520E+02  0.10222168731E+03  0.00000000000E+00 0.  1.
         14    1    6    6    0    0 -0.36299268344E+02  0.81159263479E+02  0.15952973508E+02  0.90326963275E+02  0.00000000000E+00 0. -1.
         -5    1    3    3    0  503  0.83812237836E+01  0.27686305740E+02 -0.24215958193E+02  0.38016826128E+02  0.47000000000E+01 0.  1.
         11    1    4    4    0    0 -0.14719958139E+02 -0.96883789113E+02  0.59280950164E+02  0.11453111723E+03  0.00000000000E+00 0. -1.
        -12    1    4    4    0    0 -0.12094432999E+02 -0.56708116825E+02 -0.27348778747E+02  0.64109605539E+02  0.00000000000E+00 0.  1.
</event>
<event>
12    1  0.8356052E-002  0.1733025E+03  0.7818608E-02  0.1174481E+00
         21   -1    0    0  503  502  0.00000000000E+00  0.00000000000E+00  0.23834451956E+03  0.23834451956E+03  0.00000000000E+00 0.  1.
         21   -1    0    0  501  503 -0.00000000000E+00 -0.00000000000E+00 -0.12605841032E+03  0.12605841032E+03  0.00000000000E+00 0.  1.
          6    2    1    2  501    0  0.15146245541E+01  0.70772929041E+01  0.49934730564E+02  0.18022511798E+03  0.17301801545E+03 0.  0.
         24    2    3    3    0    0  0.48937628999E+02 -0.20873346108E+02  0.73305830534E+02  0.12023780360E+03  0.79074626244E+02 0.  0.
         -6    2    1    2    0  502 -0.15146245541E+01 -0.70772929041E+01  0.62351378679E+02  0.18417781190E+03  0.17315134943E+03 0.  0.
        -24    2    5    5    0    0 -0.35149269484E+02  0.50303200190E+02  0.34636983610E+02  0.11196986205E+03  0.87015207177E+02 0.  0.
          5    1    3    3  501    0 -0.47423004445E+02  0.27950639012E+02 -0.23371099970E+02  0.59987314372E+02  0.47000000000E+01 0. -1.
        -13    1    4    4    0    0  0.26512288193E+02  0.29794615810E+02  0.29617283202E+02  0.49676996897E+02  0.00000000000E+00 0.  1.
         14    1    4    4    0    0  0.22425340805E+02 -0.50667961918E+02  0.43688547333E+02  0.70560806707E+02  0.00000000000E+00 0. -1.
         -5    1    5    5    0  502  0.33634644930E+02 -0.57380493094E+02  0.27714395068E+02  0.72207949848E+02  0.47000000000E+01 0.  1.
         13    1    6    6    0    0  0.20334265395E+02  0.85815978276E+01 -0.14951001007E+02  0.26658180762E+02  0.00000000000E+00 0. -1.
        -14    1    6    6    0    0 -0.55483534879E+02  0.41721602362E+02  0.49587984617E+02  0.85311681291E+02  0.00000000000E+00 0.  1.
</event>
<event>
12    1  0.8356052E-002  0.1750156E+03  0.7818608E-02  0.1172826E+00
         21   -1    0    0  501  502  0.00000000000E+00  0.00000000000E+00  0.29381651516E+03  0.29381651516E+03  0.00000000000E+00 0. -1.
         21   -1    0    0  502  503 -0.00000000000E+00 -0.00000000000E+00 -0.12847981788E+03  0.12847981788E+03  0.00000000000E+00 0. -1.
         -6    2    1    2    0  503  0.71825858368E+01 -0.28888579614E+02 -0.94345857140E+01  0.17526967044E+03  0.17246537738E+03 0.  0.
        -24    2    3    3    0    0 -0.63020291568E+02 -0.22226797924E+02 -0.11879202748E+01  0.10411546591E+03  0.79831268257E+02 0.  0.
          6    2    1    2  501    0 -0.71825858368E+01  0.28888579614E+02  0.17477128300E+03  0.24702666260E+03  0.17202043804E+03 0.  0.
         24    2    5    5    0    0 -0.14474572567E+02 -0.20591582399E+02  0.18453191025E+02  0.82835020362E+02  0.76730657645E+02 0.  0.
          5    1    5    5  501    0  0.72919867304E+01  0.49480162014E+02  0.15631809197E+03  0.16419164224E+03  0.47000000000E+01 0. -1.
        -13    1    6    6    0    0 -0.32812428246E+02  0.12147329791E+02 -0.92512764541E+01  0.36191147874E+02  0.00000000000E+00 0.  1.
         14    1    6    6    0    0  0.18337855679E+02 -0.32738912190E+02  0.27704467479E+02  0.46643872487E+02  0.00000000000E+00 0. -1.
         -5    1    3    3    0  503  0.70202877405E+02 -0.66617816903E+01 -0.82466654392E+01  0.71154204528E+02  0.47000000000E+01 0.  1.
         11    1    4    4    0    0 -0.10633758673E+02 -0.44861368039E+02 -0.74618146363E+01  0.46704366429E+02  0.00000000000E+00 0. -1.
        -12    1    4    4    0    0 -0.52386532895E+02  0.22634570115E+02  0.62738943615E+01  0.57411099480E+02  0.00000000000E+00 0.  1.
</event>
<event>
12    1  0.8356052E-002  0.1779370E+03  0.7818608E-02  0.1169863E+00
         21   -1    0    0  501  502  0.00000000000E+00  0.00000000000E+00  0.61472885843E+02  0.61472885843E+02  0.00000000000E+00 0. -1.
         21   -1    0    0  502  503 -0.00000000000E+00 -0.00000000000E+00 -0.65145351686E+03  0.65145351686E+03  0.00000000000E+00 0. -1.
         -6    2    1    2    0  503 -0.32137137611E+01 -0.41599129335E+02 -0.45857168960E+03  0.49188369387E+03  0.17297617836E+03 0.  0.
        -24    2    3    3    0    0 -0.45546932625E+02  0.24587723140E+02 -0.20018829882E+03  0.22177840423E+03  0.80194927523E+02 0.  0.
          6    2    1    2  501    0  0.32137137611E+01  0.41599129335E+02 -0.13140894142E+03  0.22104270883E+03  0.17277370669E+03 0.  0.
         24    2    5    5    0    0  0.47658207841E+02  0.18793214740E+02 -0.13923985433E+03  0.17026046793E+03  0.83524847864E+02 0.  0.
          5    1    5    5  501    0 -0.44444494080E+02  0.22805914595E+02  0.78309129035E+01  0.50782240906E+02  0.47000000000E+01 0. -1.
        -11    1    6    6    0    0  0.20220220808E+02 -0.32535940417E+02 -0.70102937329E+02  0.79886585673E+02  0.00000000000E+00 0.  1.
         12    1    6    6    0    0  0.27437987034E+02  0.51329155157E+02 -0.69136916998E+02  0.90373882254E+02  0.00000000000E+00 0. -1.
         -5    1    3    3    0  503  0.42333218864E+02 -0.66186852475E+02 -0.25838339078E+03  0.27010528964E+03  0.47000000000E+01 0.  1.
         11    1    4    4    0    0  0.11452733127E+02 -0.19687798687E+02 -0.58219665820E+02  0.62516429851E+02  0.00000000000E+00 0. -1.
        -12    1    4    4    0    0 -0.56999665752E+02  0.44275521827E+02 -0.14196863300E+03  0.15926197438E+03  0.00000000000E+00 0.  1.
</event>
<event>
12    1  0.8356052E-002  0.2245191E+03  0.7818608E-02  0.1133346E+00
         21   -1    0    0  503  502  0.00000000000E+00  0.00000000000E+00  0.36369512161E+02  0.36369512161E+02  0.00000000000E+00 0.  1.
         21   -1    0    0  501  503 -0.00000000000E+00 -0.00000000000E+00 -0.15155175864E+04  0.15155175864E+04  0.00000000000E+00 0.  1.
          6    2    1    2  501    0 -0.86469728301E+01  0.12049537910E+03 -0.10131012677E+04  0.10345782597E+04  0.17141788196E+03 0.  0.
         24    2    3    3    0    0 -0.55998690181E+02  0.59325182935E+02 -0.79140631470E+03  0.79972783872E+03  0.81150049007E+02 0.  0.
         -6    2    1    2    0  502  0.86469728301E+01 -0.12049537910E+03 -0.46604680651E+03  0.51730883886E+03  0.18924825594E+03 0.  0.
        -24    2    5    5    0    0  0.58987687097E+02 -0.21214359471E+02 -0.30624416950E+03  0.32250154647E+03  0.79323135628E+02 0.  0.
          5    1    3    3  501    0  0.47351717351E+02  0.61170196166E+02 -0.22169495302E+03  0.23485042097E+03  0.47000000000E+01 0. -1.
        -13    1    4    4    0    0 -0.36185949586E+02  0.18982959783E+02 -0.11898672652E+03  0.12580785666E+03  0.00000000000E+00 0.  1.
         14    1    4    4    0    0 -0.19812740596E+02  0.40342223153E+02 -0.67241958818E+03  0.67391998207E+03  0.00000000000E+00 0. -1.
         -5    1    5    5    0  502 -0.50340714266E+02 -0.99281019630E+02 -0.15980263701E+03  0.19480729238E+03  0.47000000000E+01 0.  1.
         11    1    6    6    0    0  0.65708958733E+02 -0.40148218952E+02 -0.27305226631E+03  0.28370246188E+03  0.00000000000E+00 0. -1.
        -12    1    6    6    0    0 -0.67212716364E+01  0.18933859480E+02 -0.33191903192E+02  0.38799084587E+02  0.00000000000E+00 0.  1.
</event>
<event>
12    1  0.8356052E-002  0.1739537E+03  0.7818608E-02  0.1174073E+00
         21   -1    0    0  501  502  0.00000000000E+00  0.00000000000E+00  0.25691988834E+03  0.25691988834E+03  0.00000000000E+00 0. -1.
         21   -1    0    0  502  503 -0.00000000000E+00 -0.00000000000E+00 -0.28568540321E+03  0.28568540321E+03  0.00000000000E+00 0. -1.
         -6    2    1    2    0  503  0.26765932087E+02  0.37729976738E+01 -0.22286403044E+03  0.28271587564E+03  0.17184073918E+03 0.  0.
        -24    2    3    3    0    0  0.79234597766E+02  0.43014300709E+01 -0.18990641249E+03  0.22057462766E+03  0.79322739992E+02 0.  0.
          6    2    1    2  501    0 -0.26765932087E+02 -0.37729976738E+01  0.19409851557E+03  0.25988941591E+03  0.17069746373E+03 0.  0.
         24    2    5    5    0    0 -0.28688215523E+00 -0.63844021227E+01  0.17352499181E+02  0.81090076347E+02  0.78953456937E+02 0.  0.
          5    1    5    5  501    0 -0.26479049932E+02  0.26114044489E+01  0.17674601639E+03  0.17879933956E+03  0.47000000000E+01 0. -1.
        -11    1    6    6    0    0 -0.27313661975E+02  0.21345465769E+02 -0.69755740565E+01  0.35359916188E+02  0.00000000000E+00 0.  1.
         12    1    6    6    0    0  0.27026779820E+02 -0.27729867892E+02  0.24328073237E+02  0.45730160159E+02  0.00000000000E+00 0. -1.
         -5    1    3    3    0  503 -0.52468665679E+02 -0.52843239710E+00 -0.32957617954E+02  0.62141247977E+02  0.47000000000E+01 0.  1.
         11    1    4    4    0    0  0.11376905003E+02 -0.25991575874E+02 -0.99921220285E+02  0.10387129655E+03  0.00000000000E+00 0. -1.
        -12    1    4    4    0    0  0.67857692763E+02  0.30293005945E+02 -0.89985192203E+02  0.11670333111E+03  0.00000000000E+00 0.  1.
</event>
<event>
12    1  0.8356052E-002  0.3254839E+03  0.7818608E-02  0.1073164E+00
         21   -1    0    0  501  502  0.00000000000E+00  0.00000000000E+00  0.93064951547E+03  0.93064951547E+03  0.00000000000E+00 0. -1.
         21   -1    0    0  502  503 -0.00000000000E+00 -0.00000000000E+00 -0.24614401493E+03  0.24614401493E+03  0.00000000000E+00 0.  1.
         -6    2    1    2    0  503  0.15204534968E+03  0.23050849448E+03 -0.89219178224E+02  0.33739515385E+03  0.17211471084E+03 0.  0.
        -24    2    3    3    0    0  0.12249658004E+02  0.57106724801E+02 -0.45963904181E+02  0.11044996691E+03  0.81702402440E+02 0.  0.
          6    2    1    2  501    0 -0.15204534968E+03 -0.23050849448E+03  0.77372467877E+03  0.83939837655E+03  0.17230148470E+03 0.  0.
         24    2    5    5    0    0 -0.12041380030E+03 -0.21263354082E+03  0.75606423404E+03  0.79872836066E+03  0.81371752660E+02 0.  0.
          5    1    5    5  501    0 -0.31631549382E+02 -0.17874953662E+02  0.17660444721E+02  0.40670015890E+02  0.47000000000E+01 0. -1.
        -13    1    6    6    0    0 -0.12529573762E+02  0.39976452334E+00  0.12267693229E+02  0.17539849700E+02  0.00000000000E+00 0.  1.
         14    1    6    6    0    0 -0.10788422653E+03 -0.21303330535E+03  0.74379654081E+03  0.78118851096E+03  0.00000000000E+00 0. -1.
         -5    1    3    3    0  503  0.13979569167E+03  0.17340176968E+03 -0.43255274043E+02  0.22694518693E+03  0.47000000000E+01 0.  1.
         11    1    4    4    0    0 -0.52592790247E+01  0.21408981557E+02  0.22359254190E+02  0.31399693551E+02  0.00000000000E+00 0. -1.
        -12    1    4    4    0    0  0.17508937029E+02  0.35697743244E+02 -0.68323158371E+02  0.79050273360E+02  0.00000000000E+00 0.  1.
</event>
<event>
12    1  0.8356052E-002  0.1953586E+03  0.7818608E-02  0.1154073E+00
         21   -1    0    0  501  502  0.00000000000E+00  0.00000000000E+00  0.33316321246E+03  0.33316321246E+03  0.00000000000E+00 0. -1.
         21   -1    0    0  502  503 -0.00000000000E+00 -0.00000000000E+00 -0.23712944866E+03  0.23712944866E+03  0.00000000000E+00 0. -1.
         -6    2    1    2    0  503  0.23565093946E+02 -0.87462542754E+02 -0.15769583811E+03  0.25106362365E+03  0.17308944429E+03 0.  0.
        -24    2    3    3    0    0  0.72003008620E+01 -0.36704808277E+02 -0.17430867351E+03  0.19500802302E+03  0.79028653648E+02 0.  0.
          6    2    1    2  501    0 -0.23565093946E+02  0.87462542754E+02  0.25372960191E+03  0.31922903748E+03  0.17124093391E+03 0.  0.
         24    2    5    5    0    0  0.24843456051E+02 -0.63677002183E+01  0.13486168343E+03  0.16017189600E+03  0.82520407767E+02 0.  0.
          5    1    5    5  501    0 -0.48408549997E+02  0.93830242972E+02  0.11886791849E+03  0.15905714148E+03  0.47000000000E+01 0. -1.
        -13    1    6    6    0    0 -0.91185910606E+01 -0.36474292663E+02  0.83848762622E+02  0.91891989431E+02  0.00000000000E+00 0.  1.
         14    1    6    6    0    0  0.33962047112E+02  0.30106592445E+02  0.51012920803E+02  0.68279906572E+02  0.00000000000E+00 0. -1.
         -5    1    3    3    0  503  0.16364793084E+02 -0.50757734477E+02  0.16612835398E+02  0.56055600629E+02  0.47000000000E+01 0.  1.
         13    1    4    4    0    0 -0.10285925823E+02  0.18978425098E+02 -0.89436633849E+02  0.92004849674E+02  0.00000000000E+00 0. -1.
        -14    1    4    4    0    0  0.17486226685E+02 -0.55683233375E+02 -0.84872039660E+02  0.10300317334E+03  0.00000000000E+00 0.  1.
</event>
<event>
12    1  0.8356052E-002  0.1793026E+03  0.7818608E-02  0.1168674E+00
         21   -1    0    0  501  502  0.00000000000E+00  0.00000000000E+00  0.11235695702E+03  0.11235695702E+03  0.00000000000E+00 0.  1.
         21   -1    0    0  502  503 -0.00000000000E+00 -0.00000000000E+00 -0.76562118790E+03  0.76562118790E+03  0.00000000000E+00 0.  1.
         -6    2    1    2    0  503  0.62966999465E+01 -0.48365694679E+02 -0.67476434092E+03  0.69818074390E+03  0.17254143423E+03 0.  0.
        -24    2    3    3    0    0  0.29037329191E+02  0.33536815802E+02 -0.27084326534E+03  0.28538602163E+03  0.78238241664E+02 0.  0.
          6    2    1    2  501    0 -0.62966999465E+01  0.48365694679E+02  0.21500110046E+02  0.17979740102E+03  0.17171476881E+03 0.  0.
         24    2    5    5    0    0  0.39633932429E+02 -0.21709143331E+02  0.23108386658E+02  0.95864198611E+02  0.81325343758E+02 0.  0.
          5    1    5    5  501    0 -0.45930632376E+02  0.70074838010E+02 -0.16082766122E+01  0.83933202406E+02  0.47000000000E+01 0. -1.
        -13    1    6    6    0    0  0.57409690759E+02 -0.23202328781E+01  0.34697131212E+02  0.67120391745E+02  0.00000000000E+00 0.  1.
         14    1    6    6    0    0 -0.17775758330E+02 -0.19388910453E+02 -0.11588744555E+02  0.28743806865E+02  0.00000000000E+00 0. -1.
         -5    1    3    3    0  503 -0.22740629244E+02 -0.81902510481E+02 -0.40392107558E+03  0.41279472227E+03  0.47000000000E+01 0.  1.
         11    1    4    4    0    0  0.44198095798E+02  0.16702844582E+02 -0.77840609165E+02  0.91058317163E+02  0.00000000000E+00 0. -1.
        -12    1    4    4    0    0 -0.15160766608E+02  0.16833971219E+02 -0.19300265618E+03  0.19432770447E+03  0.00000000000E+00 0.  1.
</event>
<event>
12    1  0.8356052E-002  0.2589546E+03  0.7818608E-02  0.1107923E+00
         21   -1    0    0  501  502  0.00000000000E+00  0.00000000000E+00  0.13518374571E+03  0.13518374571E+03  0.00000000000E+00 0.  1.
         21   -1    0    0  502  503 -0.00000000000E+00 -0.00000000000E+00 -0.64958236317E+03  0.64958236317E+03  0.00000000000E+00 0.  1.
         -6    2    1    2    0  503 -0.16874992336E+03 -0.90489196853E+02 -0.44876441706E+03  0.51762321618E+03  0.17285676304E+03 0.  0.
        -24    2    3    3    0    0 -0.89081587248E+02 -0.10732053356E+03 -0.37854481436E+03  0.40999784613E+03  0.73135704323E+02 0.  0.
          6    2    1    2  501    0  0.16874992336E+03  0.90489196853E+02 -0.65634200397E+02  0.26714289269E+03  0.17433486592E+03 0.  0.
         24    2    5    5    0    0  0.16672488269E+03  0.83777631917E+02 -0.23547108744E+01  0.20330301732E+03  0.80688872024E+02 0.  0.
          5    1    5    5  501    0  0.20250406644E+01  0.67115649357E+01 -0.63279489523E+02  0.63839875375E+02  0.47000000000E+01 0. -1.
        -13    1    6    6    0    0  0.89394955983E+02  0.14340409328E+02  0.28452129968E+02  0.94903262297E+02  0.00000000000E+00 0.  1.
         14    1    6    6    0    0  0.77329926708E+02  0.69437222588E+02 -0.30806840842E+02  0.10839975502E+03  0.00000000000E+00 0. -1.
         -5    1    3    3    0  503 -0.79668336108E+02  0.16831336708E+02 -0.70219602705E+02  0.10762537005E+03  0.47000000000E+01 0.  1.
         11    1    4    4    0    0 -0.91827366503E+02 -0.92634063115E+02 -0.26380844418E+03  0.29429276258E+03  0.00000000000E+00 0. -1.
        -12    1    4    4    0    0  0.27457792543E+01 -0.14686470446E+02 -0.11473637018E+03  0.11570508356E+03  0.00000000000E+00 0.  1.
</event>
<event>
12    1  0.8356052E-002  0.1797435E+03  0.7818608E-02  0.1168219E+00
         21   -1    0    0  503  502  0.00000000000E+00  0.00000000000E+00  0.31986655216E+03  0.31986655216E+03  0.00000000000E+00 0.  1.
         21   -1    0    0  501  503 -0.00000000000E+00 -0.00000000000E+00 -0.10241335504E+03  0.10241335504E+03  0.00000000000E+00 0.  1.
          6    2    1    2  501    0 -0.45437681292E+02  0.27264033360E+02  0.13648455256E+03  0.22514127702E+03  0.17103406426E+03 0.  0.
         24    2    3    3    0    0  0.10303641882E+02  0.68851230370E+02  0.10074490693E+03  0.14680863802E+03  0.80972729757E+02 0.  0.
         -6    2    1    2    0  502  0.45437681292E+02 -0.27264033360E+02  0.80968644570E+02  0.19713863018E+03  0.17175508059E+03 0.  0.
        -24    2    5    5    0    0  0.89544153505E+02 -0.31568102667E+02  0.87863938543E+02  0.15204383022E+03  0.79890888591E+02 0.  0.
          5    1    3    3  501    0 -0.55741323174E+02 -0.41587197010E+02  0.35739645622E+02  0.78332639005E+02  0.47000000000E+01 0. -1.
        -13    1    4    4    0    0  0.10358186894E+02  0.43969101627E+02  0.22601082310E+01  0.45229216474E+02  0.00000000000E+00 0.  1.
         14    1    4    4    0    0 -0.54545011724E-01  0.24882128743E+02  0.98484798703E+02  0.10157942155E+03  0.00000000000E+00 0. -1.
         -5    1    5    5    0  502 -0.44106472213E+02  0.43040693066E+01 -0.68952939731E+01  0.45094799952E+02  0.47000000000E+01 0.  1.
         11    1    6    6    0    0  0.24548493643E+02  0.24187731093E+02  0.43817181745E+02  0.55746033865E+02  0.00000000000E+00 0. -1.
        -12    1    6    6    0    0  0.64995659862E+02 -0.55755833760E+02  0.44046756798E+02  0.96297796359E+02  0.00000000000E+00 0.  1.
</event>
<event>
12    1  0.8356052E-002  0.2074708E+03  0.7818608E-02  0.1143696E+00
         21   -1    0    0  503  502  0.00000000000E+00  0.00000000000E+00  0.59112400688E+03  0.59112400688E+03  0.00000000000E+00 0.  1.
         21   -1    0    0  501  503 -0.00000000000E+00 -0.00000000000E+00 -0.73355140524E+02  0.73355140524E+02  0.00000000000E+00 0.  1.
          6    2    1    2  501    0  0.38237182332E+02 -0.10747687014E+03  0.29240238218E+03  0.35852932769E+03  0.17329387173E+03 0.  0.
         24    2    3    3    0    0  0.84860565179E+02 -0.78424505182E+02  0.14765574485E+03  0.20363756304E+03  0.79462692868E+02 0.  0.
         -6    2    1    2    0  502 -0.38237182332E+02  0.10747687014E+03  0.22536648418E+03  0.30594981972E+03  0.17263221098E+03 0.  0.
        -24    2    5    5    0    0 -0.10153730456E+01  0.46693976503E+02  0.21698530412E+03  0.23403071638E+03  0.74205091353E+02 0.  0.
          5    1    3    3  501    0 -0.46623382847E+02 -0.29052364962E+02  0.14474663732E+03  0.15489176464E+03  0.47000000000E+01 0. -1.
        -11    1    4    4    0    0  0.84612188655E+02 -0.91779072486E+02  0.14217691258E+03  0.18920067412E+03  0.00000000000E+00 0.  1.
         12    1    4    4    0    0  0.24837652412E+00  0.13354567304E+02  0.54788322755E+01  0.14436888927E+02  0.00000000000E+00 0. -1.
         -5    1    5    5    0  502 -0.37221809287E+02  0.60782893642E+02  0.83811800632E+01  0.71919103341E+02  0.47000000000E+01 0.  1.
         13    1    6    6    0    0 -0.12151577597E+02 -0.12651022634E+02  0.14576016314E+02  0.22807223929E+02  0.00000000000E+00 0. -1.
        -14    1    6    6    0    0  0.11136204551E+02  0.59344999137E+02  0.20240928780E+03  0.21122349245E+03  0.00000000000E+00 0.  1.
</event>
<event>
12    1  0.8356052E-002  0.2179884E+03  0.7818608E-02  0.1135416E+00
         21   -1    0    0  501  502  0.00000000000E+00  0.00000000000E+00  0.46042532186E+03  0.46042532186E+03  0.00000000000E+00 0.  1.
         21   -1    0    0  502  503 -0.00000000000E+00 -0.00000000000E+00 -0.11731798008E+03  0.11731798008E+03  0.00000000000E+00 0.  1.
         -6    2    1    2    0  503 -0.12782730979E+03  0.39059974796E+02  0.27191468793E+03  0.34842397361E+03  0.17203536007E+03 0.  0.
        -24    2    3    3    0    0 -0.15045751324E+03  0.20482817909E+02  0.26838445061E+03  0.31856112978E+03  0.79962309586E+02 0.  0.
          6    2    1    2  501    0  0.12782730979E+03 -0.39059974796E+02  0.71192653850E+02  0.22931932832E+03  0.17220179332E+03 0.  0.
         24    2    5    5    0    0  0.82259572259E+02 -0.50371258523E+02 -0.18779540152E+02  0.12772479335E+03  0.81590751890E+02 0.  0.
          5    1    5    5  501    0  0.45567737534E+02  0.11311283727E+02  0.89972194002E+02  0.10159453498E+03  0.47000000000E+01 0. -1.
        -13    1    6    6    0    0  0.72233245816E+02 -0.39908815427E+01  0.87417179924E+01  0.72869654658E+02  0.00000000000E+00 0.  1.
         14    1    6    6    0    0  0.10026326443E+02 -0.46380376981E+02 -0.27521258144E+02  0.54855138690E+02  0.00000000000E+00 0. -1.
         -5    1    3    3    0  503  0.22630203451E+02  0.18577156888E+02  0.35302373167E+01  0.29862843833E+02  0.47000000000E+01 0.  1.
         13    1    4    4    0    0 -0.63260577277E+02  0.44682028712E+02  0.91536956949E+02  0.11990579141E+03  0.00000000000E+00 0. -1.
        -14    1    4    4    0    0 -0.87196935967E+02 -0.24199210804E+02  0.17684749366E+03  0.19865533836E+03  0.00000000000E+00 0.  1.
</event>
<event>
12    1  0.8356052E-002  0.2517712E+03  0.7818608E-02  0.1112654E+00
         21   -1    0    0  501  502  0.00000000000E+00  0.00000000000E+00  0.35829067001E+03  0.35829067001E+03  0.00000000000E+00 0.  1.
         21   -1    0    0  502  503 -0.00000000000E+00 -0.00000000000E+00 -0.53083536194E+03  0.53083536194E+03  0.00000000000E+00 0. -1.
         -6    2    1    2    0  503  0.83533634557E+02  0.16493720328E+03 -0.45048875301E+03  0.51607057945E+03  0.17089931908E+03 0.  0.
        -24    2    3    3    0    0 -0.10781741479E+02  0.84102778367E+02 -0.29276396335E+03  0.31525027749E+03  0.80513824542E+02 0.  0.
          6    2    1    2  501    0 -0.83533634557E+02 -0.16493720328E+03  0.27794406108E+03  0.37305545249E+03  0.16653924587E+03 0.  0.
         24    2    5    5    0    0 -0.28300889235E+02 -0.25346817167E+02  0.44126003718E+02  0.95154200243E+02  0.75258329425E+02 0.  0.
          5    1    5    5  501    0 -0.55232745322E+02 -0.13959038612E+03  0.23381805736E+03  0.27790125225E+03  0.47000000000E+01 0. -1.
        -11    1    6    6    0    0  0.18856399095E+02 -0.23305813706E+02  0.36674569029E+02  0.47368225139E+02  0.00000000000E+00 0.  1.
         12    1    6    6    0    0 -0.47157288330E+02 -0.20410034604E+01  0.74514346894E+01  0.47785975104E+02  0.00000000000E+00 0. -1.
         -5    1    3    3    0  503  0.94315376036E+02  0.80834424916E+02 -0.15772478966E+03  0.20082030196E+03  0.47000000000E+01 0.  1.
         11    1    4    4    0    0  0.15469119724E+02  0.40525022096E+02 -0.23191250703E+03  0.23593427474E+03  0.00000000000E+00 0. -1.
        -12    1    4    4    0    0 -0.26250861203E+02  0.43577756271E+02 -0.60851456316E+02  0.79316002744E+02  0.00000000000E+00 0.  1.
</event>
<event>
12    1  0.8356052E-002  0.2102268E+03  0.7818608E-02  0.1141761E+00
         21   -1    0    0  503  502  0.00000000000E+00  0.00000000000E+00  0.71668052671E+03  0.71668052671E+03  0.00000000000E+00 0. -1.
         21   -1    0    0  501  503 -0.00000000000E+00 -0.00000000000E+00 -0.64364751838E+02  0.64364751838E+02  0.00000000000E+00 0. -1.
          6    2    1    2  501    0 -0.11498815620E+03 -0.30292525500E+02  0.41530275099E+03  0.46548007001E+03  0.17336495443E+03 0.  0.
         24    2    3    3    0    0 -0.10699872906E+03 -0.38655339705E+02  0.42631847243E+03  0.44883063379E+03  0.82210307045E+02 0.  0.
         -6    2    1    2    0  502  0.11498815620E+03  0.30292525500E+02  0.23701302388E+03  0.31556520854E+03  0.17107400208E+03 0.  0.
        -24    2    5    5    0    0  0.63663326800E+02  0.69854959124E+02  0.10527869320E+03  0.16867937482E+03  0.91849843527E+02 0.  0.
          5    1    3    3  501    0 -0.79894271374E+01  0.83628142053E+01 -0.11015721441E+02  0.16649436215E+02  0.47000000000E+01 0. -1.
        -11    1    4    4    0    0  0.13168397174E+02 -0.61180514714E+01  0.67028649198E+02  0.68583358413E+02  0.00000000000E+00 0.  1.
         12    1    4    4    0    0 -0.12016712623E+03 -0.32537288234E+02  0.35928982324E+03  0.38024727538E+03  0.00000000000E+00 0. -1.
         -5    1    5    5    0  502  0.51324829395E+02 -0.39562433624E+02  0.13173433068E+03  0.14688583372E+03  0.47000000000E+01 0.  1.
         11    1    6    6    0    0  0.14591069985E+02  0.16788883274E+02  0.92679763044E+02  0.95311617355E+02  0.00000000000E+00 0. -1.
        -12    1    6    6    0    0  0.49072256815E+02  0.53066075850E+02  0.12598930154E+02  0.73367757469E+02  0.00000000000E+00 0.  1.
</event>
<event>
12    1  0.8356052E-002  0.1924783E+03  0.7818608E-02  0.1156618E+00
         21   -1    0    0  503  502  0.00000000000E+00  0.00000000000E+00  0.12408454485E+03  0.12408454485E+03  0.00000000000E+00 0.  1.
         21   -1    0    0  501  503 -0.00000000000E+00 -0.00000000000E+00 -0.39236454960E+03  0.39236454960E+03  0.00000000000E+00 0.  1.
          6    2    1    2  501    0 -0.79624866329E+02 -0.30777761193E+02 -0.26256525825E+03  0.32555860310E+03  0.17251231635E+03 0.  0.
         24    2    3    3    0    0 -0.55813395804E+02 -0.32905426938E+02 -0.56305032667E+02  0.11786439580E+03  0.80770395692E+02 0.  0.
         -6    2    1    2    0  502  0.79624866329E+02  0.30777761193E+02 -0.57147465012E+01  0.19089049134E+03  0.17064328711E+03 0.  0.
        -24    2    5    5    0    0  0.43782375507E+01 -0.34087963110E+02 -0.25113086841E+02  0.89559336508E+02  0.78797521738E+02 0.  0.
          5    1    3    3  501    0 -0.23811470525E+02  0.21276657449E+01 -0.20626022558E+03  0.20769420730E+03  0.47000000000E+01 0. -1.
        -13    1    4    4    0    0 -0.17658729074E+02 -0.45401752385E+02 -0.49070952366E-02  0.48714985951E+02  0.00000000000E+00 0.  1.
         14    1    4    4    0    0 -0.38154666729E+02  0.12496325447E+02 -0.56300125572E+02  0.69149409848E+02  0.00000000000E+00 0. -1.
         -5    1    5    5    0  502  0.75246628778E+02  0.64865724304E+02  0.19398340339E+02  0.10133115483E+03  0.47000000000E+01 0.  1.
         13    1    6    6    0    0  0.40441354422E+02 -0.25950270165E+02 -0.20724328033E+02  0.52329890517E+02  0.00000000000E+00 0. -1.
        -14    1    6    6    0    0 -0.36063116871E+02 -0.81376929451E+01 -0.43887588080E+01  0.37229445991E+02  0.00000000000E+00 0.  1.
</event>
<event>
12    1  0.8356052E-002  0.2983018E+03  0.7818608E-02  0.1086287E+00
         21   -1    0    0  501  502  0.00000000000E+00  0.00000000000E+00  0.34863265461E+03  0.34863265461E+03  0.00000000000E+00 0.  1.
         21   -1    0    0  502  503 -0.00000000000E+00 -0.00000000000E+00 -0.26196543617E+03  0.26196543617E+03  0.00000000000E+00 0.  1.
         -6    2    1    2    0  503  0.34499415872E+02 -0.24025463187E+03  0.96945340000E+02  0.31365959060E+03  0.17341119340E+03 0.  0.
        -24    2    3    3    0    0 -0.18231541166E+02 -0.40934663485E+02  0.39914597189E+02  0.99688566272E+02  0.79602760057E+02 0.  0.
          6    2    1    2  501    0 -0.34499415872E+02  0.24025463187E+03 -0.10278121558E+02  0.29693850018E+03  0.17074640634E+03 0.  0.
         24    2    5    5    0    0 -0.63498190355E+02  0.14662237850E+03  0.46041650844E+02  0.18379286591E+03  0.78293306807E+02 0.  0.
          5    1    5    5  501    0  0.28998774483E+02  0.93632253366E+02 -0.56319772402E+02  0.11314563427E+03  0.47000000000E+01 0. -1.
        -11    1    6    6    0    0 -0.13561357877E+02  0.10400473755E+03  0.53462049427E+02  0.11772462185E+03  0.00000000000E+00 0.  1.
         12    1    6    6    0    0 -0.49936832478E+02  0.42617640953E+02 -0.74203985837E+01  0.66068244062E+02  0.00000000000E+00 0. -1.
         -5    1    3    3    0  503  0.52730957038E+02 -0.19931996838E+03  0.57030742811E+02  0.21397102433E+03  0.47000000000E+01 0.  1.
         11    1    4    4    0    0 -0.31769841783E+02 -0.63617763970E+01 -0.13113873911E+02  0.34953808588E+02  0.00000000000E+00 0. -1.
        -12    1    4    4    0    0  0.13538300617E+02 -0.34572887088E+02  0.53028471100E+02  0.64734757684E+02  0.00000000000E+00 0.  1.
</event>
<event>
12    1  0.8356052E-002  0.1761937E+03  0.7818608E-02  0.1171655E+00
         21   -1    0    0  503  502  0.00000000000E+00  0.00000000000E+00  0.18490916951E+03  0.18490916951E+03  0.00000000000E+00 0. -1.
         21   -1    0    0  501  503 -0.00000000000E+00 -0.00000000000E+00 -0.24785684283E+03  0.24785684283E+03  0.00000000000E+00 0. -1.
          6    2    1    2  501    0  0.37130681939E+02 -0.13006470369E+02 -0.15475236076E+03  0.23450482131E+03  0.17174505012E+03 0.  0.
         24    2    3    3    0    0  0.87864517814E+02 -0.24568507684E+02 -0.12361743263E+03  0.17368478712E+03  0.81002163945E+02 0.  0.
         -6    2    1    2    0  502 -0.37130681939E+02  0.13006470369E+02  0.91804687437E+02  0.19826119103E+03  0.17126454222E+03 0.  0.
        -24    2    5    5    0    0 -0.86715153159E+02 -0.15261809155E+02  0.70881651341E+02  0.13728923967E+03  0.77921025572E+02 0.  0.
          5    1    3    3  501    0 -0.50733835875E+02  0.11562037315E+02 -0.31134928128E+02  0.60820034191E+02  0.47000000000E+01 0. -1.
        -11    1    4    4    0    0 -0.32987895235E+01 -0.29690722509E+02 -0.22189921319E+02  0.37213084037E+02  0.00000000000E+00 0.  1.
         12    1    4    4    0    0  0.91163307338E+02  0.51222148250E+01 -0.10142751132E+03  0.13647170308E+03  0.00000000000E+00 0. -1.
         -5    1    5    5    0  502  0.49584471220E+02  0.28268279525E+02  0.20923036096E+02  0.60971951362E+02  0.47000000000E+01 0.  1.
         11    1    6    6    0    0 -0.73638234349E+02  0.22929062594E+02  0.48961755925E+02  0.91354173483E+02  0.00000000000E+00 0. -1.
        -12    1    6    6    0    0 -0.13076918810E+02 -0.38190871749E+02  0.21919895416E+02  0.45935066187E+02  0.00000000000E+00 0.  1.
</event>
<event>
12    1  0.8356052E-002  0.2408606E+03  0.7818608E-02  0.1119448E+00
         21   -1    0    0  501  502  0.00000000000E+00  0.00000000000E+00  0.36333608805E+02  0.36333608805E+02  0.00000000000E+00 0. -1.
         21   -1    0    0  502  503 -0.00000000000E+00 -0.00000000000E+00 -0.16896103976E+04  0.16896103976E+04  0.00000000000E+00 0.  1.
         -6    2    1    2    0  503  0.98137530915E+02 -0.13293047849E+03 -0.61246445608E+03  0.65762564085E+03  0.17337037366E+03 0.  0.
        -24    2    3    3    0    0  0.93511555766E+02 -0.39841212565E+02 -0.21759991337E+03  0.25188297837E+03  0.75918240297E+02 0.  0.
          6    2    1    2  501    0 -0.98137530915E+02  0.13293047849E+03 -0.10408123327E+04  0.10683183655E+04  0.17524933996E+03 0.  0.
         24    2    5    5    0    0  0.96470369231E+01  0.10079758314E+03 -0.55804880278E+03  0.57260398018E+03  0.78763149668E+02 0.  0.
          5    1    5    5  501    0 -0.10778456784E+03  0.32132895347E+02 -0.48276352992E+03  0.49571438536E+03  0.47000000000E+01 0. -1.
        -13    1    6    6    0    0 -0.66130435242E+01  0.49875380437E+02 -0.44178000368E+03  0.44463564586E+03  0.00000000000E+00 0.  1.
         14    1    6    6    0    0  0.16260080447E+02  0.50922202706E+02 -0.11626879911E+03  0.12796833433E+03  0.00000000000E+00 0. -1.
         -5    1    3    3    0  503  0.46259751489E+01 -0.93089265924E+02 -0.39486454270E+03  0.40574266249E+03  0.47000000000E+01 0.  1.
         13    1    4    4    0    0  0.94555315156E+02 -0.98619962333E+01 -0.18196728408E+03  0.20530479553E+03  0.00000000000E+00 0. -1.
        -14    1    4    4    0    0 -0.10437593899E+01 -0.29979216332E+02 -0.35632629297E+02  0.46578182834E+02  0.00000000000E+00 0.  1.
</event>
<event>
12    1  0.8356052E-002  0.1901073E+03  0.7818608E-02  0.1158793E+00
         21   -1    0    0  501  502  0.00000000000E+00  0.00000000000E+00  0.16204747625E+03  0.16204747625E+03  0.00000000000E+00 0.  1.
         21   -1    0    0  502  503 -0.00000000000E+00 -0.00000000000E+00 -0.29849712836E+03  0.29849712836E+03  0.00000000000E+00 0.  1.
         -6    2    1    2    0  503  0.52189744699E+02 -0.61940274531E+02 -0.18594875570E+03  0.26592803143E+03  0.17198956681E+03 0.  0.
        -24    2    3    3    0    0  0.53711059558E+02  0.17762008547E+02 -0.12403347199E+03  0.16488170204E+03  0.92743229542E+02 0.  0.
          6    2    1    2  501    0 -0.52189744699E+02  0.61940274531E+02  0.49499103586E+02  0.19461657318E+03  0.16989726966E+03 0.  0.
         24    2    5    5    0    0 -0.88830404693E+02  0.34003621621E+02 -0.20658948535E+01  0.12530543695E+03  0.81548130128E+02 0.  0.
          5    1    5    5  501    0  0.36640659994E+02  0.27936652910E+02  0.51564998440E+02  0.69311136224E+02  0.47000000000E+01 0. -1.
        -13    1    6    6    0    0 -0.57324909715E+02  0.60582838259E+02 -0.74430649139E+01  0.83736639416E+02  0.00000000000E+00 0.  1.
         14    1    6    6    0    0 -0.31505494978E+02 -0.26579216638E+02  0.53771700604E+01  0.41568797538E+02  0.00000000000E+00 0. -1.
         -5    1    3    3    0  503 -0.15213148595E+01 -0.79702283078E+02 -0.61915283713E+02  0.10104632939E+03  0.47000000000E+01 0.  1.
         11    1    4    4    0    0 -0.12564080817E+01  0.40903922093E+02 -0.21407393239E+02  0.46184260189E+02  0.00000000000E+00 0. -1.
        -12    1    4    4    0    0  0.54967467640E+02 -0.23141913546E+02 -0.10262607875E+03  0.11869744185E+03  0.00000000000E+00 0.  1.
</event>
<event>
12    1  0.8356052E-002  0.1906246E+03  0.7818608E-02  0.1158147E+00
         21   -1    0    0  503  502  0.00000000000E+00  0.00000000000E+00  0.12640514414E+03  0.12640514414E+03  0.00000000000E+00 0.  1.
         21   -1    0    0  501  503 -0.00000000000E+00 -0.00000000000E+00 -0.29144924934E+03  0.29144924934E+03  0.00000000000E+00 0.  1.
          6    2    1    2  501    0  0.79839088636E+02  0.94601196523E+01 -0.53241199376E+02  0.19686198658E+03  0.17162821013E+03 0.  0.
         24    2    3    3    0    0 -0.13609848738E+01  0.44615999944E+02  0.62193720236E+01  0.90151924224E+02  0.78078480532E+02 0.  0.
         -6    2    1    2    0  502 -0.79839088636E+02 -0.94601196523E+01 -0.11180290581E+03  0.22099240690E+03  0.17284091015E+03 0.  0.
        -24    2    5    5    0    0 -0.25213605608E+02 -0.38139450268E+02 -0.12774861860E+03  0.15709559042E+03  0.79176836262E+02 0.  0.
          5    1    3    3  501    0  0.81200073510E+02 -0.35155880292E+02 -0.59460571400E+02  0.10671006236E+03  0.47000000000E+01 0. -1.
        -13    1    4    4    0    0  0.29925356700E+02 -0.57951351964E+01  0.43659398542E+01  0.30792401601E+02  0.00000000000E+00 0.  1.
         14    1    4    4    0    0 -0.31286341574E+02  0.50411135140E+02  0.18534321694E+01  0.59359522623E+02  0.00000000000E+00 0. -1.
         -5    1    5    5    0  502 -0.54625483028E+02  0.28679330615E+02  0.15945712781E+02  0.63896816483E+02  0.47000000000E+01 0.  1.
         11    1    6    6    0    0 -0.90551024689E+01 -0.34830219996E+02 -0.88524664156E+01  0.37060831983E+02  0.00000000000E+00 0. -1.
        -12    1    6    6    0    0 -0.16158503139E+02 -0.33092302719E+01 -0.11889615218E+03  0.12003475843E+03  0.00000000000E+00 0.  1.
</event>
<event>
12    1  0.8356052E-002  0.2041270E+03  0.7818608E-02  0.1146405E+00
         21   -1    0    0  503  502  0.00000000000E+00  0.00000000000E+00  0.30226943512E+04  0.30226943512E+04  0.00000000000E+00 0.  1.
         21   -1    0    0  501  503 -0.00000000000E+00 -0.00000000000E+00 -0.13753557261E+02  0.13753557261E+02  0.00000000000E+00 0.  1.
          6    2    1    2  501    0  0.84389952373E+02 -0.69208696509E+02  0.14840148098E+04  0.14979203429E+04  0.17191244914E+03 0.  0.
         24    2    3    3    0    0  0.86639373274E+02 -0.57113221254E+01  0.12419718770E+04  0.12476328127E+04  0.80959816270E+02 0.  0.
         -6    2    1    2    0  502 -0.84389952373E+02  0.69208696509E+02  0.15249259841E+04  0.15385275656E+04  0.17250016007E+03 0.  0.
        -24    2    5    5    0    0  0.22853030575E+02  0.15000344329E+02  0.67163198868E+03  0.67680119630E+03  0.78886372424E+02 0.  0.
          5    1    3    3  501    0 -0.22494209007E+01 -0.63497374384E+02  0.24204293285E+03  0.25028753023E+03  0.47000000000E+01 0. -1.
        -13    1    4    4    0    0  0.17219001783E+02  0.28036362915E+01  0.40136471792E+02  0.43764035083E+02  0.00000000000E+00 0.  1.
         14    1    4    4    0    0  0.69420371491E+02 -0.85149584169E+01  0.12018354052E+04  0.12038687776E+04  0.00000000000E+00 0. -1.
         -5    1    5    5    0  502 -0.10724298295E+03  0.54208352180E+02  0.85329399547E+03  0.86172636930E+03  0.47000000000E+01 0.  1.
         13    1    6    6    0    0  0.15983617365E+02  0.43519599675E+02  0.25816435435E+03  0.26229423447E+03  0.00000000000E+00 0. -1.
        -14    1    6    6    0    0  0.68694132094E+01 -0.28519255346E+02  0.41346763433E+03  0.41450696182E+03  0.00000000000E+00 0.  1.
</event>
<event>
12    1  0.8356052E-002  0.3151480E+03  0.7818608E-02  0.1077948E+00
         21   -1    0    0  501  502  0.00000000000E+00  0.00000000000E+00  0.22595726217E+03  0.22595726217E+03  0.00000000000E+00 0. -1.
         21   -1    0    0  502  503 -0.00000000000E+00 -0.00000000000E+00 -0.44298543226E+03  0.44298543226E+03  0.00000000000E+00 0.  1.
         -6    2    1    2    0  503 -0.24322706545E+03  0.10385633014E+03 -0.14008454048E+03  0.34453774928E+03  0.17069575134E+03 0.  0.
        -24    2    3    3    0    0 -0.20721826441E+03  0.21588756736E+02 -0.87717827566E+02  0.24047550826E+03  0.82027856704E+02 0.  0.
          6    2    1    2  501    0  0.24322706545E+03 -0.10385633014E+03 -0.76943629604E+02  0.32440494515E+03  0.17138466566E+03 0.  0.
         24    2    5    5    0    0  0.16988310461E+03 -0.13769920432E+03 -0.70108324959E+02  0.24320464888E+03  0.80074864380E+02 0.  0.
          5    1    5    5  501    0  0.73343960832E+02  0.33842874185E+02 -0.68353046446E+01  0.81200296263E+02  0.47000000000E+01 0. -1.
        -13    1    6    6    0    0  0.52212816157E+02 -0.19231818563E+02 -0.50391759911E+02  0.75069104718E+02  0.00000000000E+00 0.  1.
         14    1    6    6    0    0  0.11767028846E+03 -0.11846738576E+03 -0.19716565049E+02  0.16813554417E+03  0.00000000000E+00 0. -1.
         -5    1    3    3    0  503 -0.36008801032E+02  0.82267573404E+02 -0.52366712914E+02  0.10406224102E+03  0.47000000000E+01 0.  1.
         13    1    4    4    0    0 -0.14617265418E+03  0.52633468075E+02 -0.63442881451E+02  0.16781455836E+03  0.00000000000E+00 0. -1.
        -14    1    4    4    0    0 -0.61045610232E+02 -0.31044711339E+02 -0.24274946115E+02  0.72660949895E+02  0.00000000000E+00 0.  1.
</event>
<event>
12    1  0.8356052E-002  0.1826816E+03  0.7818608E-02  0.1165335E+00
         21   -1    0    0  501  502  0.00000000000E+00  0.00000000000E+00  0.41124120015E+03  0.41124120015E+03  0.00000000000E+00 0. -1.
         21   -1    0    0  502  503 -0.00000000000E+00 -0.00000000000E+00 -0.14892629198E+03  0.14892629198E+03  0.00000000000E+00 0. -1.
         -6    2    1    2    0  503  0.55878507158E+02 -0.20508848859E+02 -0.58137983703E+02  0.19130082474E+03  0.17225841039E+03 0.  0.
        -24    2    3    3    0    0  0.92512758905E+02 -0.49490554503E+02 -0.33062372674E+02  0.13807598156E+03  0.83450168665E+02 0.  0.
          6    2    1    2  501    0 -0.55878507158E+02  0.20508848859E+02  0.32045289187E+03  0.36886666739E+03  0.17271230980E+03 0.  0.
         24    2    5    5    0    0  0.15605744865E+02 -0.11027960478E+02  0.25037727306E+03  0.26380834557E+03  0.80875887286E+02 0.  0.
          5    1    5    5  501    0 -0.71484252023E+02  0.31536809337E+02  0.70075618812E+02  0.10505832181E+03  0.47000000000E+01 0. -1.
        -13    1    6    6    0    0 -0.22936929037E+02  0.22163515016E+02  0.85082096346E+02  0.90864114095E+02  0.00000000000E+00 0.  1.
         14    1    6    6    0    0  0.38542673902E+02 -0.33191475494E+02  0.16529517671E+03  0.17294423148E+03  0.00000000000E+00 0. -1.
         -5    1    3    3    0  503 -0.36634251747E+02  0.28981705645E+02 -0.25075611029E+02  0.53224843181E+02  0.47000000000E+01 0.  1.
         13    1    4    4    0    0  0.84939507690E+02 -0.23048444625E+02 -0.54222357620E+02  0.10337318236E+03  0.00000000000E+00 0. -1.
        -14    1    4    4    0    0  0.75732512151E+01 -0.26442109878E+02  0.21159984946E+02  0.34702799191E+02  0.00000000000E+00 0.  1.
</event>
<event>
12    1  0.8356052E-002  0.2308351E+03  0.7818608E-02  0.1126074E+00
         21   -1    0    0  501  502  0.00000000000E+00  0.00000000000E+00  0.22947096669E+03  0.22947096669E+03  0.00000000000E+00 0.  1.
         21   -1    0    0  502  503 -0.00000000000E+00 -0.00000000000E+00 -0.34703129703E+03  0.34703129703E+03  0.00000000000E+00 0.  1.
         -6    2    1    2    0  503 -0.21477483173E+02 -0.15089277890E+03 -0.22468441952E+03  0.32213029826E+03  0.17336357078E+03 0.  0.
        -24    2    3    3    0    0 -0.41951393201E+01 -0.85470919135E+02 -0.36699357689E+02  0.12228242458E+03  0.79267088342E+02 0.  0.
          6    2    1    2  501    0  0.21477483173E+02  0.15089277890E+03  0.10712408918E+03  0.25437196546E+03  0.17320396450E+03 0.  0.
         24    2    5    5    0    0  0.60541779581E+01  0.17635988833E+03  0.68656946640E+02  0.20550210704E+03  0.79861607757E+02 0.  0.
          5    1    5    5  501    0  0.15423305215E+02 -0.25467109428E+02  0.38467142542E+02  0.48869858417E+02  0.47000000000E+01 0. -1.
        -13    1    6    6    0    0 -0.12238631076E+02  0.23780384098E+02  0.41615927673E+02  0.49468941717E+02  0.00000000000E+00 0.  1.
         14    1    6    6    0    0  0.18292809035E+02  0.15257950423E+03  0.27041018966E+02  0.15603316533E+03  0.00000000000E+00 0. -1.
         -5    1    3    3    0  503 -0.17282343853E+02 -0.65421859769E+02 -0.18798506183E+03  0.19984787368E+03  0.47000000000E+01 0.  1.
         13    1    4    4    0    0 -0.18364444968E+01  0.13682307163E+02  0.50125345954E+01  0.14686849927E+02  0.00000000000E+00 0. -1.
        -14    1    4    4    0    0 -0.23586948233E+01 -0.99153226298E+02 -0.41711892285E+02  0.10759557465E+03  0.00000000000E+00 0.  1.
</event>
<event>
12    1  0.8356052E-002  0.2204438E+03  0.7818608E-02  0.1133665E+00
         21   -1    0    0  501  502  0.00000000000E+00  0.00000000000E+00  0.21418532028E+03  0.21418532028E+03  0.00000000000E+00 0. -1.
         21   -1    0    0  502  503 -0.00000000000E+00 -0.00000000000E+00 -0.72546118288E+03  0.72546118288E+03  0.00000000000E+00 0. -1.
         -6    2    1    2    0  503  0.11759101922E+03 -0.70606794182E+02 -0.64547744334E+03  0.68208253094E+03  0.17257601793E+03 0.  0.
        -24    2    3    3    0    0  0.92834483426E+02  0.12379137614E+02 -0.47618893540E+03  0.49187149061E+03  0.80063579244E+02 0.  0.
          6    2    1    2  501    0 -0.11759101922E+03  0.70606794182E+02  0.13420158073E+03  0.25756397222E+03  0.17180270176E+03 0.  0.
         24    2    5    5    0    0 -0.83610482095E+02  0.63698968461E+02  0.14222654375E+02  0.13258626329E+03  0.79552259660E+02 0.  0.
          5    1    5    5  501    0 -0.33980537121E+02  0.69078257204E+01  0.11997892636E+03  0.12497770893E+03  0.47000000000E+01 0. -1.
        -13    1    6    6    0    0 -0.18652607722E+02 -0.19006504206E+02  0.18216415144E+01  0.26692421298E+02  0.00000000000E+00 0.  1.
         14    1    6    6    0    0 -0.64957874373E+02  0.82705472667E+02  0.12401012861E+02  0.10589384199E+03  0.00000000000E+00 0. -1.
         -5    1    3    3    0  503  0.24756535790E+02 -0.82985931796E+02 -0.16928850794E+03  0.19021104032E+03  0.47000000000E+01 0.  1.
         13    1    4    4    0    0  0.31098506682E+02 -0.33747130576E+02 -0.16258658431E+03  0.16893899294E+03  0.00000000000E+00 0. -1.
        -14    1    4    4    0    0  0.61735976745E+02  0.46126268190E+02 -0.31360235109E+03  0.32293249767E+03  0.00000000000E+00 0.  1.
</event>
<event>
12    1  0.8356052E-002  0.2120927E+03  0.7818608E-02  0.1140118E+00
         21   -1    0    0  501  502  0.00000000000E+00  0.00000000000E+00  0.30410291613E+03  0.30410291613E+03  0.00000000000E+00 0.  1.
         21   -1    0    0  502  503 -0.00000000000E+00 -0.00000000000E+00 -0.14753814986E+03  0.14753814986E+03  0.00000000000E+00 0. -1.
         -6    2    1    2    0  503 -0.11964023111E+03  0.33110505998E+02  0.67535525283E+02  0.22162033127E+03  0.17071740845E+03 0.  0.
        -24    2    3    3    0    0 -0.10135100113E+03 -0.41944716755E+02  0.36431521118E+02  0.13820971162E+03  0.75784457254E+02 0.  0.
          6    2    1    2  501    0  0.11964023111E+03 -0.33110505998E+02  0.89029240991E+02  0.23002073472E+03  0.17196872431E+03 0.  0.
         24    2    5    5    0    0  0.13447688702E+03 -0.79414924720E+01  0.10564349706E+03  0.19608360011E+03  0.95609253304E+02 0.  0.
          5    1    5    5  501    0 -0.14836655903E+02 -0.25169013526E+02 -0.16614256073E+02  0.33937134604E+02  0.47000000000E+01 0. -1.
        -11    1    6    6    0    0  0.41133807105E+02 -0.47913444946E+02  0.48009210748E+02  0.79325737376E+02  0.00000000000E+00 0.  1.
         12    1    6    6    0    0  0.93343079913E+02  0.39971952474E+02  0.57634286315E+02  0.11675786274E+03  0.00000000000E+00 0. -1.
         -5    1    3    3    0  503 -0.18289229989E+02  0.75055222754E+02  0.31104004165E+02  0.83410619655E+02  0.47000000000E+01 0.  1.
         13    1    4    4    0    0 -0.56258185244E+01 -0.37046266352E+02  0.10120705474E+02  0.38813713607E+02  0.00000000000E+00 0. -1.
        -14    1    4    4    0    0 -0.95725182601E+02 -0.48984504034E+01  0.26310815643E+02  0.99395998009E+02  0.00000000000E+00 0.  1.
</event>
<event>
12    1  0.8356052E-002  0.2430834E+03  0.7818608E-02  0.1119047E+00
         21   -1    0    0  501  502  0.00000000000E+00  0.00000000000E+00  0.33528822810E+03  0.33528822810E+03  0.00000000000E+00 0.  1.
         21   -1    0    0  502  503 -0.00000000000E+00 -0.00000000000E+00 -0.17209507066E+03  0.17209507066E+03  0.00000000000E+00 0. -1.
         -6    2    1    2    0  503 -0.10374136818E+03 -0.12341059823E+03  0.59754335079E+02  0.25032000322E+03  0.18192601855E+03 0.  0.
        -24    2    3    3    0    0 -0.49738610955E+02 -0.14760653355E+03  0.69143832087E+02  0.19022013859E+03  0.84505700664E+02 0.  0.
          6    2    1    2  501    0  0.10374136818E+03  0.12341059823E+03  0.10343882236E+03  0.25706329554E+03  0.17143366273E+03 0.  0.
         24    2    5    5    0    0  0.11590887029E+03  0.33836811752E+02  0.70073644511E+02  0.16059134924E+03  0.79369199029E+02 0.  0.
          5    1    5    5  501    0 -0.12167502101E+02  0.89573786477E+02  0.33365177849E+02  0.96471946306E+02  0.47000000000E+01 0. -1.
        -11    1    6    6    0    0 -0.54413991530E+01  0.39151803981E+01  0.27883119402E+02  0.28677618623E+02  0.00000000000E+00 0.  1.
         12    1    6    6    0    0  0.12135026944E+03  0.29921631354E+02  0.42190525108E+02  0.13191373061E+03  0.00000000000E+00 0. -1.
         -5    1    3    3    0  503 -0.54002757229E+02  0.24195935319E+02 -0.93894970080E+01  0.60099864629E+02  0.47000000000E+01 0.  1.
         11    1    4    4    0    0  0.64903279662E+01 -0.22716160260E+02 -0.16378866699E+02  0.28747444555E+02  0.00000000000E+00 0. -1.
        -12    1    4    4    0    0 -0.56228938921E+02 -0.12489037329E+03  0.85522698786E+02  0.16147269404E+03  0.00000000000E+00 0.  1.
</event>
<event>
12    1  0.8356052E-002  0.2015069E+03  0.7818608E-02  0.1148948E+00
         21   -1    0    0  503  502  0.00000000000E+00  0.00000000000E+00  0.22073127460E+04  0.22073127460E+04  0.00000000000E+00 0.  1.
         21   -1    0    0  501  503 -0.00000000000E+00 -0.00000000000E+00 -0.97326599480E+02  0.97326599480E+02  0.00000000000E+00 0.  1.
          6    2    1    2  501    0 -0.45623632802E+02 -0.89082663654E+02  0.17035428099E+02  0.20222575380E+03  0.17489371874E+03 0.  0.
         24    2    3    3    0    0 -0.58263137007E+02 -0.29131695138E+02  0.65589609959E+02  0.12390925318E+03  0.82512164518E+02 0.  0.
         -6    2    1    2    0  502  0.45623632802E+02  0.89082663654E+02  0.20929507184E+04  0.21024135917E+04  0.17228744565E+03 0.  0.
        -24    2    5    5    0    0  0.77569138083E+02  0.56084734515E+02  0.86807650102E+03  0.87666960655E+03  0.76356524282E+02 0.  0.
          5    1    3    3  501    0  0.12639504204E+02 -0.59950968516E+02 -0.48554181861E+02  0.78316500616E+02  0.47000000000E+01 0. -1.
        -13    1    4    4    0    0 -0.49289309613E+02 -0.11278418949E+02 -0.47506748118E+01  0.50785900477E+02  0.00000000000E+00 0.  1.
         14    1    4    4    0    0 -0.89738273940E+01 -0.17853276189E+02  0.70340284771E+02  0.73123352703E+02  0.00000000000E+00 0. -1.
         -5    1    5    5    0  502 -0.31945505281E+02  0.32997929139E+02  0.12248742174E+04  0.12257439852E+04  0.47000000000E+01 0.  1.
         11    1    6    6    0    0  0.62167625953E+01  0.43138061510E+02  0.47210592867E+03  0.47411343408E+03  0.00000000000E+00 0. -1.
        -12    1    6    6    0    0  0.71352375488E+02  0.12946673006E+02  0.39597057235E+03  0.40255617247E+03  0.00000000000E+00 0.  1.
</event>
<event>
12    1  0.8356052E-002  0.2022672E+03  0.7818608E-02  0.1148178E+00
         21   -1    0    0  503  502  0.00000000000E+00  0.00000000000E+00  0.61903712160E+02  0.61903712160E+02  0.00000000000E+00 0. -1.
         21   -1    0    0  501  503 -0.00000000000E+00 -0.00000000000E+00 -0.10800467535E+04  0.10800467535E+04  0.00000000000E+00 0. -1.
          6    2    1    2  501    0  0.67827165783E+02 -0.80256568520E+02 -0.86823667999E+03  0.89148580492E+03  0.17283045648E+03 0.  0.
         24    2    3    3    0    0 -0.28885038669E+02 -0.47546451769E+02 -0.33877717118E+03  0.35225240119E+03  0.78846508472E+02 0.  0.
         -6    2    1    2    0  502 -0.67827165783E+02  0.80256568520E+02 -0.14990636138E+03  0.25046466076E+03  0.17093562502E+03 0.  0.
        -24    2    5    5    0    0 -0.18675962146E+02  0.10718319060E+03 -0.13719304118E+03  0.19280529634E+03  0.80715078135E+02 0.  0.
          5    1    3    3  501    0  0.96712204452E+02 -0.32710116751E+02 -0.52945950881E+03  0.53923340373E+03  0.47000000000E+01 0. -1.
        -11    1    4    4    0    0  0.76526168986E+01 -0.20392527580E+02 -0.17986223885E+02  0.28247512742E+02  0.00000000000E+00 0.  1.
         12    1    4    4    0    0 -0.36537655568E+02 -0.27153924189E+02 -0.32079094729E+03  0.32400488845E+03  0.00000000000E+00 0. -1.
         -5    1    5    5    0  502 -0.49151203637E+02 -0.26926622081E+02 -0.12713320196E+02  0.57659364426E+02  0.47000000000E+01 0.  1.
         11    1    6    6    0    0 -0.23477664975E+02  0.19278288301E+02 -0.70313857073E+00  0.30386634502E+02  0.00000000000E+00 0. -1.
        -12    1    6    6    0    0  0.48017028292E+01  0.87904902300E+02 -0.13648990261E+03  0.16241866184E+03  0.00000000000E+00 0.  1.
</event>
<event>
12    1  0.8356052E-002  0.1797867E+03  0.7818608E-02  0.1168118E+00
         21   -1    0    0  503  502  0.00000000000E+00  0.00000000000E+00  0.94249009704E+03  0.94249009704E+03  0.00000000000E+00 0. -1.
         21   -1    0    0  501  503 -0.00000000000E+00 -0.00000000000E+00 -0.39632424824E+02  0.39632424824E+02  0.00000000000E+00 0.  1.
          6    2    1    2  501    0  0.48257947425E+02 -0.14954809322E+02  0.26930706598E+03  0.32355617867E+03  0.17207506838E+03 0.  0.
         24    2    3    3    0    0  0.60100247205E+02 -0.20057473043E+02  0.28366744184E+03  0.30369194862E+03  0.88018408060E+02 0.  0.
         -6    2    1    2    0  502 -0.48257947425E+02  0.14954809322E+02  0.63355060623E+03  0.65856634319E+03  0.17254211634E+03 0.  0.
        -24    2    5    5    0    0 -0.67221257291E+02 -0.40418456156E+02  0.50830813633E+03  0.52024218796E+03  0.78245917795E+02 0.  0.
          5    1    3    3  501    0 -0.11842299780E+02  0.51026637208E+01 -0.14360375854E+02  0.19864230058E+02  0.47000000000E+01 0. -1.
        -11    1    4    4    0    0  0.13797560920E+02 -0.28783909720E+02  0.24399633398E+02  0.40177459552E+02  0.00000000000E+00 0.  1.
         12    1    4    4    0    0  0.46302686284E+02  0.87264366770E+01  0.25926780844E+03  0.26351448907E+03  0.00000000000E+00 0. -1.
         -5    1    5    5    0  502  0.18963309866E+02  0.55373265478E+02  0.12524246991E+03  0.13832415523E+03  0.47000000000E+01 0.  1.
         11    1    6    6    0    0  0.83468233391E+01  0.12730518377E+02  0.12663626669E+03  0.12754795020E+03  0.00000000000E+00 0. -1.
        -12    1    6    6    0    0 -0.75568080630E+02 -0.53148974533E+02  0.38167186963E+03  0.39269423776E+03  0.00000000000E+00 0.  1.
</event>
<event>
12    1  0.8356052E-002  0.1922634E+03  0.7818608E-02  0.1157115E+00
         21   -1    0    0  503  502  0.00000000000E+00  0.00000000000E+00  0.13388679530E+03  0.13388679530E+03  0.00000000000E+00 0.  1.
         21   -1    0    0  501  503 -0.00000000000E+00 -0.00000000000E+00 -0.44947605806E+03  0.44947605806E+03  0.00000000000E+00 0.  1.
          6    2    1    2  501    0 -0.66690886442E+02  0.46391028038E+02 -0.34196018367E+03  0.39230341390E+03  0.17425670582E+03 0.  0.
         24    2    3    3    0    0 -0.11431168846E+03  0.36708974469E+02 -0.25865472966E+03  0.29574580615E+03  0.78413020332E+02 0.  0.
         -6    2    1    2    0  502  0.66690886442E+02 -0.46391028038E+02  0.26370920911E+02  0.19105943946E+03  0.17090489203E+03 0.  0.
        -24    2    5    5    0    0  0.40100290833E+02 -0.79729884203E+02 -0.30309509260E+02  0.11997287062E+03  0.74228940264E+02 0.  0.
          5    1    3    3  501    0  0.47620802014E+02  0.96820535685E+01 -0.83305454011E+02  0.96557607746E+02  0.47000000000E+01 0. -1.
        -11    1    4    4    0    0 -0.80494892430E+02  0.60188576636E+02 -0.20299706233E+03  0.22651688630E+03  0.00000000000E+00 0.  1.
         12    1    4    4    0    0 -0.33816796026E+02 -0.23479602166E+02 -0.55657667329E+02  0.69228919851E+02  0.00000000000E+00 0. -1.
         -5    1    5    5    0  502  0.26590595609E+02  0.33338856165E+02  0.56680430171E+02  0.71086568841E+02  0.47000000000E+01 0.  1.
         11    1    6    6    0    0  0.55924181512E+02 -0.30151105352E+02 -0.11091780134E+02  0.64495199963E+02  0.00000000000E+00 0. -1.
        -12    1    6    6    0    0 -0.15823890678E+02 -0.49578778851E+02 -0.19217729126E+02  0.55477670655E+02  0.00000000000E+00 0.  1.
</event>
<event>
12    1  0.8356052E-002  0.1991015E+03  0.7818608E-02  0.1151080E+00
         21   -1    0    0  501  502  0.00000000000E+00  0.00000000000E+00  0.13601585756E+03  0.13601585756E+03  0.00000000000E+00 0. -1.
         21   -1    0    0  502  503 -0.00000000000E+00 -0.00000000000E+00 -0.43319376898E+03  0.43319376898E+03  0.00000000000E+00 0. -1.
         -6    2    1    2    0  503 -0.31204796306E+02  0.92547687625E+02 -0.31297121208E+03  0.36948268987E+03  0.17037507073E+03 0.  0.
        -24    2    3    3    0    0  0.33485807241E+02  0.97611207194E+02 -0.22432448403E+03  0.25952430769E+03  0.79888328870E+02 0.  0.
          6    2    1    2  501    0  0.31204796306E+02 -0.92547687625E+02  0.15793300657E+02  0.19972693668E+03  0.17350102908E+03 0.  0.
         24    2    5    5    0    0 -0.12354717480E+02 -0.89381888806E+02  0.62815280361E+02  0.13537936408E+03  0.78993997755E+02 0.  0.
          5    1    5    5  501    0  0.43559513787E+02 -0.31657988189E+01 -0.47021979705E+02  0.64347572595E+02  0.47000000000E+01 0. -1.
        -11    1    6    6    0    0 -0.14615348781E+02 -0.13206968026E+02 -0.16271759431E+02  0.25550001555E+02  0.00000000000E+00 0.  1.
         12    1    6    6    0    0  0.22606313009E+01 -0.76174920779E+02  0.79087039793E+02  0.10982936253E+03  0.00000000000E+00 0. -1.
         -5    1    3    3    0  503 -0.64690603547E+02 -0.50635195696E+01 -0.88646728047E+02  0.10995838218E+03  0.47000000000E+01 0.  1.
         13    1    4    4    0    0  0.15842426645E+01  0.38555384372E+02 -0.16655228740E+03  0.17096400770E+03  0.00000000000E+00 0. -1.
        -14    1    4    4    0    0  0.31901564577E+02  0.59055822822E+02 -0.57772196631E+02  0.88560299995E+02  0.00000000000E+00 0.  1.
</event>
<event>
12    1  0.8356052E-002  0.2202158E+03  0.7818608E-02  0.1134125E+00
         21   -1    0    0  503  502  0.00000000000E+00  0.00000000000E+00  0.17972666424E+04  0.17972666424E+04  0.00000000000E+00 0. -1.
         21   -1    0    0  501  503 -0.00000000000E+00 -0.00000000000E+00 -0.85575721380E+02  0.85575721380E+02  0.00000000000E+00 0.  1.
          6    2    1    2  501    0  0.13697958814E+03 -0.15074523098E+02  0.76424186689E+02  0.23310012701E+03  0.17176834425E+03 0.  0.
         24    2    3    3    0    0  0.91079077038E+02  0.50408313024E+02  0.15250505031E+02  0.13230742849E+03  0.80226438499E+02 0.  0.
         -6    2    1    2    0  502 -0.13697958814E+03  0.15074523098E+02  0.16352667343E+04  0.16497422367E+04  0.16900149872E+03 0.  0.
        -24    2    5    5    0    0 -0.15956841837E+03  0.19583903937E+02  0.11486214257E+04  0.11625294124E+04  0.79358968058E+02 0.  0.
          5    1    3    3  501    0  0.45900511106E+02 -0.65482836122E+02  0.61173681658E+02  0.10079269852E+03  0.47000000000E+01 0. -1.
        -11    1    4    4    0    0  0.94726443862E+01  0.17076907729E+02 -0.27984589447E+02  0.34124610119E+02  0.00000000000E+00 0.  1.
         12    1    4    4    0    0  0.81606432652E+02  0.33331405295E+02  0.43235094478E+02  0.98182818372E+02  0.00000000000E+00 0. -1.
         -5    1    5    5    0  502  0.22588830230E+02 -0.45093808386E+01  0.48664530863E+03  0.48721282432E+03  0.47000000000E+01 0.  1.
         11    1    6    6    0    0 -0.15341987184E+03 -0.46234477170E+01  0.10228267035E+04  0.10342792170E+04  0.00000000000E+00 0. -1.
        -12    1    6    6    0    0 -0.61485465316E+01  0.24207351654E+02  0.12579472217E+03  0.12825019542E+03  0.00000000000E+00 0.  1.
</event>
<event>
12    1  0.8356052E-002  0.1981705E+03  0.7818608E-02  0.1151362E+00
         21   -1    0    0  503  502  0.00000000000E+00  0.00000000000E+00  0.15092892325E+03  0.15092892325E+03  0.00000000000E+00 0.  1.
         21   -1    0    0  501  503 -0.00000000000E+00 -0.00000000000E+00 -0.74635807260E+03  0.74635807260E+03  0.00000000000E+00 0.  1.
          6    2    1    2  501    0  0.61602723139E+02  0.75677756660E+02 -0.65987996195E+03  0.68889927455E+03  0.17210063316E+03 0.  0.
         24    2    3    3    0    0 -0.19990620036E+02  0.58691674832E+02 -0.48244976721E+03  0.49281366917E+03  0.79140363050E+02 0.  0.
         -6    2    1    2    0  502 -0.61602723139E+02 -0.75677756660E+02  0.64450812608E+02  0.20838772130E+03  0.17248048235E+03 0.  0.
        -24    2    5    5    0    0 -0.21680293255E+02  0.23784752321E+02  0.50482777320E+02  0.10020367853E+03  0.80352453767E+02 0.  0.
          5    1    3    3  501    0  0.81593343175E+02  0.16986081828E+02 -0.17743019474E+03  0.19608560537E+03  0.47000000000E+01 0. -1.
        -11    1    4    4    0    0  0.15640389433E+02  0.60794821025E+02 -0.35275799037E+03  0.35829991881E+03  0.00000000000E+00 0.  1.
         12    1    4    4    0    0 -0.35631009470E+02 -0.21031461927E+01 -0.12969177683E+03  0.13451375037E+03  0.00000000000E+00 0. -1.
         -5    1    5    5    0  502 -0.39922429883E+02 -0.99462508982E+02  0.13968035288E+02  0.10818404277E+03  0.47000000000E+01 0.  1.
         13    1    6    6    0    0 -0.19602760325E+02  0.16084717218E+02 -0.18102757543E+02  0.31155997352E+02  0.00000000000E+00 0. -1.
        -14    1    6    6    0    0 -0.20775329307E+01  0.77000351028E+01  0.68585534863E+02  0.69047681178E+02  0.00000000000E+00 0.  1.
</event>
<event>
12    1  0.8356052E-002  0.2427352E+03  0.7818608E-02  0.1118749E+00
         21   -1    0    0  503  502  0.00000000000E+00  0.00000000000E+00  0.26472988165E+04  0.26472988165E+04  0.00000000000E+00 0. -1.
         21   -1    0    0  501  503 -0.00000000000E+00 -0.00000000000E+00 -0.21876021994E+02  0.21876021994E+02  0.00000000000E+00 0.  1.
          6    2    1    2  501    0 -0.45538711822E+02  0.16544177754E+03  0.12430724809E+04  0.12656746491E+04  0.16510108617E+03 0.  0.
         24    2    3    3    0    0 -0.86770841630E+01  0.13032709258E+03  0.56192549869E+03  0.58261160514E+03  0.81336175940E+02 0.  0.
         -6    2    1    2    0  502  0.45538711822E+02 -0.16544177754E+03  0.13823503137E+04  0.14035001894E+04  0.17168469933E+03 0.  0.
        -24    2    5    5    0    0  0.65593617244E+02 -0.11416649641E+03  0.12570752238E+04  0.12665794393E+04  0.81540456932E+02 0.  0.
          5    1    3    3  501    0 -0.36861627659E+02  0.35114684959E+02  0.68114698217E+03  0.68306304395E+03  0.47000000000E+01 0. -1.
        -11    1    4    4    0    0  0.34934190505E+02  0.47130770459E+02  0.25345478707E+03  0.26015579233E+03  0.00000000000E+00 0.  1.
         12    1    4    4    0    0 -0.43611274668E+02  0.83196322122E+02  0.30847071162E+03  0.32245581282E+03  0.00000000000E+00 0. -1.
         -5    1    5    5    0  502 -0.20054905421E+02 -0.51275281128E+02  0.12527508987E+03  0.13692075017E+03  0.47000000000E+01 0.  1.
         11    1    6    6    0    0  0.71519230847E+02 -0.49687603410E+02  0.59392732652E+03  0.60027787524E+03  0.00000000000E+00 0. -1.
        -12    1    6    6    0    0 -0.59256136030E+01 -0.64478893003E+02  0.66314789730E+03  0.66630156403E+03  0.00000000000E+00 0.  1.
</event>
<event>
12    1  0.8356052E-002  0.2233226E+03  0.7818608E-02  0.1131726E+00
         21   -1    0    0  501  502  0.00000000000E+00  0.00000000000E+00  0.61205675663E+02  0.61205675663E+02  0.00000000000E+00 0.  1.
         21   -1    0    0  502  503 -0.00000000000E+00 -0.00000000000E+00 -0.16284847244E+04  0.16284847244E+04  0.00000000000E+00 0. -1.
         -6    2    1    2    0  503  0.13369106555E+03 -0.50050107789E+02 -0.13815548925E+04  0.13992313483E+04  0.16963528762E+03 0.  0.
        -24    2    3    3    0    0  0.13126148256E+03 -0.76144721314E+02 -0.13318265358E+04  0.13428236255E+04  0.79911028248E+02 0.  0.
          6    2    1    2  501    0 -0.13369106555E+03  0.50050107789E+02 -0.18572415627E+03  0.29045905178E+03  0.17174016491E+03 0.  0.
         24    2    5    5    0    0 -0.10886869284E+03  0.24837135036E+02 -0.43697475989E+02  0.14401618889E+03  0.79761630481E+02 0.  0.
          5    1    5    5  501    0 -0.24822372710E+02  0.25212972753E+02 -0.14202668028E+03  0.14644286289E+03  0.47000000000E+01 0. -1.
        -13    1    6    6    0    0 -0.87852148769E+02  0.21787197568E+01 -0.62503018152E+02  0.10783957595E+03  0.00000000000E+00 0.  1.
         14    1    6    6    0    0 -0.21016544070E+02  0.22658415279E+02  0.18805542163E+02  0.36176612938E+02  0.00000000000E+00 0. -1.
         -5    1    3    3    0  503  0.24295829857E+01  0.26094613526E+02 -0.49728356663E+02  0.56407722742E+02  0.47000000000E+01 0.  1.
         13    1    4    4    0    0  0.10236201150E+03 -0.30715394197E+02 -0.10817612165E+04  0.10870274819E+04  0.00000000000E+00 0. -1.
        -14    1    4    4    0    0  0.28899471058E+02 -0.45429327117E+02 -0.25006531927E+03  0.25579614362E+03  0.00000000000E+00 0.  1.
</event>
<event>
12    1  0.8356052E-002  0.1807006E+03  0.7818608E-02  0.1167646E+00
         21   -1    0    0  503  502  0.00000000000E+00  0.00000000000E+00  0.12378293342E+03  0.12378293342E+03  0.00000000000E+00 0.  1.
         21   -1    0    0  501  503 -0.00000000000E+00 -0.00000000000E+00 -0.26312271268E+03  0.26312271268E+03  0.00000000000E+00 0.  1.
          6    2    1    2  501    0  0.63952567170E+02  0.16053151869E+02 -0.51411717574E+02  0.18787196199E+03  0.16824112120E+03 0.  0.
         24    2    3    3    0    0  0.71984633052E+02  0.54008114224E+02 -0.78046710924E+02  0.14057919171E+03  0.74649556313E+02 0.  0.
         -6    2    1    2    0  502 -0.63952567170E+02 -0.16053151869E+02 -0.87928061690E+02  0.19903368412E+03  0.16593802713E+03 0.  0.
        -24    2    5    5    0    0 -0.59902443913E+02 -0.45909308808E+02 -0.47205254057E+01  0.11041439897E+03  0.80455507691E+02 0.  0.
          5    1    3    3  501    0 -0.80320658820E+01 -0.37954962355E+02  0.26634993349E+02  0.47292770277E+02  0.47000000000E+01 0. -1.
        -13    1    4    4    0    0  0.42840151310E+02  0.69366967520E+02 -0.41877702414E+02  0.91655860187E+02  0.00000000000E+00 0.  1.
         14    1    4    4    0    0  0.29144481742E+02 -0.15358853295E+02 -0.36169008510E+02  0.48923331522E+02  0.00000000000E+00 0. -1.
         -5    1    5    5    0  502 -0.40501232566E+01  0.29856156938E+02 -0.83207536284E+02  0.88619285147E+02  0.47000000000E+01 0.  1.
         11    1    6    6    0    0 -0.69071411351E+01  0.16436868699E+02 -0.20406600013E+02  0.27098128633E+02  0.00000000000E+00 0. -1.
        -12    1    6    6    0    0 -0.52995302778E+02 -0.62346177507E+02  0.15686074607E+02  0.83316270337E+02  0.00000000000E+00 0.  1.
</event>
<event>
12    1  0.8356052E-002  0.1840646E+03  0.7818608E-02  0.1163931E+00
         21   -1    0    0  503  502  0.00000000000E+00  0.00000000000E+00  0.20334794161E+03  0.20334794161E+03  0.00000000000E+00 0. -1.
         21   -1    0    0  501  503 -0.00000000000E+00 -0.00000000000E+00 -0.18022661245E+03  0.18022661245E+03  0.00000000000E+00 0.  1.
          6    2    1    2  501    0 -0.49809506324E+02 -0.42259972271E+02  0.64313960302E+02  0.19495692801E+03  0.17206111157E+03 0.  0.
         24    2    3    3    0    0 -0.62965582224E+02 -0.52114068956E+02  0.10347641202E+03  0.15222552061E+03  0.76057218929E+02 0.  0.
         -6    2    1    2    0  502  0.49809506324E+02  0.42259972271E+02 -0.41192631141E+02  0.18861762605E+03  0.17208394411E+03 0.  0.
        -24    2    5    5    0    0  0.35408923424E+02  0.77867335481E+02  0.20069813949E+02  0.11615771796E+03  0.75978314121E+02 0.  0.
          5    1    3    3  501    0  0.13156075900E+02  0.98540966853E+01 -0.39162451718E+02  0.42731407409E+02  0.47000000000E+01 0. -1.
        -11    1    4    4    0    0 -0.50576563339E+02 -0.29735796313E+01  0.83671644672E+02  0.97815004253E+02  0.00000000000E+00 0.  1.
         12    1    4    4    0    0 -0.12389018885E+02 -0.49140489325E+02  0.19804767348E+02  0.54410516353E+02  0.00000000000E+00 0. -1.
         -5    1    5    5    0  502  0.14400582900E+02 -0.35607363210E+02 -0.61262445090E+02  0.72459908094E+02  0.47000000000E+01 0.  1.
         13    1    6    6    0    0  0.33455135435E+02  0.72308569929E+02  0.44341677962E+02  0.91180917832E+02  0.00000000000E+00 0. -1.
        -14    1    6    6    0    0  0.19537879884E+01  0.55587655526E+01 -0.24271864013E+02  0.24976800128E+02  0.00000000000E+00 0.  1.
</event>
<event>
12    1  0.8356052E-002  0.2532108E+03  0.7818608E-02  0.1112020E+00
         21   -1    0    0  503  502  0.00000000000E+00  0.00000000000E+00  0.17428173415E+03  0.17428173415E+03  0.00000000000E+00 0. -1.
         21   -1    0    0  501  503 -0.00000000000E+00 -0.00000000000E+00 -0.19231085647E+04  0.19231085647E+04  0.00000000000E+00 0.  1.
          6    2    1    2  501    0 -0.11590318382E+03  0.13731225766E+03 -0.18179889246E+04  0.18349038775E+04  0.17175653022E+03 0.  0.
         24    2    3    3    0    0 -0.13953697487E+03  0.11997377585E+03 -0.17399703795E+04  0.17514283577E+04  0.78358767033E+02 0.  0.
         -6    2    1    2    0  502  0.11590318382E+03 -0.13731225766E+03  0.69162094000E+02  0.26248642137E+03  0.17840269626E+03 0.  0.
        -24    2    5    5    0    0  0.10547887638E+03 -0.47468278901E+02  0.93201914841E+02  0.16878151386E+03  0.80134709252E+02 0.  0.
          5    1    3    3  501    0  0.23633791048E+02  0.17338481808E+02 -0.78018545081E+02  0.83475519808E+02  0.47000000000E+01 0. -1.
        -11    1    4    4    0    0 -0.90746992071E+02  0.37076301682E+02 -0.66853920744E+03  0.67568804977E+03  0.00000000000E+00 0.  1.
         12    1    4    4    0    0 -0.48789982795E+02  0.82897474169E+02 -0.10714311721E+04  0.10757403079E+04  0.00000000000E+00 0. -1.
         -5    1    5    5    0  502  0.10424307435E+02 -0.89843978759E+02 -0.24039820841E+02  0.93704907506E+02  0.47000000000E+01 0.  1.
         13    1    6    6    0    0  0.39841937868E+02 -0.56344365680E+02  0.24182153578E+02  0.73122117780E+02  0.00000000000E+00 0. -1.
        -14    1    6    6    0    0  0.65636938515E+02  0.88760867791E+01  0.69019761262E+02  0.95659396082E+02  0.00000000000E+00 0.  1.
</event>
<event>
12    1  0.8356052E-002  0.1784164E+03  0.7818608E-02  0.1169425E+00
         21   -1    0    0  503  502  0.00000000000E+00  0.00000000000E+00  0.36524186559E+03  0.36524186559E+03  0.00000000000E+00 0.  1.
         21   -1    0    0  501  503 -0.00000000000E+00 -0.00000000000E+00 -0.96207044728E+02  0.96207044728E+02  0.00000000000E+00 0.  1.
          6    2    1    2  501    0 -0.18613782774E+02  0.47451625894E+02  0.63233325796E+02  0.18929044006E+03  0.17098037167E+03 0.  0.
         24    2    3    3    0    0 -0.48147176002E+02  0.81322764007E+02  0.24706205902E+02  0.12991111470E+03  0.85644372901E+02 0.  0.
         -6    2    1    2    0  502  0.18613782774E+02 -0.47451625894E+02  0.20580149506E+03  0.27215847026E+03  0.17063952606E+03 0.  0.
        -24    2    5    5    0    0  0.48988284996E+02 -0.21059404554E+02  0.70227149570E+02  0.13066058021E+03  0.96420869612E+02 0.  0.
          5    1    3    3  501    0  0.29533393228E+02 -0.33871138114E+02  0.38527119894E+02  0.59379325358E+02  0.47000000000E+01 0. -1.
        -13    1    4    4    0    0 -0.63401526752E+02  0.55522506755E+02  0.43188583229E+02  0.94698236901E+02  0.00000000000E+00 0.  1.
         14    1    4    4    0    0  0.15254350751E+02  0.25800257253E+02 -0.18482377327E+02  0.35212877798E+02  0.00000000000E+00 0. -1.
         -5    1    5    5    0  502 -0.30374502222E+02 -0.26392221340E+02  0.13557434549E+03  0.14149789005E+03  0.47000000000E+01 0.  1.
         13    1    6    6    0    0  0.52762285478E+02  0.28477567945E+02  0.44838252520E+02  0.74868548363E+02  0.00000000000E+00 0. -1.
        -14    1    6    6    0    0 -0.37740004825E+01 -0.49536972499E+02  0.25388897051E+02  0.55792031846E+02  0.00000000000E+00 0.  1.
</event>
<event>
12    1  0.8356052E-002  0.1749309E+03  0.7818608E-02  0.1173123E+00
         21   -1    0    0  501  502  0.00000000000E+00  0.00000000000E+00  0.63587016159E+03  0.63587016159E+03  0.00000000000E+00 0. -1.
         21   -1    0    0  502  503 -0.00000000000E+00 -0.00000000000E+00 -0.48138464301E+02  0.48138464301E+02  0.00000000000E+00 0. -1.
         -6    2    1    2    0  503 -0.10538017956E+02  0.16714821638E+02  0.32469764719E+03  0.36882162411E+03  0.17381137256E+03 0.  0.
        -24    2    3    3    0    0 -0.17402818674E+02  0.78184445926E+02  0.19605579745E+03  0.22600546359E+03  0.78898214033E+02 0.  0.
          6    2    1    2  501    0  0.10538017956E+02 -0.16714821638E+02  0.26303405010E+03  0.31518700179E+03  0.17252680805E+03 0.  0.
         24    2    5    5    0    0  0.14556923818E+02 -0.43794971513E+02  0.26407375471E+03  0.28739029142E+03  0.10357764292E+03 0.  0.
          5    1    5    5  501    0 -0.40189058618E+01  0.27080149875E+02 -0.10397046099E+01  0.27796710368E+02  0.47000000000E+01 0. -1.
        -13    1    6    6    0    0  0.45571028478E+02  0.21851845177E+01  0.18668877012E+03  0.19218270098E+03  0.00000000000E+00 0.  1.
         14    1    6    6    0    0 -0.31014104661E+02 -0.45980156031E+02  0.77384984590E+02  0.95207590435E+02  0.00000000000E+00 0. -1.
         -5    1    3    3    0  503  0.68648007181E+01 -0.61469624288E+02  0.12864184974E+03  0.14281616052E+03  0.47000000000E+01 0.  1.
         13    1    4    4    0    0  0.23909265486E+02  0.39244637233E+02  0.43696085339E+02  0.63412478279E+02  0.00000000000E+00 0. -1.
        -14    1    4    4    0    0 -0.41312084160E+02  0.38939808693E+02  0.15235971211E+03  0.16259298531E+03  0.00000000000E+00 0.  1.
</event>
<event>
12    1  0.8356052E-002  0.2187549E+03  0.7818608E-02  0.1134901E+00
         21   -1    0    0  501  502  0.00000000000E+00  0.00000000000E+00  0.93659390372E+03  0.93659390372E+03  0.00000000000E+00 0.  1.
         21   -1    0    0  502  503 -0.00000000000E+00 -0.00000000000E+00 -0.65538297270E+02  0.65538297270E+02  0.00000000000E+00 0.  1.
         -6    2    1    2    0  503  0.12054619548E+03  0.60268711510E+02  0.19977839040E+03  0.29625175293E+03  0.17230784373E+03 0.  0.
        -24    2    3    3    0    0  0.54142397952E+02  0.10271416545E+03  0.11618186642E+03  0.18126675518E+03  0.76666886001E+02 0.  0.
          6    2    1    2  501    0 -0.12054619548E+03 -0.60268711510E+02  0.67127721606E+03  0.70588044806E+03  0.17172770111E+03 0.  0.
         24    2    5    5    0    0 -0.10095615956E+03 -0.67646884379E+02  0.66865824999E+03  0.68426665789E+03  0.79679085696E+02 0.  0.
          5    1    5    5  501    0 -0.19590035928E+02  0.73781728685E+01  0.26189660664E+01  0.21613790176E+02  0.47000000000E+01 0. -1.
        -13    1    6    6    0    0 -0.49730770867E+02 -0.23797403006E+01  0.12912122459E+03  0.13838751162E+03  0.00000000000E+00 0.  1.
         14    1    6    6    0    0 -0.51225388688E+02 -0.65267144078E+02  0.53953702540E+03  0.54587914626E+03  0.00000000000E+00 0. -1.
         -5    1    3    3    0  503  0.66403797531E+02 -0.42445453938E+02  0.83596523975E+02  0.11498499775E+03  0.47000000000E+01 0.  1.
         11    1    4    4    0    0 -0.30909477857E+01  0.53800341286E+02  0.16520772057E+02  0.56364586312E+02  0.00000000000E+00 0. -1.
        -12    1    4    4    0    0  0.57233345738E+02  0.48913824162E+02  0.99661094365E+02  0.12490216887E+03  0.00000000000E+00 0.  1.
</event>
<event>
12    1  0.8356052E-002  0.2525437E+03  0.7818608E-02  0.1111813E+00
         21   -1    0    0  503  502  0.00000000000E+00  0.00000000000E+00  0.67415819484E+03  0.67415819484E+03  0.00000000000E+00 0. -1.
         21   -1    0    0  501  503 -0.00000000000E+00 -0.00000000000E+00 -0.12747049526E+03  0.12747049526E+03  0.00000000000E+00 0.  1.
          6    2    1    2  501    0 -0.93752080976E+02 -0.15870598858E+03  0.69312287367E+02  0.26188264369E+03  0.17263047932E+03 0.  0.
         24    2    3    3    0    0 -0.94448667855E+01 -0.14659424839E+03  0.56697413442E+02  0.17565256971E+03  0.77846961305E+02 0.  0.
         -6    2    1    2    0  502  0.93752080976E+02  0.15870598858E+03  0.47737541221E+03  0.53974604640E+03  0.17164342961E+03 0.  0.
        -24    2    5    5    0    0  0.12188628812E+03  0.86616967788E+02  0.37235787148E+03  0.40921201103E+03  0.80282745213E+02 0.  0.
          5    1    3    3  501    0 -0.84307214190E+02 -0.12111740185E+02  0.12614873925E+02  0.86230073982E+02  0.47000000000E+01 0. -1.
        -11    1    4    4    0    0 -0.24127573493E+02 -0.89161580630E+02 -0.17774221191E+01  0.92385531835E+02  0.00000000000E+00 0.  1.
         12    1    4    4    0    0  0.14682706708E+02 -0.57432667764E+02  0.58474835561E+02  0.83267037876E+02  0.00000000000E+00 0. -1.
         -5    1    5    5    0  502 -0.28134207143E+02  0.72089020792E+02  0.10501754073E+03  0.13053403537E+03  0.47000000000E+01 0.  1.
         11    1    6    6    0    0  0.45468924093E+02  0.60462375497E+02  0.10164975890E+03  0.12671146512E+03  0.00000000000E+00 0. -1.
        -12    1    6    6    0    0  0.76417364025E+02  0.26154592291E+02  0.27070811258E+03  0.28250054591E+03  0.00000000000E+00 0.  1.
</event>
<event>
12    1  0.8356052E-002  0.3222429E+03  0.7818608E-02  0.1074687E+00
         21   -1    0    0  501  502  0.00000000000E+00  0.00000000000E+00  0.13288388407E+03  0.13288388407E+03  0.00000000000E+00 0. -1.
         21   -1    0    0  502  503 -0.00000000000E+00 -0.00000000000E+00 -0.78712167523E+03  0.78712167523E+03  0.00000000000E+00 0.  1.
         -6    2    1    2    0  503  0.24456647794E+03  0.11965477621E+03 -0.28323493198E+03  0.42859573756E+03  0.17129580251E+03 0.  0.
        -24    2    3    3    0    0  0.17444546241E+03  0.13327963401E+03 -0.26842830059E+03  0.35549361788E+03  0.78276941656E+02 0.  0.
          6    2    1    2  501    0 -0.24456647794E+03 -0.11965477621E+03 -0.37100285919E+03  0.49140982174E+03  0.17236723521E+03 0.  0.
         24    2    5    5    0    0 -0.81868082810E+02 -0.66969262036E+02 -0.24676023039E+03  0.27997460236E+03  0.79422299288E+02 0.  0.
          5    1    5    5  501    0 -0.16269839513E+03 -0.52685514178E+02 -0.12424262879E+03  0.21143521937E+03  0.47000000000E+01 0. -1.
        -13    1    6    6    0    0 -0.86514690162E+02 -0.79517917077E+02 -0.20705208757E+03  0.23807237915E+03  0.00000000000E+00 0.  1.
         14    1    6    6    0    0  0.46466073518E+01  0.12548655041E+02 -0.39708142827E+02  0.41902223210E+02  0.00000000000E+00 0. -1.
         -5    1    3    3    0  503  0.70121015530E+02 -0.13624857794E+02 -0.14806631383E+02  0.73102119681E+02  0.47000000000E+01 0.  1.
         11    1    4    4    0    0  0.64739316296E+02  0.42452132164E+02 -0.42216131226E+02  0.88179160437E+02  0.00000000000E+00 0. -1.
        -12    1    4    4    0    0  0.10970614612E+03  0.90827501845E+02 -0.22621216937E+03  0.26731445744E+03  0.00000000000E+00 0.  1.
</event>
<event>
12    1  0.8356052E-002  0.1891386E+03  0.7818608E-02  0.1159804E+00
         21   -1    0    0  503  502  0.00000000000E+00  0.00000000000E+00  0.15195151740E+03  0.15195151740E+03  0.00000000000E+00 0. -1.
         21   -1    0    0  501  503 -0.00000000000E+00 -0.00000000000E+00 -0.49440289223E+03  0.49440289223E+03  0.00000000000E+00 0.  1.
          6    2    1    2  501    0 -0.10659968757E+02  0.73674030252E+02 -0.40703084151E+03  0.44882903592E+03  0.17387322933E+03 0.  0.
         24    2    3    3    0    0 -0.67734696451E+02  0.72222633278E+02 -0.22993690323E+03  0.26270009118E+03  0.79600631772E+02 0.  0.
         -6    2    1    2    0  502  0.10659968757E+02 -0.73674030252E+02  0.64579466674E+02  0.19752537372E+03  0.17118489443E+03 0.  0.
        -24    2    5    5    0    0 -0.33530112530E+02 -0.42284385403E+02 -0.18710186054E+02  0.98040051490E+02  0.79684019345E+02 0.  0.
          5    1    3    3  501    0  0.57074727694E+02  0.14513969733E+01 -0.17709393827E+03  0.18612894473E+03  0.47000000000E+01 0. -1.
        -11    1    4    4    0    0  0.17138120520E+01 -0.23911406391E+01 -0.87487246497E+02  0.87536695190E+02  0.00000000000E+00 0.  1.
         12    1    4    4    0    0 -0.69448508503E+02  0.74613773918E+02 -0.14244965674E+03  0.17516339599E+03  0.00000000000E+00 0. -1.
         -5    1    5    5    0  502  0.44190081287E+02 -0.31389644849E+02  0.83289652728E+02  0.99485322231E+02  0.47000000000E+01 0.  1.
         11    1    6    6    0    0 -0.26734239082E+01  0.22935569500E+02  0.14168289519E+01  0.23134280796E+02  0.00000000000E+00 0. -1.
        -12    1    6    6    0    0 -0.30856688622E+02 -0.65219954903E+02 -0.20127015006E+02  0.74905770694E+02  0.00000000000E+00 0.  1.
</event>
<event>
12    1  0.8356052E-002  0.1834061E+03  0.7818608E-02  0.1164686E+00
         21   -1    0    0  501  502  0.00000000000E+00  0.00000000000E+00  0.55640267571E+03  0.55640267571E+03  0.00000000000E+00 0. -1.
         21   -1    0    0  502  503 -0.00000000000E+00 -0.00000000000E+00 -0.68015974464E+02  0.68015974464E+02  0.00000000000E+00 0.  1.
         -6    2    1    2    0  503 -0.43562288065E+02  0.43186202304E+02  0.34995827058E+03  0.39510578450E+03  0.17284405916E+03 0.  0.
        -24    2    3    3    0    0 -0.89510856170E+02  0.28343867374E+02  0.30609768541E+03  0.32970389807E+03  0.78697517119E+02 0.  0.
          6    2    1    2  501    0  0.43562288065E+02 -0.43186202304E+02  0.13842843067E+03  0.22931286567E+03  0.17221857895E+03 0.  0.
         24    2    5    5    0    0  0.25573511522E+02 -0.89365405829E+02  0.12982089804E+03  0.17879262678E+03  0.80455935598E+02 0.  0.
          5    1    5    5  501    0  0.17988776543E+02  0.46179203526E+02  0.86075326284E+01  0.50520238892E+02  0.47000000000E+01 0. -1.
        -11    1    6    6    0    0 -0.23459694985E+02 -0.60860098281E+02  0.58046589502E+02  0.87313890100E+02  0.00000000000E+00 0.  1.
         12    1    6    6    0    0  0.49033206507E+02 -0.28505307548E+02  0.71774308538E+02  0.91478736682E+02  0.00000000000E+00 0. -1.
         -5    1    3    3    0  503  0.45948568105E+02  0.14842334930E+02  0.43860585168E+02  0.65401886428E+02  0.47000000000E+01 0.  1.
         13    1    4    4    0    0 -0.96320682670E+02  0.43618194469E+02  0.26745666847E+03  0.28759918343E+03  0.00000000000E+00 0. -1.
        -14    1    4    4    0    0  0.68098265004E+01 -0.15274327096E+02  0.38641016941E+02  0.42104714646E+02  0.00000000000E+00 0.  1.
</event>
<event>
12    1  0.8356052E-002  0.1799613E+03  0.7818608E-02  0.1168199E+00
         21   -1    0    0  503  502  0.00000000000E+00  0.00000000000E+00  0.15345733070E+03  0.15345733070E+03  0.00000000000E+00 0.  1.
         21   -1    0    0  501  503 -0.00000000000E+00 -0.00000000000E+00 -0.26858071828E+03  0.26858071828E+03  0.00000000000E+00 0.  1.
          6    2    1    2  501    0 -0.52442510067E+02 -0.98099524884E+01 -0.15650127445E+03  0.23738109666E+03  0.17032523041E+03 0.  0.
         24    2    3    3    0    0 -0.45541132009E+02 -0.37889055949E+02 -0.23222903647E+02  0.10092128868E+03  0.78334079359E+02 0.  0.
         -6    2    1    2    0  502  0.52442510067E+02  0.98099524884E+01  0.41377886873E+02  0.18465695233E+03  0.17187090647E+03 0.  0.
        -24    2    5    5    0    0 -0.14935008132E+02  0.36184192394E+02 -0.18752085911E+02  0.90460168326E+02  0.79366561475E+02 0.  0.
          5    1    3    3  501    0 -0.69013780571E+01  0.28079103461E+02 -0.13327837080E+03  0.13645980798E+03  0.47000000000E+01 0. -1.
        -13    1    4    4    0    0  0.14597078133E+02 -0.34983902845E+02 -0.11167891433E+02  0.39517969930E+02  0.00000000000E+00 0.  1.
         14    1    4    4    0    0 -0.60138210143E+02 -0.29051531041E+01 -0.12055012214E+02  0.61403318747E+02  0.00000000000E+00 0. -1.
         -5    1    5    5    0  502  0.67377518198E+02 -0.26374239905E+02  0.60129972784E+02  0.94196784001E+02  0.47000000000E+01 0.  1.
         11    1    6    6    0    0  0.22612464942E+02 -0.13304732081E+02 -0.78914527076E+01  0.27397344622E+02  0.00000000000E+00 0. -1.
        -12    1    6    6    0    0 -0.37547473074E+02  0.49488924475E+02 -0.10860633204E+02  0.63062823704E+02  0.00000000000E+00 0.  1.
</event>
<event>
12    1  0.8356052E-002  0.1727112E+03  0.7818608E-02  0.1175337E+00
         21   -1    0    0  501  502  0.00000000000E+00  0.00000000000E+00  0.96120833713E+02  0.96120833713E+02  0.00000000000E+00 0.  1.
         21   -1    0    0  502  503 -0.00000000000E+00 -0.00000000000E+00 -0.56928957076E+03  0.56928957076E+03  0.00000000000E+00 0.  1.
         -6    2    1    2    0  503  0.14428783731E+02 -0.84250287417E+00 -0.46142985325E+03  0.49230077112E+03  0.17097847866E+03 0.  0.
        -24    2    3    3    0    0  0.32334085834E+01  0.65349710567E+02 -0.26705363118E+03  0.28660451143E+03  0.80891683403E+02 0.  0.
          6    2    1    2  501    0 -0.14428783731E+02  0.84250287417E+00 -0.11738883800E+02  0.17310963335E+03  0.17210532867E+03 0.  0.
         24    2    5    5    0    0  0.16041346418E+02 -0.37333970462E+01  0.61106107036E+02  0.93876746361E+02  0.69337032975E+02 0.  0.
          5    1    5    5  501    0 -0.30470130150E+02  0.45758999204E+01 -0.72844990836E+02  0.79232886994E+02  0.47000000000E+01 0. -1.
        -13    1    6    6    0    0 -0.82700368630E+01 -0.25105918161E+02  0.54878943763E+02  0.60913045442E+02  0.00000000000E+00 0.  1.
         14    1    6    6    0    0  0.24311383281E+02  0.21372521115E+02  0.62271632730E+01  0.32963700919E+02  0.00000000000E+00 0. -1.
         -5    1    3    3    0  503  0.11195375148E+02 -0.66192213441E+02 -0.19437622208E+03  0.20569625970E+03  0.47000000000E+01 0.  1.
         11    1    4    4    0    0 -0.73930817584E+01  0.12016121239E+02 -0.39121945606E-01  0.14108379001E+02  0.00000000000E+00 0. -1.
        -12    1    4    4    0    0  0.10626490342E+02  0.53333589328E+02 -0.26701450923E+03  0.27249613243E+03  0.00000000000E+00 0.  1.
</event>
<event>
12    1  0.8356052E-002  0.1912209E+03  0.7818608E-02  0.1157487E+00
         21   -1    0    0  501  502  0.00000000000E+00  0.00000000000E+00  0.23181387689E+03  0.23181387689E+03  0.00000000000E+00 0.  1.
         21   -1    0    0  502  503 -0.00000000000E+00 -0.00000000000E+00 -0.20859690498E+03  0.20859690498E+03  0.00000000000E+00 0.  1.
         -6    2    1    2    0  503  0.60851560464E+02  0.56867433441E+02 -0.97594274453E+02  0.21468600052E+03  0.17212965757E+03 0.  0.
        -24    2    3    3    0    0  0.95252439411E+02  0.45499929420E+02 -0.11399591163E+03  0.17463922384E+03  0.79752867312E+02 0.  0.
          6    2    1    2  501    0 -0.60851560464E+02 -0.56867433441E+02  0.12081124636E+03  0.22572478136E+03  0.17152114236E+03 0.  0.
         24    2    5    5    0    0 -0.95068827059E+02 -0.80746568667E+02  0.10071446910E+03  0.17917368160E+03  0.80010709676E+02 0.  0.
          5    1    5    5  501    0  0.34217266595E+02  0.23879135225E+02  0.20096777261E+02  0.46551099757E+02  0.47000000000E+01 0. -1.
        -11    1    6    6    0    0 -0.68179786569E+02 -0.55945121505E+02  0.11042872744E+03  0.14132531182E+03  0.00000000000E+00 0.  1.
         12    1    6    6    0    0 -0.26889040490E+02 -0.24801447161E+02 -0.97142583445E+01  0.37848369780E+02  0.00000000000E+00 0. -1.
         -5    1    3    3    0  503 -0.34400878947E+02  0.11367504022E+02  0.16401637178E+02  0.40046776676E+02  0.47000000000E+01 0.  1.
         13    1    4    4    0    0 -0.10725848774E+02  0.82968035967E+01  0.13678465553E+01  0.13629078694E+02  0.00000000000E+00 0. -1.
        -14    1    4    4    0    0  0.10597828819E+03  0.37203125823E+02 -0.11536375819E+03  0.16101014515E+03  0.00000000000E+00 0.  1.
</event>
<event>
12    1  0.8356052E-002  0.1904763E+03  0.7818608E-02  0.1158148E+00
         21   -1    0    0  501  502  0.00000000000E+00  0.00000000000E+00  0.51299281860E+03  0.51299281860E+03  0.00000000000E+00 0. -1.
         21   -1    0    0  502  503 -0.00000000000E+00 -0.00000000000E+00 -0.89724947928E+02  0.89724947928E+02  0.00000000000E+00 0. -1.
         -6    2    1    2    0  503  0.29567156591E+01 -0.77338823433E+02  0.72488093316E+02  0.20380317767E+03  0.17404360309E+03 0.  0.
        -24    2    3    3    0    0  0.62847280044E+02 -0.74818337244E+02  0.30497204414E+02  0.13046452957E+03  0.80890974795E+02 0.  0.
          6    2    1    2  501    0 -0.29567156591E+01  0.77338823433E+02  0.35077977736E+03  0.39891458887E+03  0.17348302865E+03 0.  0.
         24    2    5    5    0    0  0.59999834276E+01  0.11245469430E+03  0.32770680362E+03  0.35569654909E+03  0.80288404055E+02 0.  0.
          5    1    5    5  501    0 -0.89566990868E+01 -0.35115870862E+02  0.23072973740E+02  0.43218039777E+02  0.47000000000E+01 0. -1.
        -11    1    6    6    0    0  0.10146182290E+02  0.19238164583E+02  0.88738896793E+01  0.23490379087E+02  0.00000000000E+00 0.  1.
         12    1    6    6    0    0 -0.41461988624E+01  0.93216529712E+02  0.31883291394E+03  0.33220617000E+03  0.00000000000E+00 0. -1.
         -5    1    3    3    0  503 -0.59890564385E+02 -0.25204861887E+01  0.41990888902E+02  0.73338648090E+02  0.47000000000E+01 0.  1.
         13    1    4    4    0    0  0.50938035604E+02 -0.75735990917E+02  0.52597534569E+02  0.10534288981E+03  0.00000000000E+00 0. -1.
        -14    1    4    4    0    0  0.11909244440E+02  0.91765367265E+00 -0.22100330155E+02  0.25121639763E+02  0.00000000000E+00 0.  1.
</event>
<event>
12    1  0.8356052E-002  0.1800143E+03  0.7818608E-02  0.1171753E+00
         21   -1    0    0  501  502  0.00000000000E+00  0.00000000000E+00  0.25462867430E+03  0.25462867430E+03  0.00000000000E+00 0.  1.
         21   -1    0    0  502  503 -0.00000000000E+00 -0.00000000000E+00 -0.14458616684E+03  0.14458616684E+03  0.00000000000E+00 0.  1.
         -6    2    1    2    0  503  0.38733024868E+02 -0.25445273124E+02 -0.34938182380E+02  0.16807735777E+03  0.15773906449E+03 0.  0.
        -24    2    3    3    0    0 -0.48290133864E+01 -0.64979178576E+02 -0.17542407027E+02  0.10655269721E+03  0.82462889951E+02 0.  0.
          6    2    1    2  501    0 -0.38733024868E+02  0.25445273124E+02  0.14498068983E+03  0.23113748337E+03  0.17394662013E+03 0.  0.
         24    2    5    5    0    0  0.74187237510E+01  0.19633666621E+02  0.15616879594E+03  0.18306438914E+03  0.93184544962E+02 0.  0.
          5    1    5    5  501    0 -0.46151748619E+02  0.58116065038E+01 -0.11188106107E+02  0.48073094231E+02  0.47000000000E+01 0. -1.
        -13    1    6    6    0    0  0.17725134896E+02 -0.13882187444E+02 -0.49965475031E+00  0.22519884329E+02  0.00000000000E+00 0.  1.
         14    1    6    6    0    0 -0.10306411145E+02  0.33515854065E+02  0.15666845069E+03  0.16054450481E+03  0.00000000000E+00 0. -1.
         -5    1    3    3    0  503  0.43562038254E+02  0.39533905452E+02 -0.17395775352E+02  0.61524660562E+02  0.47000000000E+01 0.  1.
         11    1    4    4    0    0 -0.37239968742E+02 -0.23041357302E+02 -0.28740000947E+02  0.52380407336E+02  0.00000000000E+00 0. -1.
        -12    1    4    4    0    0  0.32410955356E+02 -0.41937821274E+02  0.11197593919E+02  0.54172289871E+02  0.00000000000E+00 0.  1.
</event>
<event>
12    1  0.8356052E-002  0.1826623E+03  0.7818608E-02  0.1165255E+00
         21   -1    0    0  503  502  0.00000000000E+00  0.00000000000E+00  0.56210791678E+03  0.56210791678E+03  0.00000000000E+00 0.  1.
         21   -1    0    0  501  503 -0.00000000000E+00 -0.00000000000E+00 -0.72138012674E+02  0.72138012674E+02  0.00000000000E+00 0.  1.
          6    2    1    2  501    0  0.23408656442E+02 -0.55730032008E+02  0.11148509810E+03  0.21399633679E+03  0.17237083105E+03 0.  0.
         24    2    3    3    0    0  0.21119547445E+02 -0.10312441359E+03  0.90738232003E+02  0.16199643411E+03  0.83239041050E+02 0.  0.
         -6    2    1    2    0  502 -0.23408656442E+02  0.55730032008E+02  0.37848480600E+03  0.42024959266E+03  0.17235187870E+03 0.  0.
        -24    2    5    5    0    0 -0.31228449545E+02 -0.32872690968E+02  0.15838132399E+03  0.18280649531E+03  0.79232197165E+02 0.  0.
          5    1    3    3  501    0  0.22891089973E+01  0.47394381585E+02  0.20746866098E+02  0.51999902680E+02  0.47000000000E+01 0. -1.
        -11    1    4    4    0    0  0.38525054515E+02 -0.77701710746E+02  0.26392677299E+02  0.90654890068E+02  0.00000000000E+00 0.  1.
         12    1    4    4    0    0 -0.17405507070E+02 -0.25422702846E+02  0.64345554704E+02  0.71341544044E+02  0.00000000000E+00 0. -1.
         -5    1    5    5    0  502  0.78197931026E+01  0.88602722976E+02  0.22010348202E+03  0.23744309735E+03  0.47000000000E+01 0.  1.
         11    1    6    6    0    0  0.25157380017E+02 -0.20973111660E+02  0.45457185048E+02  0.56027857844E+02  0.00000000000E+00 0. -1.
        -12    1    6    6    0    0 -0.56385829562E+02 -0.11899579308E+02  0.11292413894E+03  0.12677863747E+03  0.00000000000E+00 0.  1.
</event>
<event>
12    1  0.8356052E-002  0.1929173E+03  0.7818608E-02  0.1155936E+00
         21   -1    0    0  503  502  0.00000000000E+00  0.00000000000E+00  0.51520810443E+03  0.51520810443E+03  0.00000000000E+00 0.  1.
         21   -1    0    0  501  503 -0.00000000000E+00 -0.00000000000E+00 -0.12099997391E+03  0.12099997391E+03  0.00000000000E+00 0. -1.
          6    2    1    2  501    0 -0.20522338811E+02 -0.83102935538E+02 -0.50061189136E+01  0.19298225241E+03  0.17288673817E+03 0.  0.
         24    2    3    3    0    0  0.40480130791E+02 -0.41272970480E+01  0.27188430000E+02  0.88020203307E+02  0.73161942939E+02 0.  0.
         -6    2    1    2    0  502  0.20522338811E+02  0.83102935538E+02  0.39921424944E+03  0.44322582593E+03  0.17248145271E+03 0.  0.
        -24    2    5    5    0    0  0.22229994244E+02 -0.84388209677E+01  0.28320881967E+03  0.29536724820E+03  0.80431271455E+02 0.  0.
          5    1    3    3  501    0 -0.61002469602E+02 -0.78975638490E+02 -0.32194548914E+02  0.10496204910E+03  0.47000000000E+01 0. -1.
        -11    1    4    4    0    0  0.31501557007E+02 -0.27206210079E+02 -0.10496686116E+02  0.42926755994E+02  0.00000000000E+00 0.  1.
         12    1    4    4    0    0  0.89785737840E+01  0.23078913031E+02  0.37685116116E+02  0.45093447313E+02  0.00000000000E+00 0. -1.
         -5    1    5    5    0  502 -0.17076554334E+01  0.91541756505E+02  0.11600542977E+03  0.14785857773E+03  0.47000000000E+01 0.  1.
         11    1    6    6    0    0 -0.16318396455E+02 -0.26210670874E+02  0.53505639566E+02  0.61774936632E+02  0.00000000000E+00 0. -1.
        -12    1    6    6    0    0  0.38548390700E+02  0.17771849906E+02  0.22970318010E+03  0.23359231157E+03  0.00000000000E+00 0.  1.
</event>
<event>
12    1  0.8356052E-002  0.1807452E+03  0.7818608E-02  0.1168300E+00
         21   -1    0    0  503  502  0.00000000000E+00  0.00000000000E+00  0.47743648308E+03  0.47743648308E+03  0.00000000000E+00 0. -1.
         21   -1    0    0  501  503 -0.00000000000E+00 -0.00000000000E+00 -0.84129030577E+02  0.84129030577E+02  0.00000000000E+00 0. -1.
          6    2    1    2  501    0  0.37876609919E+02  0.65081158855E+01  0.32280762256E+03  0.36755764217E+03  0.17151345714E+03 0.  0.
         24    2    3    3    0    0 -0.36096764265E+02 -0.35639613187E+02  0.14429568484E+03  0.16972667123E+03  0.73571324875E+02 0.  0.
         -6    2    1    2    0  502 -0.37876609919E+02 -0.65081158855E+01  0.70499829936E+02  0.19400787148E+03  0.17661210328E+03 0.  0.
        -24    2    5    5    0    0 -0.83239261946E+02 -0.35674755095E+02  0.28266726578E+02  0.12534792639E+03  0.81924550272E+02 0.  0.
          5    1    3    3  501    0  0.73973374183E+02  0.42147729073E+02  0.17851193773E+03  0.19783097094E+03  0.47000000000E+01 0. -1.
        -11    1    4    4    0    0 -0.22970023719E+02 -0.41132841880E+02  0.32987691952E+02  0.57512785457E+02  0.00000000000E+00 0.  1.
         12    1    4    4    0    0 -0.13126740545E+02  0.54932286924E+01  0.11130799289E+03  0.11221388577E+03  0.00000000000E+00 0. -1.
         -5    1    5    5    0  502  0.45362652027E+02  0.29166639209E+02  0.42233103358E+02  0.68659945098E+02  0.47000000000E+01 0.  1.
         13    1    6    6    0    0 -0.47898463250E+02 -0.27401617404E+02 -0.25248956520E+02  0.60684604501E+02  0.00000000000E+00 0. -1.
        -14    1    6    6    0    0 -0.35340798696E+02 -0.82731376909E+01  0.53515683098E+02  0.64663321885E+02  0.00000000000E+00 0.  1.
</event>
<event>
12    1  0.8356052E-002  0.2227868E+03  0.7818608E-02  0.1132092E+00
         21   -1    0    0  501  502  0.00000000000E+00  0.00000000000E+00  0.14682352360E+03  0.14682352360E+03  0.00000000000E+00 0. -1.
         21   -1    0    0  502  503 -0.00000000000E+00 -0.00000000000E+00 -0.38964019935E+03  0.38964019935E+03  0.00000000000E+00 0. -1.
         -6    2    1    2    0  503  0.13191682496E+03 -0.46589030889E+02 -0.22142946409E+03  0.31410982588E+03  0.17338220393E+03 0.  0.
        -24    2    3    3    0    0  0.59380991260E+02 -0.52498473278E+02 -0.21220903258E+03  0.24060149277E+03  0.81081520676E+02 0.  0.
          6    2    1    2  501    0 -0.13191682496E+03  0.46589030889E+02 -0.21387211664E+02  0.22235389707E+03  0.17149710263E+03 0.  0.
         24    2    5    5    0    0 -0.11888082851E+03 -0.39686550871E+01  0.32606532296E+02  0.14709812519E+03  0.80164024814E+02 0.  0.
          5    1    5    5  501    0 -0.13035996447E+02  0.50557685976E+02 -0.53993743960E+02  0.75255771881E+02  0.47000000000E+01 0. -1.
        -13    1    6    6    0    0 -0.52898120641E+02 -0.32520829778E+02 -0.10927785847E+02  0.63049441237E+02  0.00000000000E+00 0.  1.
         14    1    6    6    0    0 -0.65982707869E+02  0.28552174691E+02  0.43534318143E+02  0.84048683948E+02  0.00000000000E+00 0. -1.
         -5    1    3    3    0  503  0.72535833697E+02  0.59094423887E+01 -0.92204315133E+01  0.73508333111E+02  0.47000000000E+01 0.  1.
         11    1    4    4    0    0  0.54528891228E+02 -0.67611523581E+02 -0.12659537522E+03  0.15352884786E+03  0.00000000000E+00 0. -1.
        -12    1    4    4    0    0  0.48521000320E+01  0.15113050303E+02 -0.85613657364E+02  0.87072644909E+02  0.00000000000E+00 0.  1.
</event>
<event>
12    1  0.8356052E-002  0.1878100E+03  0.7818608E-02  0.1160564E+00
         21   -1    0    0  503  502  0.00000000000E+00  0.00000000000E+00  0.50215745636E+02  0.50215745636E+02  0.00000000000E+00 0. -1.
         21   -1    0    0  501  503 -0.00000000000E+00 -0.00000000000E+00 -0.70426241375E+03  0.70426241375E+03  0.00000000000E+00 0.  1.
          6    2    1    2  501    0 -0.33991650992E+02  0.70351101313E+02 -0.30017301365E+03  0.35408535832E+03  0.17078610324E+03 0.  0.
         24    2    3    3    0    0  0.17510303273E+02  0.54710177393E+02 -0.77747673786E+02  0.12519190798E+03  0.79551862421E+02 0.  0.
         -6    2    1    2    0  502  0.33991650992E+02 -0.70351101313E+02 -0.35387365446E+03  0.40039280106E+03  0.17024430101E+03 0.  0.
        -24    2    5    5    0    0 -0.10440346213E+02  0.16372954187E+02 -0.82298900325E+02  0.11182703514E+03  0.73178564726E+02 0.  0.
          5    1    3    3  501    0 -0.51501954265E+02  0.15640923920E+02 -0.22242533986E+03  0.22889345034E+03  0.47000000000E+01 0. -1.
        -11    1    4    4    0    0 -0.81689627740E+01 -0.15951408943E+02 -0.33398739873E+02  0.37903235023E+02  0.00000000000E+00 0.  1.
         12    1    4    4    0    0  0.25679266047E+02  0.70661586336E+02 -0.44348933913E+02  0.87288672962E+02  0.00000000000E+00 0. -1.
         -5    1    5    5    0  502  0.44431997205E+02 -0.86724055500E+02 -0.27157475414E+03  0.28856576592E+03  0.47000000000E+01 0.  1.
         11    1    6    6    0    0 -0.37423340738E+02  0.12579590567E+02 -0.73077450600E+02  0.83060618328E+02  0.00000000000E+00 0. -1.
        -12    1    6    6    0    0  0.26982994525E+02  0.37933636195E+01 -0.92214497251E+01  0.28766416811E+02  0.00000000000E+00 0.  1.
</event>
<event>
12    1  0.8356052E-002  0.1790583E+03  0.7818608E-02  0.1168879E+00
         21   -1    0    0  503  502  0.00000000000E+00  0.00000000000E+00  0.28966869430E+02  0.28966869430E+02  0.00000000000E+00 0.  1.
         21   -1    0    0  501  503 -0.00000000000E+00 -0.00000000000E+00 -0.13054553477E+04  0.13054553477E+04  0.00000000000E+00 0. -1.
          6    2    1    2  501    0 -0.36292961529E+02  0.33141907460E+02 -0.37435110572E+03  0.41468654216E+03  0.17149522680E+03 0.  0.
         24    2    3    3    0    0 -0.22980803459E+02  0.68685914163E+02 -0.35673366563E+03  0.37257889250E+03  0.79437087119E+02 0.  0.
         -6    2    1    2    0  502  0.36292961529E+02 -0.33141907460E+02 -0.90213737260E+03  0.91973567501E+03  0.17218103195E+03 0.  0.
        -24    2    5    5    0    0  0.35873913872E+01 -0.32837416095E+02 -0.86792897045E+03  0.87217464253E+03  0.79352026134E+02 0.  0.
          5    1    3    3  501    0 -0.13312158069E+02 -0.35544006703E+02 -0.17617440083E+02  0.42107649662E+02  0.47000000000E+01 0. -1.
        -13    1    4    4    0    0  0.11482981775E+02  0.45492436309E+02 -0.79993739390E+02  0.92738443880E+02  0.00000000000E+00 0.  1.
         14    1    4    4    0    0 -0.34463785234E+02  0.23193477853E+02 -0.27673992624E+03  0.27984044862E+03  0.00000000000E+00 0. -1.
         -5    1    5    5    0  502  0.32705570142E+02 -0.30449136456E+00 -0.34208402152E+02  0.47561032485E+02  0.47000000000E+01 0.  1.
         11    1    6    6    0    0 -0.10681124833E+02 -0.10037457016E+02 -0.26241239385E+02  0.30057272257E+02  0.00000000000E+00 0. -1.
        -12    1    6    6    0    0  0.14268516220E+02 -0.22799959079E+02 -0.84168773106E+03  0.84211737027E+03  0.00000000000E+00 0.  1.
</event>
<event>
12    1  0.8356052E-002  0.1766283E+03  0.7818608E-02  0.1171211E+00
         21   -1    0    0  501  502  0.00000000000E+00  0.00000000000E+00  0.10158847748E+04  0.10158847748E+04  0.00000000000E+00 0. -1.
         21   -1    0    0  502  503 -0.00000000000E+00 -0.00000000000E+00 -0.65933567017E+02  0.65933567017E+02  0.00000000000E+00 0. -1.
         -6    2    1    2    0  503  0.28912725804E+02  0.35160035588E+02  0.79472226115E+02  0.19368377264E+03  0.17066163964E+03 0.  0.
        -24    2    3    3    0    0  0.69142997849E+02  0.13013709761E+01  0.89367319529E+02  0.13997263011E+03  0.82603702468E+02 0.  0.
          6    2    1    2  501    0 -0.28912725804E+02 -0.35160035588E+02  0.87047898171E+03  0.88813456922E+03  0.17022685343E+03 0.  0.
         24    2    5    5    0    0 -0.59614108015E+02  0.26172339246E+02  0.61362623641E+03  0.62224049662E+03  0.80045264794E+02 0.  0.
          5    1    5    5  501    0  0.30701382211E+02 -0.61332374834E+02  0.25685274530E+03  0.26589407259E+03  0.47000000000E+01 0. -1.
        -13    1    6    6    0    0  0.89100337504E+01 -0.18351004037E+02  0.90549395889E+02  0.92818862019E+02  0.00000000000E+00 0.  1.
         14    1    6    6    0    0 -0.68524141765E+02  0.44523343283E+02  0.52307684052E+03  0.52942163460E+03  0.00000000000E+00 0. -1.
         -5    1    3    3    0  503 -0.40230272046E+02  0.33858664612E+02 -0.98950934145E+01  0.53711142530E+02  0.47000000000E+01 0.  1.
         11    1    4    4    0    0  0.44165344233E+02 -0.39430066342E+02  0.41221888643E+02  0.72142580119E+02  0.00000000000E+00 0. -1.
        -12    1    4    4    0    0  0.24977653616E+02  0.40731437318E+02  0.48145430886E+02  0.67830049988E+02  0.00000000000E+00 0.  1.
</event>
<event>
12    1  0.8356052E-002  0.2134892E+03  0.7818608E-02  0.1141705E+00
         21   -1    0    0  503  502  0.00000000000E+00  0.00000000000E+00  0.22691016482E+03  0.22691016482E+03  0.00000000000E+00 0. -1.
         21   -1    0    0  501  503 -0.00000000000E+00 -0.00000000000E+00 -0.20420129078E+04  0.20420129078E+04  0.00000000000E+00 0. -1.
          6    2    1    2  501    0 -0.10028573383E+03  0.11118711835E+02 -0.19856862422E+04  0.19956533263E+04  0.17175998495E+03 0.  0.
         24    2    3    3    0    0 -0.42913632347E+02 -0.19325748332E+02 -0.17045604431E+04  0.17070840485E+04  0.79966119295E+02 0.  0.
         -6    2    1    2    0  502  0.10028573383E+03 -0.11118711835E+02  0.17058349920E+03  0.27326974626E+03  0.18814029302E+03 0.  0.
        -24    2    5    5    0    0 -0.13131034642E+02 -0.41106884512E+02  0.97845190357E+02  0.13515528125E+03  0.82650279786E+02 0.  0.
          5    1    3    3  501    0 -0.57372101484E+02  0.30444460167E+02 -0.28112579908E+03  0.28856927781E+03  0.47000000000E+01 0. -1.
        -11    1    4    4    0    0  0.13885450600E+02  0.17143745784E+02 -0.25487546828E+03  0.25582849350E+03  0.00000000000E+00 0.  1.
         12    1    4    4    0    0 -0.56799082947E+02 -0.36469494116E+02 -0.14496849748E+04  0.14512555550E+04  0.00000000000E+00 0. -1.
         -5    1    5    5    0  502  0.11341676847E+03  0.29988172678E+02  0.72738308848E+02  0.13811446501E+03  0.47000000000E+01 0.  1.
         11    1    6    6    0    0 -0.47517372951E+02 -0.17947353282E+02  0.44018119091E+02  0.67213116505E+02  0.00000000000E+00 0. -1.
        -12    1    6    6    0    0  0.34386338310E+02 -0.23159531230E+02  0.53827071266E+02  0.67942164745E+02  0.00000000000E+00 0.  1.
</event>
<event>
12    1  0.8356052E-002  0.1909167E+03  0.7818608E-02  0.1157701E+00
         21   -1    0    0  501  502  0.00000000000E+00  0.00000000000E+00  0.10951135401E+03  0.10951135401E+03  0.00000000000E+00 0. -1.
         21   -1    0    0  502  503 -0.00000000000E+00 -0.00000000000E+00 -0.35106030120E+03  0.35106030120E+03  0.00000000000E+00 0. -1.
         -6    2    1    2    0  503  0.27650414595E+02 -0.80515399989E+02 -0.67683139101E+02  0.20255915209E+03  0.17088571535E+03 0.  0.
        -24    2    3    3    0    0 -0.49026574936E+02 -0.37903833106E+02 -0.24407190859E+02  0.10463058602E+03  0.80694132071E+02 0.  0.
          6    2    1    2  501    0 -0.27650414595E+02  0.80515399989E+02 -0.17386580809E+03  0.25801250313E+03  0.17056921612E+03 0.  0.
         24    2    5    5    0    0  0.44617475141E+02  0.70725597798E+02 -0.91908260312E+02  0.14820531871E+03  0.80776598764E+02 0.  0.
          5    1    5    5  501    0 -0.72267889737E+02  0.97898021916E+01 -0.81957547776E+02  0.10980718443E+03  0.47000000000E+01 0. -1.
        -11    1    6    6    0    0 -0.22742461834E+02  0.17678256956E+02 -0.12710562066E+02  0.31484896813E+02  0.00000000000E+00 0.  1.
         12    1    6    6    0    0  0.67359936976E+02  0.53047340842E+02 -0.79197698247E+02  0.11672042190E+03  0.00000000000E+00 0. -1.
         -5    1    3    3    0  503  0.76676989531E+02 -0.42611566883E+02 -0.43275948242E+02  0.97928566068E+02  0.47000000000E+01 0.  1.
         13    1    4    4    0    0 -0.40436483797E+02 -0.20724742914E+02  0.24829921554E+02  0.51779814553E+02  0.00000000000E+00 0. -1.
        -14    1    4    4    0    0 -0.85900911385E+01 -0.17179090192E+02 -0.49237112414E+02  0.52850771465E+02  0.00000000000E+00 0.  1.
</event>
<event>
12    1  0.8356052E-002  0.1975599E+03  0.7818608E-02  0.1151863E+00
         21   -1    0    0  503  502  0.00000000000E+00  0.00000000000E+00  0.25917571822E+03  0.25917571822E+03  0.00000000000E+00 0.  1.
         21   -1    0    0  501  503 -0.00000000000E+00 -0.00000000000E+00 -0.77364790626E+03  0.77364790626E+03  0.00000000000E+00 0. -1.
          6    2    1    2  501    0  0.95448176299E+02 -0.58666010266E+01 -0.72070532757E+03  0.74723298129E+03  0.17261572284E+03 0.  0.
         24    2    3    3    0    0  0.10013692721E+03  0.91729598963E+01 -0.30429263601E+03  0.33049590295E+03  0.80758814675E+02 0.  0.
         -6    2    1    2    0  502 -0.95448176299E+02  0.58666010266E+01  0.20623313953E+03  0.28559064319E+03  0.17287317973E+03 0.  0.
        -24    2    5    5    0    0 -0.90200125707E+02 -0.49576094836E+02  0.96912046714E+02  0.16281187510E+03  0.80758343337E+02 0.  0.
          5    1    3    3  501    0 -0.46887509078E+01 -0.15039560923E+02 -0.41641269156E+03  0.41673707834E+03  0.47000000000E+01 0. -1.
        -11    1    4    4    0    0  0.86742963522E+01 -0.18602491537E+02 -0.13934523663E+02  0.24808608553E+02  0.00000000000E+00 0.  1.
         12    1    4    4    0    0  0.91462630855E+02  0.27775451434E+02 -0.29035811235E+03  0.30568729439E+03  0.00000000000E+00 0. -1.
         -5    1    5    5    0  502 -0.52480505917E+01  0.55442695863E+02  0.10932109281E+03  0.12277876809E+03  0.47000000000E+01 0.  1.
         11    1    6    6    0    0 -0.19308417435E+02  0.22554944951E+02  0.22145197043E+02  0.37039847160E+02  0.00000000000E+00 0. -1.
        -12    1    6    6    0    0 -0.70891708273E+02 -0.72131039787E+02  0.74766849672E+02  0.12577202794E+03  0.00000000000E+00 0.  1.
</event>
<event>
12    1  0.8356052E-002  0.1836452E+03  0.7818608E-02  0.1164480E+00
         21   -1    0    0  501  502  0.00000000000E+00  0.00000000000E+00  0.61252051172E+03  0.61252051172E+03  0.00000000000E+00 0. -1.
         21   -1    0    0  502  503 -0.00000000000E+00 -0.00000000000E+00 -0.63330598862E+02  0.63330598862E+02  0.00000000000E+00 0. -1.
         -6    2    1    2    0  503 -0.55704088735E+02  0.30808640795E+02  0.15143446049E+03  0.23802930815E+03  0.17225979758E+03 0.  0.
        -24    2    3    3    0    0  0.56300960362E+01  0.71108515969E+02  0.10726997244E+03  0.15224729275E+03  0.81143528011E+02 0.  0.
          6    2    1    2  501    0  0.55704088735E+02 -0.30808640795E+02  0.39775545237E+03  0.43782180244E+03  0.17154128643E+03 0.  0.
         24    2    5    5    0    0  0.41253445857E+02 -0.24595782864E+02  0.95730582798E+02  0.13535108894E+03  0.82757316684E+02 0.  0.
          5    1    5    5  501    0  0.14450642878E+02 -0.62128579308E+01  0.30202486957E+03  0.30247071350E+03  0.47000000000E+01 0. -1.
        -11    1    6    6    0    0  0.62829914206E+02 -0.14529089703E+01  0.53191479180E+02  0.82334941070E+02  0.00000000000E+00 0.  1.
         12    1    6    6    0    0 -0.21576468349E+02 -0.23142873894E+02  0.42539103618E+02  0.53016147871E+02  0.00000000000E+00 0. -1.
         -5    1    3    3    0  503 -0.61334184771E+02 -0.40299875175E+02  0.44164488053E+02  0.85782015397E+02  0.47000000000E+01 0.  1.
         11    1    4    4    0    0  0.18139418562E+02  0.51038261685E+01 -0.66596493207E+01  0.19985956980E+02  0.00000000000E+00 0. -1.
        -12    1    4    4    0    0 -0.12509322526E+02  0.66004689801E+02  0.11392962176E+03  0.13226133577E+03  0.00000000000E+00 0.  1.
</event>
<event>
12    1  0.8356052E-002  0.1819144E+03  0.7818608E-02  0.1166393E+00
         21   -1    0    0  503  502  0.00000000000E+00  0.00000000000E+00  0.30065220967E+03  0.30065220967E+03  0.00000000000E+00 0.  1.
         21   -1    0    0  501  503 -0.00000000000E+00 -0.00000000000E+00 -0.14853569654E+03  0.14853569654E+03  0.00000000000E+00 0.  1.
          6    2    1    2  501    0  0.16403823522E+02  0.57867874198E+02 -0.39554003464E+02  0.18616485076E+03  0.17168301075E+03 0.  0.
         24    2    3    3    0    0  0.75362962669E+02  0.55622121566E+02 -0.21827519705E+02  0.12437859242E+03  0.78868226081E+02 0.  0.
         -6    2    1    2    0  502 -0.16403823522E+02 -0.57867874198E+02  0.19167051660E+03  0.26302305545E+03  0.16978151983E+03 0.  0.
        -24    2    5    5    0    0 -0.30920785557E+02 -0.85839483438E+02  0.19708151262E+03  0.23070399005E+03  0.77837629177E+02 0.  0.
          5    1    3    3  501    0 -0.58959139147E+02  0.22457526317E+01 -0.17726483760E+02  0.61786258345E+02  0.47000000000E+01 0. -1.
        -11    1    4    4    0    0  0.41787269774E+02  0.68278635966E+02 -0.33309242522E+02  0.86704404051E+02  0.00000000000E+00 0.  1.
         12    1    4    4    0    0  0.33575692895E+02 -0.12656514399E+02  0.11481722817E+02  0.37674188365E+02  0.00000000000E+00 0. -1.
         -5    1    5    5    0  502  0.14516962036E+02  0.27971609240E+02 -0.54109960181E+01  0.32319065397E+02  0.47000000000E+01 0.  1.
         11    1    6    6    0    0  0.20375224264E+02 -0.78302185690E+00  0.28628428015E+02  0.35147542982E+02  0.00000000000E+00 0. -1.
        -12    1    6    6    0    0 -0.51296009821E+02 -0.85056461581E+02  0.16845308460E+03  0.19555644707E+03  0.00000000000E+00 0.  1.
</event>
<event>
12    1  0.8356052E-002  0.1806573E+03  0.7818608E-02  0.1167502E+00
         21   -1    0    0  501  502  0.00000000000E+00  0.00000000000E+00  0.15120289555E+03  0.15120289555E+03  0.00000000000E+00 0.  1.
         21   -1    0    0  502  503 -0.00000000000E+00 -0.00000000000E+00 -0.26301243686E+03  0.26301243686E+03  0.00000000000E+00 0.  1.
         -6    2    1    2    0  503 -0.16248249684E+02 -0.46559541926E+02 -0.14529920521E+03  0.23183810160E+03  0.17379657580E+03 0.  0.
        -24    2    3    3    0    0  0.15836501200E+02 -0.81522024974E+02 -0.52566586036E+02  0.12756329583E+03  0.81317360692E+02 0.  0.
          6    2    1    2  501    0  0.16248249684E+02  0.46559541926E+02  0.33489663905E+02  0.18237723081E+03  0.17236037876E+03 0.  0.
         24    2    5    5    0    0  0.53311167889E+01  0.28406371214E+02  0.88336270076E+02  0.12339450786E+03  0.81163817237E+02 0.  0.
          5    1    5    5  501    0  0.10917132895E+02  0.18153170712E+02 -0.54846606171E+02  0.58982722945E+02  0.47000000000E+01 0. -1.
        -13    1    6    6    0    0  0.36485946590E+02  0.13697766035E+02  0.78376635929E+02  0.87531423800E+02  0.00000000000E+00 0.  1.
         14    1    6    6    0    0 -0.31154829801E+02  0.14708605179E+02  0.99596341468E+01  0.35863084064E+02  0.00000000000E+00 0. -1.
         -5    1    3    3    0  503 -0.32084750884E+02  0.34962483048E+02 -0.92732619174E+02  0.10427480577E+03  0.47000000000E+01 0.  1.
         11    1    4    4    0    0  0.14062194266E+02  0.11081183788E+02  0.49021506120E+01  0.18562570467E+02  0.00000000000E+00 0. -1.
        -12    1    4    4    0    0  0.17743069343E+01 -0.92603208762E+02 -0.57468736648E+02  0.10900072536E+03  0.00000000000E+00 0.  1.
</event>
<event>
12    1  0.8356052E-002  0.1888263E+03  0.7818608E-02  0.1159573E+00
         21   -1    0    0  503  502  0.00000000000E+00  0.00000000000E+00  0.21273325649E+03  0.21273325649E+03  0.00000000000E+00 0. -1.
         21   -1    0    0  501  503 -0.00000000000E+00 -0.00000000000E+00 -0.16765284934E+03  0.16765284934E+03  0.00000000000E+00 0. -1.
          6    2    1    2  501    0  0.58943808608E+02  0.52494258574E+02  0.29700298610E+02  0.19093449466E+03  0.17130047798E+03 0.  0.
         24    2    3    3    0    0  0.44394772417E+02  0.10043267208E+03  0.88940889978E+01  0.13648493725E+03  0.80569323183E+02 0.  0.
         -6    2    1    2    0  502 -0.58943808608E+02 -0.52494258574E+02  0.15380108536E+02  0.18945161117E+03  0.17153817500E+03 0.  0.
        -24    2    5    5    0    0 -0.15978394560E+02 -0.44972198272E+02 -0.52743097268E+02  0.10842402720E+03  0.81829870186E+02 0.  0.
          5    1    3    3  501    0  0.14549036191E+02 -0.47938413505E+02  0.20806209612E+02  0.54449557408E+02  0.47000000000E+01 0. -1.
        -13    1    4    4    0    0  0.26716679025E+02  0.11942182984E+01  0.22268566852E+02  0.34800806961E+02  0.00000000000E+00 0.  1.
         14    1    4    4    0    0  0.17678093392E+02  0.99238453781E+02 -0.13374477854E+02  0.10168413029E+03  0.00000000000E+00 0. -1.
         -5    1    5    5    0  502 -0.42965414048E+02 -0.75220603020E+01  0.68123205805E+02  0.81027583974E+02  0.47000000000E+01 0.  1.
         11    1    6    6    0    0 -0.56948513189E+01 -0.57624668714E+02 -0.51714228562E+01  0.58135852882E+02  0.00000000000E+00 0. -1.
        -12    1    6    6    0    0 -0.10283543241E+02  0.12652470442E+02 -0.47571674412E+02  0.50288174318E+02  0.00000000000E+00 0.  1.
</event>
<event>
12    1  0.8356052E-002  0.2084381E+03  0.7818608E-02  0.1143326E+00
         21   -1    0    0  503  502  0.00000000000E+00  0.00000000000E+00  0.83647731007E+03  0.83647731007E+03  0.00000000000E+00 0.  1.
         21   -1    0    0  501  503 -0.00000000000E+00 -0.00000000000E+00 -0.58078823038E+02  0.58078823038E+02  0.00000000000E+00 0.  1.
          6    2    1    2  501    0 -0.91908370722E+02 -0.68518221778E+02  0.23854572082E+03  0.31678146971E+03  0.17408200166E+03 0.  0.
         24    2    3    3    0    0  0.11549735667E+02 -0.57748327282E+02  0.92758635149E+02  0.13762920276E+03  0.82881646692E+02 0.  0.
         -6    2    1    2    0  502  0.91908370722E+02  0.68518221778E+02  0.53985276621E+03  0.57777466340E+03  0.17099899754E+03 0.  0.
        -24    2    5    5    0    0 -0.14783305136E+02  0.95828456979E+01  0.16723668270E+03  0.18570154785E+03  0.78781849363E+02 0.  0.
          5    1    3    3  501    0 -0.10345810639E+03 -0.10769894496E+02  0.14578708567E+03  0.17915226695E+03  0.47000000000E+01 0. -1.
        -13    1    4    4    0    0 -0.31355145791E+02 -0.18631866697E+02  0.61981252740E+02  0.71916391145E+02  0.00000000000E+00 0.  1.
         14    1    4    4    0    0  0.42904881459E+02 -0.39116460585E+02  0.30777382409E+02  0.65712811610E+02  0.00000000000E+00 0. -1.
         -5    1    5    5    0  502  0.10669167586E+03  0.58935376080E+02  0.37261608351E+03  0.39207311556E+03  0.47000000000E+01 0.  1.
         13    1    6    6    0    0 -0.22848095991E+02  0.38486411218E+02  0.63336250226E+02  0.77554625468E+02  0.00000000000E+00 0. -1.
        -14    1    6    6    0    0  0.80647908544E+01 -0.28903565520E+02  0.10390043248E+03  0.10814692238E+03  0.00000000000E+00 0.  1.
</event>
<event>
12    1  0.8356052E-002  0.3657812E+03  0.7818608E-02  0.1056345E+00
         21   -1    0    0  501  502  0.00000000000E+00  0.00000000000E+00  0.12578654851E+03  0.12578654851E+03  0.00000000000E+00 0. -1.
         21   -1    0    0  502  503 -0.00000000000E+00 -0.00000000000E+00 -0.16903666699E+04  0.16903666699E+04  0.00000000000E+00 0.  1.
         -6    2    1    2    0  503  0.23803113107E+03 -0.21734967745E+03 -0.13353744912E+04  0.13844923196E+04  0.17232019433E+03 0.  0.
        -24    2    3    3    0    0  0.13021218968E+03 -0.96381001080E+02 -0.96968669415E+03  0.98448232001E+03  0.51658899453E+02 0.  0.
          6    2    1    2  501    0 -0.23803113107E+03  0.21734967745E+03 -0.22920563017E+03  0.43166089890E+03  0.17290520260E+03 0.  0.
         24    2    5    5    0    0 -0.11440401924E+03  0.66367461648E+02 -0.16641802522E+03  0.22661537808E+03  0.78528026103E+02 0.  0.
          5    1    5    5  501    0 -0.12362711184E+03  0.15098221580E+03 -0.62787604955E+02  0.20504552081E+03  0.47000000000E+01 0. -1.
        -13    1    6    6    0    0  0.12091022602E+02  0.78743807279E+01 -0.16781487019E+02  0.22131809821E+02  0.00000000000E+00 0.  1.
         14    1    6    6    0    0 -0.12649504184E+03  0.58493080921E+02 -0.14963653820E+03  0.20448356826E+03  0.00000000000E+00 0. -1.
         -5    1    3    3    0  503  0.10781894139E+03 -0.12096867637E+03 -0.36568779710E+03  0.40000999954E+03  0.47000000000E+01 0.  1.
         11    1    4    4    0    0  0.69875074231E+01 -0.21532255625E+02 -0.21159819526E+03  0.21280568491E+03  0.00000000000E+00 0. -1.
        -12    1    4    4    0    0  0.12322468226E+03 -0.74848745455E+02 -0.75808849889E+03  0.77167663510E+03  0.00000000000E+00 0.  1.
</event>
<event>
12    1  0.8356052E-002  0.2096015E+03  0.7818608E-02  0.1141908E+00
         21   -1    0    0  503  502  0.00000000000E+00  0.00000000000E+00  0.43483559228E+03  0.43483559228E+03  0.00000000000E+00 0.  1.
         21   -1    0    0  501  503 -0.00000000000E+00 -0.00000000000E+00 -0.16689831480E+03  0.16689831480E+03  0.00000000000E+00 0. -1.
          6    2    1    2  501    0  0.11053995679E+03 -0.45864105646E+02 -0.55154255742E+02  0.21660934565E+03  0.17191573070E+03 0.  0.
         24    2    3    3    0    0  0.11063234564E+03  0.24640902971E+02 -0.43783739801E+02  0.14503879718E+03  0.79199411702E+02 0.  0.
         -6    2    1    2    0  502 -0.11053995679E+03  0.45864105646E+02  0.32309153323E+03  0.38512456142E+03  0.17207611902E+03 0.  0.
        -24    2    5    5    0    0 -0.59384466917E+02  0.21667409096E+02  0.66885966864E+02  0.12270172228E+03  0.81154103778E+02 0.  0.
          5    1    3    3  501    0 -0.92388847496E-01 -0.70505008618E+02 -0.11370515940E+02  0.71570548472E+02  0.47000000000E+01 0. -1.
        -13    1    4    4    0    0  0.41415318227E+02  0.83963354335E+01  0.22466333303E+02  0.47858783568E+02  0.00000000000E+00 0.  1.
         14    1    4    4    0    0  0.69217027415E+02  0.16244567538E+02 -0.66250073104E+02  0.97180013608E+02  0.00000000000E+00 0. -1.
         -5    1    5    5    0  502 -0.51155489878E+02  0.24196696550E+02  0.25620556636E+03  0.26242283914E+03  0.47000000000E+01 0.  1.
         11    1    6    6    0    0 -0.71200542385E+02  0.36951267714E+02  0.65082708021E+02  0.10329894629E+03  0.00000000000E+00 0. -1.
        -12    1    6    6    0    0  0.11816075468E+02 -0.15283858618E+02  0.18032588436E+01  0.19402775992E+02  0.00000000000E+00 0.  1.
</event>
<event>
12    1  0.8356052E-002  0.2504858E+03  0.7818608E-02  0.1113073E+00
         21   -1    0    0  503  502  0.00000000000E+00  0.00000000000E+00  0.48292690364E+03  0.48292690364E+03  0.00000000000E+00 0.  1.
         21   -1    0    0  501  503 -0.00000000000E+00 -0.00000000000E+00 -0.22728548347E+03  0.22728548347E+03  0.00000000000E+00 0.  1.
          6    2    1    2  501    0  0.10799078239E+03 -0.14687555755E+03 -0.10482031239E+03  0.27153348295E+03  0.17178095349E+03 0.  0.
         24    2    3    3    0    0  0.13821644764E+03 -0.13089824511E+03 -0.62344336882E+02  0.21680539283E+03  0.82943505144E+02 0.  0.
         -6    2    1    2    0  502 -0.10799078239E+03  0.14687555755E+03  0.36046173257E+03  0.43867890416E+03  0.17109085837E+03 0.  0.
        -24    2    5    5    0    0 -0.66137600133E+02  0.15097741332E+02  0.18436526868E+03  0.21473887579E+03  0.86718559336E+02 0.  0.
          5    1    3    3  501    0 -0.30225665249E+02 -0.15977312440E+02 -0.42475975512E+02  0.54728090120E+02  0.47000000000E+01 0. -1.
        -13    1    4    4    0    0  0.12091572069E+03 -0.60764985277E+02 -0.37649881529E+02  0.14046532855E+03  0.00000000000E+00 0.  1.
         14    1    4    4    0    0  0.17300726948E+02 -0.70133259836E+02 -0.24694455353E+02  0.76340064274E+02  0.00000000000E+00 0. -1.
         -5    1    5    5    0  502 -0.41853182261E+02  0.13177781622E+03  0.17609646389E+03  0.22394002837E+03  0.47000000000E+01 0.  1.
         11    1    6    6    0    0 -0.81040439521E+02  0.32389008315E+02  0.14584326631E+03  0.16996134568E+03  0.00000000000E+00 0. -1.
        -12    1    6    6    0    0  0.14902839389E+02 -0.17291266983E+02  0.38522002366E+02  0.44777530101E+02  0.00000000000E+00 0.  1.
</event>
<event>
12    1  0.8356052E-002  0.1781754E+03  0.7818608E-02  0.1170426E+00
         21   -1    0    0  503  502  0.00000000000E+00  0.00000000000E+00  0.52455989876E+03  0.52455989876E+03  0.00000000000E+00 0. -1.
         21   -1    0    0  501  503 -0.00000000000E+00 -0.00000000000E+00 -0.80290369556E+02  0.80290369556E+02  0.00000000000E+00 0. -1.
          6    2    1    2  501    0  0.94948853675E+01  0.31004717695E+02  0.66164531717E+02  0.18686718109E+03  0.17172697151E+03 0.  0.
         24    2    3    3    0    0 -0.10354824549E+02  0.11868652354E+02 -0.28273684282E+02  0.88374203564E+02  0.82234489921E+02 0.  0.
         -6    2    1    2    0  502 -0.94948853675E+01 -0.31004717695E+02  0.37810499749E+03  0.41798308723E+03  0.17519996209E+03 0.  0.
        -24    2    5    5    0    0 -0.55329728219E+02 -0.13301909078E+01  0.11909211215E+03  0.15323570739E+03  0.78962665930E+02 0.  0.
          5    1    3    3  501    0  0.19849709917E+02  0.19136065340E+02  0.94438215999E+02  0.98492977524E+02  0.47000000000E+01 0. -1.
        -11    1    4    4    0    0  0.33272639365E+02  0.77928787124E+01 -0.28590317646E+02  0.44555625369E+02  0.00000000000E+00 0.  1.
         12    1    4    4    0    0 -0.43627463914E+02  0.40757736419E+01  0.31663336476E+00  0.43818578195E+02  0.00000000000E+00 0. -1.
         -5    1    5    5    0  502  0.45834842851E+02 -0.29674526787E+02  0.25901288534E+03  0.26474737984E+03  0.47000000000E+01 0.  1.
         13    1    6    6    0    0  0.97500166778E+01 -0.20855078080E+02  0.10885845757E+02  0.25465638512E+02  0.00000000000E+00 0. -1.
        -14    1    6    6    0    0 -0.65079744896E+02  0.19524887173E+02  0.10820626639E+03  0.12777006888E+03  0.00000000000E+00 0.  1.
</event>
<event>
12    1  0.8356052E-002  0.2154482E+03  0.7818608E-02  0.1137440E+00
         21   -1    0    0  501  502  0.00000000000E+00  0.00000000000E+00  0.11403996465E+04  0.11403996465E+04  0.00000000000E+00 0.  1.
         21   -1    0    0  502  503 -0.00000000000E+00 -0.00000000000E+00 -0.56290364148E+02  0.56290364148E+02  0.00000000000E+00 0. -1.
         -6    2    1    2    0  503 -0.28945515283E+01 -0.12804383778E+03  0.22658558466E+03  0.31266429431E+03  0.17324644568E+03 0.  0.
        -24    2    3    3    0    0 -0.30635225028E+01 -0.33330737301E+02  0.24868383838E+02  0.89768536031E+02  0.79496102592E+02 0.  0.
          6    2    1    2  501    0  0.28945515283E+01  0.12804383778E+03  0.85752369769E+03  0.88402571633E+03  0.17248470138E+03 0.  0.
         24    2    5    5    0    0  0.23931526879E+02  0.20250687222E+01  0.27938986147E+03  0.29192428324E+03  0.81143536834E+02 0.  0.
          5    1    5    5  501    0 -0.21036975351E+02  0.12601876906E+03  0.57813383622E+03  0.59210143309E+03  0.47000000000E+01 0. -1.
        -13    1    6    6    0    0 -0.13930027550E+00  0.18025576641E+01  0.26252795641E+03  0.26253418162E+03  0.00000000000E+00 0.  1.
         14    1    6    6    0    0  0.24070827155E+02  0.22251105805E+00  0.16861905052E+02  0.29390101618E+02  0.00000000000E+00 0. -1.
         -5    1    3    3    0  503  0.16897097441E+00 -0.94713100480E+02  0.20171720082E+03  0.22289575828E+03  0.47000000000E+01 0.  1.
         11    1    4    4    0    0 -0.22802598574E+01  0.22876767794E+02 -0.83671778332E+01  0.24465399131E+02  0.00000000000E+00 0. -1.
        -12    1    4    4    0    0 -0.78326264539E+00 -0.56207505096E+02  0.33235561671E+02  0.65303136900E+02  0.00000000000E+00 0.  1.
</event>
<event>
12    1  0.8356052E-002  0.1862978E+03  0.7818608E-02  0.1162337E+00
         21   -1    0    0  501  502  0.00000000000E+00  0.00000000000E+00  0.46752288566E+02  0.46752288566E+02  0.00000000000E+00 0. -1.
         21   -1    0    0  502  503 -0.00000000000E+00 -0.00000000000E+00 -0.79497750947E+03  0.79497750947E+03  0.00000000000E+00 0. -1.
         -6    2    1    2    0  503  0.77134696816E+01 -0.65595996284E+02 -0.48876186396E+03  0.52231138880E+03  0.17192642282E+03 0.  0.
        -24    2    3    3    0    0 -0.48037517217E+02 -0.83220157782E+02 -0.35988137749E+03  0.38070964657E+03  0.78689461859E+02 0.  0.
          6    2    1    2  501    0 -0.77134696816E+01  0.65595996284E+02 -0.25946335695E+03  0.31941840924E+03  0.17419688350E+03 0.  0.
         24    2    5    5    0    0 -0.36438667899E+02  0.24102151647E+01 -0.54813610090E+02  0.10326756183E+03  0.79536606790E+02 0.  0.
          5    1    5    5  501    0  0.28725198217E+02  0.63185781120E+02 -0.20464974686E+03  0.21615084741E+03  0.47000000000E+01 0. -1.
        -13    1    6    6    0    0 -0.42550982304E+02 -0.23773705002E+02 -0.58481618493E+02  0.76130643279E+02  0.00000000000E+00 0.  1.
         14    1    6    6    0    0  0.61123144050E+01  0.26183920167E+02  0.36680084039E+01  0.27136918549E+02  0.00000000000E+00 0. -1.
         -5    1    3    3    0  503  0.55750986899E+02  0.17624161498E+02 -0.12888048647E+03  0.14160174222E+03  0.47000000000E+01 0.  1.
         11    1    4    4    0    0 -0.11803599152E+02 -0.56187425385E+02 -0.30125784874E+03  0.30668003383E+03  0.00000000000E+00 0. -1.
        -12    1    4    4    0    0 -0.36233918066E+02 -0.27032732397E+02 -0.58623528748E+02  0.74029612738E+02  0.00000000000E+00 0.  1.
</event>
<event>
12    1  0.8356052E-002  0.3099188E+03  0.7818608E-02  0.1080397E+00
         21   -1    0    0  501  502  0.00000000000E+00  0.00000000000E+00  0.14001065070E+04  0.14001065070E+04  0.00000000000E+00 0.  1.
         21   -1    0    0  502  503 -0.00000000000E+00 -0.00000000000E+00 -0.10429736322E+03  0.10429736322E+03  0.00000000000E+00 0. -1.
         -6    2    1    2    0  503  0.22602817373E+03 -0.12296450956E+03  0.20778466874E+03  0.37312750908E+03  0.17274450364E+03 0.  0.
        -24    2    3    3    0    0  0.14083385114E+03 -0.14331520862E+03  0.11401055881E+03  0.24472230184E+03  0.80729021112E+02 0.  0.
          6    2    1    2  501    0 -0.22602817373E+03  0.12296450956E+03  0.10880244751E+04  0.11312763612E+04  0.17256865602E+03 0.  0.
         24    2    5    5    0    0 -0.20620922646E+03  0.13970076095E+03  0.79852963232E+03  0.84058365957E+03  0.83022691804E+02 0.  0.
          5    1    5    5  501    0 -0.19818947276E+02 -0.16736251386E+02  0.28949484276E+03  0.29069270160E+03  0.47000000000E+01 0. -1.
        -13    1    6    6    0    0 -0.12462665228E+03  0.65088812618E+02  0.56462596714E+03  0.58186840329E+03  0.00000000000E+00 0.  1.
         14    1    6    6    0    0 -0.81582574178E+02  0.74611948330E+02  0.23390366519E+03  0.25871525628E+03  0.00000000000E+00 0. -1.
         -5    1    3    3    0  503  0.85194322594E+02  0.20350699054E+02  0.93774109930E+02  0.12840520724E+03  0.47000000000E+01 0.  1.
         13    1    4    4    0    0  0.40944469159E+02 -0.95353649571E+02  0.38741915158E+02  0.11076869608E+03  0.00000000000E+00 0. -1.
        -14    1    4    4    0    0  0.99889381979E+02 -0.47961559045E+02  0.75268643655E+02  0.13395360576E+03  0.00000000000E+00 0.  1.
</event>
<event>
12    1  0.8356052E-002  0.2729559E+03  0.7818608E-02  0.1099641E+00
         21   -1    0    0  501  502  0.00000000000E+00  0.00000000000E+00  0.12332328956E+03  0.12332328956E+03  0.00000000000E+00 0. -1.
         21   -1    0    0  502  503 -0.00000000000E+00 -0.00000000000E+00 -0.83437638507E+03  0.83437638507E+03  0.00000000000E+00 0. -1.
         -6    2    1    2    0  503  0.14560212498E+03 -0.15397847666E+03 -0.60755789906E+03  0.66605670060E+03  0.17203365262E+03 0.  0.
        -24    2    3    3    0    0  0.10623122875E+03 -0.17740780175E+03 -0.54463242166E+03  0.58807781595E+03  0.80327086422E+02 0.  0.
          6    2    1    2  501    0 -0.14560212498E+03  0.15397847666E+03 -0.10349519646E+03  0.29164297402E+03  0.17156636772E+03 0.  0.
         24    2    5    5    0    0 -0.11135652073E+03  0.17704649311E+03 -0.10309420917E+03  0.25008403293E+03  0.90376280802E+02 0.  0.
          5    1    5    5  501    0 -0.34245604256E+02 -0.23068016451E+02 -0.40098728667E+00  0.41558941091E+02  0.47000000000E+01 0. -1.
        -13    1    6    6    0    0 -0.12059967368E+03  0.15926376848E+03 -0.11100030370E+03  0.22853948600E+03  0.00000000000E+00 0.  1.
         14    1    6    6    0    0  0.92431529507E+01  0.17782724632E+02  0.79060945246E+01  0.21544546930E+02  0.00000000000E+00 0. -1.
         -5    1    3    3    0  503  0.39370896235E+02  0.23429325092E+02 -0.62925477403E+02  0.77978884649E+02  0.47000000000E+01 0.  1.
         13    1    4    4    0    0  0.28870812659E+02 -0.75991686335E+02 -0.31581799441E+03  0.32611235151E+03  0.00000000000E+00 0. -1.
        -14    1    4    4    0    0  0.77360416088E+02 -0.10141611542E+03 -0.22881442725E+03  0.26196546444E+03  0.00000000000E+00 0.  1.
</event>
<event>
12    1  0.8356052E-002  0.2296321E+03  0.7818608E-02  0.1127208E+00
         21   -1    0    0  503  502  0.00000000000E+00  0.00000000000E+00  0.29230995579E+03  0.29230995579E+03  0.00000000000E+00 0. -1.
         21   -1    0    0  501  503 -0.00000000000E+00 -0.00000000000E+00 -0.59248854924E+03  0.59248854924E+03  0.00000000000E+00 0. -1.
          6    2    1    2  501    0  0.23335423137E+02 -0.14918580148E+03 -0.51982868747E+03  0.56828933792E+03  0.17300278014E+03 0.  0.
         24    2    3    3    0    0  0.18402974559E+02 -0.68956081385E+02 -0.44809036758E+03  0.46044865183E+03  0.78322237072E+02 0.  0.
         -6    2    1    2    0  502 -0.23335423137E+02  0.14918580148E+03  0.21965009402E+03  0.31650916711E+03  0.17067789467E+03 0.  0.
        -24    2    5    5    0    0 -0.10219960405E+02  0.15478225190E+03  0.23667736706E+03  0.29380776524E+03  0.79024260477E+02 0.  0.
          5    1    3    3  501    0  0.49324485777E+01 -0.80229720091E+02 -0.71738319893E+02  0.10784068609E+03  0.47000000000E+01 0. -1.
        -11    1    4    4    0    0  0.20556744335E+02 -0.19708404729E+02 -0.34505761091E+03  0.34623078402E+03  0.00000000000E+00 0.  1.
         12    1    4    4    0    0 -0.21537697760E+01 -0.49247676656E+02 -0.10303275667E+03  0.11421786781E+03  0.00000000000E+00 0. -1.
         -5    1    5    5    0  502 -0.13115462732E+02 -0.55964504199E+01 -0.17027273038E+02  0.22701401875E+02  0.47000000000E+01 0.  1.
         11    1    6    6    0    0  0.86909418423E+01  0.57631282656E+02  0.15462442067E+03  0.16524408818E+03  0.00000000000E+00 0. -1.
        -12    1    6    6    0    0 -0.18910902247E+02  0.97150969240E+02  0.82052946391E+02  0.12856367706E+03  0.00000000000E+00 0.  1.
</event>
<event>
12    1  0.8356052E-002  0.3818281E+03  0.7818608E-02  0.1050292E+00
         21   -1    0    0  501  502  0.00000000000E+00  0.00000000000E+00  0.31575566715E+03  0.31575566715E+03  0.00000000000E+00 0.  1.
         21   -1    0    0  502  503 -0.00000000000E+00 -0.00000000000E+00 -0.94177715222E+03  0.94177715222E+03  0.00000000000E+00 0. -1.
         -6    2    1    2    0  503  0.30833935537E+03  0.14372988824E+03 -0.76204558840E+03  0.85219930933E+03  0.17262313049E+03 0.  0.
        -24    2    3    3    0    0  0.32099271545E+03  0.11889571556E+03 -0.68872497039E+03  0.77361911666E+03  0.83498133360E+02 0.  0.
          6    2    1    2  501    0 -0.30833935537E+03 -0.14372988824E+03  0.13602410334E+03  0.40533351004E+03  0.17338182958E+03 0.  0.
         24    2    5    5    0    0 -0.21637087865E+03 -0.16268593030E+03  0.12959907802E+03  0.31109496595E+03  0.81860172086E+02 0.  0.
          5    1    5    5  501    0 -0.91968476720E+02  0.18956042060E+02  0.64250253150E+01  0.94238544084E+02  0.47000000000E+01 0. -1.
        -11    1    6    6    0    0 -0.73967872926E+02 -0.25235959212E+02  0.68601259301E+02  0.10399150273E+03  0.00000000000E+00 0.  1.
         12    1    6    6    0    0 -0.14240300572E+03 -0.13744997109E+03  0.60997818721E+02  0.20710346322E+03  0.00000000000E+00 0. -1.
         -5    1    3    3    0  503 -0.12653360087E+02  0.24834172681E+02 -0.73320618016E+02  0.78580192673E+02  0.47000000000E+01 0.  1.
         13    1    4    4    0    0  0.19169795800E+03  0.92452523267E+02 -0.49917966723E+03  0.54265635198E+03  0.00000000000E+00 0. -1.
        -14    1    4    4    0    0  0.12929475745E+03  0.26443192291E+02 -0.18954530315E+03  0.23096276468E+03  0.00000000000E+00 0.  1.
</event>
<event>
12    1  0.8356052E-002  0.1751562E+03  0.7818608E-02  0.1172967E+00
         21   -1    0    0  501  502  0.00000000000E+00  0.00000000000E+00  0.46665626447E+02  0.46665626447E+02  0.00000000000E+00 0.  1.
         21   -1    0    0  502  503 -0.00000000000E+00 -0.00000000000E+00 -0.90191736178E+03  0.90191736178E+03  0.00000000000E+00 0.  1.
         -6    2    1    2    0  503 -0.81215810127E+01 -0.26082344506E+02 -0.67610642586E+03  0.69803812434E+03  0.17143825465E+03 0.  0.
        -24    2    3    3    0    0 -0.14618546616E+02  0.20089681705E+02 -0.61612653615E+03  0.62192147874E+03  0.80976045569E+02 0.  0.
          6    2    1    2  501    0  0.81215810127E+01  0.26082344506E+02 -0.17914530947E+03  0.25054486389E+03  0.17301282653E+03 0.  0.
         24    2    5    5    0    0  0.91035012462E+01 -0.22578731744E+01 -0.11728336390E+02  0.80678254516E+02  0.79268248063E+02 0.  0.
          5    1    5    5  501    0 -0.98192023355E+00  0.28340217681E+02 -0.16741697308E+03  0.16986660937E+03  0.47000000000E+01 0. -1.
        -13    1    6    6    0    0  0.27949716897E+02  0.20865465203E+02 -0.29735456724E+02  0.45833957927E+02  0.00000000000E+00 0.  1.
         14    1    6    6    0    0 -0.18846215650E+02 -0.23123338377E+02  0.18007120333E+02  0.34844296588E+02  0.00000000000E+00 0. -1.
         -5    1    3    3    0  503  0.64969656036E+01 -0.46172026211E+02 -0.59979889716E+02  0.76116645596E+02  0.47000000000E+01 0.  1.
         11    1    4    4    0    0  0.21876407778E+02 -0.11458034562E+02 -0.82446707862E+02  0.86065808603E+02  0.00000000000E+00 0. -1.
        -12    1    4    4    0    0 -0.36494954394E+02  0.31547716267E+02 -0.53367982829E+03  0.53585567014E+03  0.00000000000E+00 0.  1.
</event>
<event>
12    1  0.8356052E-002  0.1821225E+03  0.7818608E-02  0.1168352E+00
         21   -1    0    0  503  502  0.00000000000E+00  0.00000000000E+00  0.82068311902E+03  0.82068311902E+03  0.00000000000E+00 0.  1.
         21   -1    0    0  501  503 -0.00000000000E+00 -0.00000000000E+00 -0.38834659552E+02  0.38834659552E+02  0.00000000000E+00 0.  1.
          6    2    1    2  501    0 -0.14597909556E+01 -0.71306734788E+00  0.34386953914E+03  0.38912060738E+03  0.18211520445E+03 0.  0.
         24    2    3    3    0    0  0.68598413031E+02 -0.45388867841E+01  0.15140593634E+03  0.18421302519E+03  0.79273812361E+02 0.  0.
         -6    2    1    2    0  502  0.14597909556E+01  0.71306734788E+00  0.43797892033E+03  0.47039717119E+03  0.17159640017E+03 0.  0.
        -24    2    5    5    0    0  0.66258103996E+02 -0.14527321716E+02  0.25009880087E+03  0.27101783394E+03  0.79373022473E+02 0.  0.
          5    1    3    3  501    0 -0.70058203987E+02  0.38258194362E+01  0.19246360279E+03  0.20490758219E+03  0.47000000000E+01 0. -1.
        -11    1    4    4    0    0  0.51597932392E+02 -0.10840354334E+02  0.15669422277E+03  0.16532676541E+03  0.00000000000E+00 0.  1.
         12    1    4    4    0    0  0.17000480640E+02  0.63014675500E+01 -0.52882864305E+01  0.18886259784E+02  0.00000000000E+00 0. -1.
         -5    1    5    5    0  502 -0.64798313041E+02  0.15240389064E+02  0.18788011947E+03  0.19937933725E+03  0.47000000000E+01 0.  1.
         11    1    6    6    0    0  0.45409236158E+02  0.12847475398E+02  0.22091276082E+03  0.22589710987E+03  0.00000000000E+00 0. -1.
        -12    1    6    6    0    0  0.20848867838E+02 -0.27374797115E+02  0.29186040045E+02  0.45120724071E+02  0.00000000000E+00 0.  1.
</event>
<event>
12    1  0.8356052E-002  0.1792374E+03  0.7818608E-02  0.1168828E+00
         21   -1    0    0  503  502  0.00000000000E+00  0.00000000000E+00  0.13277032105E+04  0.13277032105E+04  0.00000000000E+00 0. -1.
         21   -1    0    0  501  503 -0.00000000000E+00 -0.00000000000E+00 -0.42849632565E+02  0.42849632565E+02  0.00000000000E+00 0. -1.
          6    2    1    2  501    0 -0.24125938678E+02  0.42593141570E+02  0.18722135530E+03  0.25838264631E+03  0.17121191375E+03 0.  0.
         24    2    3    3    0    0  0.18444976695E+01 -0.41198965304E+02  0.98921028537E+02  0.13382495508E+03  0.80143569934E+02 0.  0.
         -6    2    1    2    0  502  0.24125938678E+02 -0.42593141570E+02  0.10976322227E+04  0.11121701968E+04  0.17242335617E+03 0.  0.
        -24    2    5    5    0    0  0.28628247183E+01 -0.91256507188E+02  0.86058527267E+03  0.86920190735E+03  0.81049357392E+02 0.  0.
          5    1    3    3  501    0 -0.25970436348E+02  0.83792106874E+02  0.88300326765E+02  0.12455769123E+03  0.47000000000E+01 0. -1.
        -11    1    4    4    0    0  0.21216831155E+02 -0.11497681594E+02 -0.44517809579E+01  0.24539131199E+02  0.00000000000E+00 0.  1.
         12    1    4    4    0    0 -0.19372333486E+02 -0.29701283711E+02  0.10337280950E+03  0.10928582388E+03  0.00000000000E+00 0. -1.
         -5    1    5    5    0  502  0.21263113960E+02  0.48663365618E+02  0.23704695001E+03  0.24296828944E+03  0.47000000000E+01 0.  1.
         13    1    6    6    0    0  0.73416982412E+01 -0.37023281740E+02  0.66829013005E+03  0.66935515375E+03  0.00000000000E+00 0. -1.
        -14    1    6    6    0    0 -0.44788735228E+01 -0.54233225448E+02  0.19229514262E+03  0.19984675360E+03  0.00000000000E+00 0.  1.
</event>
<event>
12    1  0.8356052E-002  0.2369280E+03  0.7818608E-02  0.1122078E+00
         21   -1    0    0  503  502  0.00000000000E+00  0.00000000000E+00  0.14764057853E+03  0.14764057853E+03  0.00000000000E+00 0.  1.
         21   -1    0    0  501  503 -0.00000000000E+00 -0.00000000000E+00 -0.73920493390E+03  0.73920493390E+03  0.00000000000E+00 0.  1.
          6    2    1    2  501    0 -0.15442302885E+03  0.46360515446E+02 -0.60611463968E+03  0.65077631387E+03  0.17360612036E+03 0.  0.
         24    2    3    3    0    0 -0.13578055328E+03  0.47350235994E+02 -0.60913434360E+03  0.63128965038E+03  0.82483759757E+02 0.  0.
         -6    2    1    2    0  502  0.15442302885E+03 -0.46360515446E+02  0.14550284308E+02  0.23606919855E+03  0.17181730559E+03 0.  0.
        -24    2    5    5    0    0  0.15075907392E+03 -0.34663656510E+01 -0.30121919405E+02  0.17385160910E+03  0.81097089337E+02 0.  0.
          5    1    3    3  501    0 -0.18642475575E+02 -0.98972054792E+00  0.30197039188E+01  0.19486663493E+02  0.47000000000E+01 0. -1.
        -13    1    4    4    0    0 -0.92453700441E+02  0.58641730617E+02 -0.30875132738E+03  0.32758803619E+03  0.00000000000E+00 0.  1.
         14    1    4    4    0    0 -0.43326852837E+02 -0.11291494622E+02 -0.30038301622E+03  0.30370161419E+03  0.00000000000E+00 0. -1.
         -5    1    5    5    0  502  0.36639549322E+01 -0.42894149795E+02  0.44672203713E+02  0.62217589450E+02  0.47000000000E+01 0.  1.
         11    1    6    6    0    0  0.20910535237E+02  0.22949500640E+02 -0.27253930440E+02  0.41312307947E+02  0.00000000000E+00 0. -1.
        -12    1    6    6    0    0  0.12984853868E+03 -0.26415866291E+02 -0.28679889653E+01  0.13253930116E+03  0.00000000000E+00 0.  1.
</event>
<event>
12    1  0.8356052E-002  0.1948201E+03  0.7818608E-02  0.1155633E+00
         21   -1    0    0  503  502  0.00000000000E+00  0.00000000000E+00  0.10216002400E+03  0.10216002400E+03  0.00000000000E+00 0. -1.
         21   -1    0    0  501  503 -0.00000000000E+00 -0.00000000000E+00 -0.35962705164E+03  0.35962705164E+03  0.00000000000E+00 0. -1.
          6    2    1    2  501    0  0.57215034373E+02  0.49741759953E+02 -0.11857618992E+03  0.22252666873E+03  0.17236589755E+03 0.  0.
         24    2    3    3    0    0  0.10392551236E+02  0.38131754935E+02 -0.14321429761E+03  0.16815513671E+03  0.78764072442E+02 0.  0.
         -6    2    1    2    0  502 -0.57215034373E+02 -0.49741759953E+02 -0.13889083772E+03  0.23926040691E+03  0.17946329616E+03 0.  0.
        -24    2    5    5    0    0 -0.75496615063E+00  0.14081028424E+02 -0.13184430865E+03  0.15362845498E+03  0.77588240855E+02 0.  0.
          5    1    3    3  501    0  0.46822483137E+02  0.11610005018E+02  0.24638107684E+02  0.54371532017E+02  0.47000000000E+01 0. -1.
        -13    1    4    4    0    0 -0.33695815303E+02  0.10945247144E+02 -0.70208960214E+02  0.78641620649E+02  0.00000000000E+00 0.  1.
         14    1    4    4    0    0  0.44088366538E+02  0.27186507792E+02 -0.73005337391E+02  0.89513516061E+02  0.00000000000E+00 0. -1.
         -5    1    5    5    0  502 -0.56460068222E+02 -0.63822788377E+02 -0.70465290726E+01  0.85631951933E+02  0.47000000000E+01 0.  1.
         11    1    6    6    0    0  0.16051436575E+02 -0.28704041165E+02 -0.54184899586E+02  0.63384335119E+02  0.00000000000E+00 0. -1.
        -12    1    6    6    0    0 -0.16806402725E+02  0.42785069589E+02 -0.77659409065E+02  0.90244119856E+02  0.00000000000E+00 0.  1.
</event>
<event>
12    1  0.8356052E-002  0.1858940E+03  0.7818608E-02  0.1162590E+00
         21   -1    0    0  501  502  0.00000000000E+00  0.00000000000E+00  0.68742206729E+03  0.68742206729E+03  0.00000000000E+00 0. -1.
         21   -1    0    0  502  503 -0.00000000000E+00 -0.00000000000E+00 -0.76910451179E+02  0.76910451179E+02  0.00000000000E+00 0. -1.
         -6    2    1    2    0  503 -0.21582056886E+02  0.59037664727E+02  0.79377058374E+02  0.20213189095E+03  0.17494385644E+03 0.  0.
        -24    2    3    3    0    0 -0.48496867648E+02  0.11261829394E+02  0.10562085382E+03  0.14115841902E+03  0.79316830019E+02 0.  0.
          6    2    1    2  501    0  0.21582056886E+02 -0.59037664727E+02  0.53113455774E+03  0.56220062752E+03  0.17324663380E+03 0.  0.
         24    2    5    5    0    0 -0.48673592331E+02 -0.13085202112E+02  0.35034839398E+03  0.36281855191E+03  0.79705478750E+02 0.  0.
          5    1    5    5  501    0  0.70255649217E+02 -0.45952462615E+02  0.18078616376E+03  0.19938207561E+03  0.47000000000E+01 0. -1.
        -11    1    6    6    0    0 -0.31450856375E+02 -0.46349503048E+02  0.18574592865E+03  0.19400768750E+03  0.00000000000E+00 0.  1.
         12    1    6    6    0    0 -0.17222735956E+02  0.33264300936E+02  0.16460246533E+03  0.16881086441E+03  0.00000000000E+00 0. -1.
         -5    1    3    3    0  503  0.26914810762E+02  0.47775835333E+02 -0.26243795448E+02  0.60973471933E+02  0.47000000000E+01 0.  1.
         13    1    4    4    0    0 -0.46352735945E+02  0.36369997142E+02  0.40949892599E+02  0.71751282397E+02  0.00000000000E+00 0. -1.
        -14    1    4    4    0    0 -0.21441317035E+01 -0.25108167747E+02  0.64670961222E+02  0.69407136620E+02  0.00000000000E+00 0.  1.
</event>
<event>
12    1  0.8356052E-002  0.2161631E+03  0.7818608E-02  0.1137018E+00
         21   -1    0    0  503  502  0.00000000000E+00  0.00000000000E+00  0.28487246525E+03  0.28487246525E+03  0.00000000000E+00 0.  1.
         21   -1    0    0  501  503 -0.00000000000E+00 -0.00000000000E+00 -0.19242328412E+03  0.19242328412E+03  0.00000000000E+00 0. -1.
          6    2    1    2  501    0  0.10507677715E+03 -0.78064313479E+02 -0.47101771326E+02  0.22000025423E+03  0.17042995295E+03 0.  0.
         24    2    3    3    0    0  0.10872115811E+03 -0.54210567730E+00 -0.46603957414E+02  0.14224864953E+03  0.79007375269E+02 0.  0.
         -6    2    1    2    0  502 -0.10507677715E+03  0.78064313479E+02  0.13955095245E+03  0.25729549514E+03  0.17202132819E+03 0.  0.
        -24    2    5    5    0    0 -0.31423524649E+02 -0.15163477629E+02  0.23174011867E+02  0.90916695591E+02  0.80693505042E+02 0.  0.
          5    1    3    3  501    0 -0.36443809565E+01 -0.77522207802E+02 -0.49781391267E+00  0.77751604702E+02  0.47000000000E+01 0. -1.
        -11    1    4    4    0    0 -0.18190410709E+01 -0.10639519266E+02  0.12482105357E+02  0.16501855495E+02  0.00000000000E+00 0.  1.
         12    1    4    4    0    0  0.11054019918E+03  0.10097413589E+02 -0.59086062771E+02  0.12574679404E+03  0.00000000000E+00 0. -1.
         -5    1    5    5    0  502 -0.73653252505E+02  0.93227791108E+02  0.11637694059E+03  0.16637879955E+03  0.47000000000E+01 0.  1.
         13    1    6    6    0    0 -0.42767208606E+02 -0.41085949130E+02  0.12074547625E+02  0.60521765078E+02  0.00000000000E+00 0. -1.
        -14    1    6    6    0    0  0.11343683957E+02  0.25922471501E+02  0.11099464242E+02  0.30394930513E+02  0.00000000000E+00 0.  1.
</event>
<event>
12    1  0.8356052E-002  0.2307296E+03  0.7818608E-02  0.1126374E+00
         21   -1    0    0  501  502  0.00000000000E+00  0.00000000000E+00  0.45045064785E+03  0.45045064785E+03  0.00000000000E+00 0. -1.
         21   -1    0    0  502  503 -0.00000000000E+00 -0.00000000000E+00 -0.22473679975E+03  0.22473679975E+03  0.00000000000E+00 0.  1.
         -6    2    1    2    0  503 -0.13996088551E+03 -0.60492292476E+02 -0.12055858885E+03  0.25908560050E+03  0.17129684211E+03 0.  0.
        -24    2    3    3    0    0 -0.86186221629E+02  0.22308125343E+02 -0.25339707430E+02  0.12184002116E+03  0.79228610551E+02 0.  0.
          6    2    1    2  501    0  0.13996088551E+03  0.60492292476E+02  0.34627243695E+03  0.41610184710E+03  0.17316980003E+03 0.  0.
         24    2    5    5    0    0  0.13231757788E+03  0.10353296569E+03  0.29425129126E+03  0.34799010581E+03  0.79286032375E+02 0.  0.
          5    1    5    5  501    0  0.76433076334E+01 -0.43040673217E+02  0.52021145692E+02  0.68111741290E+02  0.47000000000E+01 0. -1.
        -11    1    6    6    0    0  0.24353197579E+02  0.48858737819E+02  0.44380264984E+02  0.70355258607E+02  0.00000000000E+00 0.  1.
         12    1    6    6    0    0  0.10796438030E+03  0.54674227874E+02  0.24987102628E+03  0.27763484720E+03  0.00000000000E+00 0. -1.
         -5    1    3    3    0  503 -0.53774663881E+02 -0.82800417819E+02 -0.95218881423E+02  0.13724557933E+03  0.47000000000E+01 0.  1.
         13    1    4    4    0    0 -0.38299712282E+02 -0.27273802970E+01  0.26741406795E+02  0.46791125243E+02  0.00000000000E+00 0. -1.
        -14    1    4    4    0    0 -0.47886509347E+02  0.25035505640E+02 -0.52081114225E+02  0.75048895921E+02  0.00000000000E+00 0.  1.
</event>
<event>
12    1  0.8356052E-002  0.1994691E+03  0.7818608E-02  0.1150382E+00
         21   -1    0    0  501  502  0.00000000000E+00  0.00000000000E+00  0.29891864847E+03  0.29891864847E+03  0.00000000000E+00 0. -1.
         21   -1    0    0  502  503 -0.00000000000E+00 -0.00000000000E+00 -0.16403596159E+03  0.16403596159E+03  0.00000000000E+00 0.  1.
         -6    2    1    2    0  503 -0.85183181785E+02  0.48605102914E+02 -0.33935992693E+02  0.20233529007E+03  0.17369308426E+03 0.  0.
        -24    2    3    3    0    0 -0.12229630227E+03  0.59372249754E+02 -0.85145834128E+01  0.15584170758E+03  0.75714530321E+02 0.  0.
          6    2    1    2  501    0  0.85183181785E+02 -0.48605102914E+02  0.16881867958E+03  0.26061931999E+03  0.17263850349E+03 0.  0.
         24    2    5    5    0    0  0.10855561906E+03 -0.80541977170E+02  0.14460076394E+03  0.21398422377E+03  0.81292893758E+02 0.  0.
          5    1    5    5  501    0 -0.23372437273E+02  0.31936874256E+02  0.24217915634E+02  0.46635096215E+02  0.47000000000E+01 0. -1.
        -11    1    6    6    0    0 -0.15670393007E+01 -0.13686432567E+02 -0.66566841075E+01  0.15299852675E+02  0.00000000000E+00 0.  1.
         12    1    6    6    0    0  0.11012265836E+03 -0.66855544604E+02  0.15125744805E+03  0.19868437110E+03  0.00000000000E+00 0. -1.
         -5    1    3    3    0  503  0.37113120481E+02 -0.10767146840E+02 -0.25421409281E+02  0.46493582490E+02  0.47000000000E+01 0.  1.
         13    1    4    4    0    0 -0.62936685555E+02  0.66965912482E+02  0.11779182268E+02  0.92651006244E+02  0.00000000000E+00 0. -1.
        -14    1    4    4    0    0 -0.59359616712E+02 -0.75936627279E+01 -0.20293765680E+02  0.63190701335E+02  0.00000000000E+00 0.  1.
</event>
<event>
12    1  0.8356052E-002  0.1835937E+03  0.7818608E-02  0.1164545E+00
         21   -1    0    0  503  502  0.00000000000E+00  0.00000000000E+00  0.24133989560E+03  0.24133989560E+03  0.00000000000E+00 0.  1.
         21   -1    0    0  501  503 -0.00000000000E+00 -0.00000000000E+00 -0.23947795908E+03  0.23947795908E+03  0.00000000000E+00 0.  1.
          6    2    1    2  501    0 -0.55675271734E+02 -0.27971493241E+02  0.15657669756E+03  0.24129420166E+03  0.17269768156E+03 0.  0.
         24    2    3    3    0    0  0.20691182357E+02 -0.39212494923E+02  0.33184691013E+02  0.95671838301E+02  0.78013666372E+02 0.  0.
         -6    2    1    2    0  502  0.55675271734E+02  0.27971493241E+02 -0.15471476103E+03  0.23952365302E+03  0.17190922825E+03 0.  0.
        -24    2    5    5    0    0  0.66234762372E+02 -0.21329461195E+02 -0.15792647079E+03  0.18878420062E+03  0.76529174590E+02 0.  0.
          5    1    3    3  501    0 -0.76366454091E+02  0.11241001683E+02  0.12339200655E+03  0.14562236335E+03  0.47000000000E+01 0. -1.
        -11    1    4    4    0    0 -0.27493327011E+01 -0.47529852897E+02  0.47268193412E+02  0.67088954793E+02  0.00000000000E+00 0.  1.
         12    1    4    4    0    0  0.23440515058E+02  0.83173579738E+01 -0.14083502399E+02  0.28582883509E+02  0.00000000000E+00 0. -1.
         -5    1    5    5    0  502 -0.10559490638E+02  0.49300954436E+02  0.32117097606E+01  0.50739452406E+02  0.47000000000E+01 0.  1.
         13    1    6    6    0    0  0.45479632138E+01 -0.12875790616E+02  0.48616965546E+01  0.14495035246E+02  0.00000000000E+00 0. -1.
        -14    1    6    6    0    0  0.61686799158E+02 -0.84536705791E+01 -0.16278816735E+03  0.17428916537E+03  0.00000000000E+00 0.  1.
</event>
<event>
12    1  0.8356052E-002  0.1770059E+03  0.7818608E-02  0.1171772E+00
         21   -1    0    0  501  502  0.00000000000E+00  0.00000000000E+00  0.14422613228E+03  0.14422613228E+03  0.00000000000E+00 0. -1.
         21   -1    0    0  502  503 -0.00000000000E+00 -0.00000000000E+00 -0.22520024097E+03  0.22520024097E+03  0.00000000000E+00 0. -1.
         -6    2    1    2    0  503  0.34671590163E+02  0.57128565109E+01 -0.84460616647E+02  0.19238613869E+03  0.16924560468E+03 0.  0.
        -24    2    3    3    0    0 -0.35910218375E+02  0.21933566667E+02 -0.14673645156E+02  0.91702403539E+02  0.80146053067E+02 0.  0.
          6    2    1    2  501    0 -0.34671590163E+02 -0.57128565109E+01  0.34865079622E+01  0.17704023456E+03  0.17348294735E+03 0.  0.
         24    2    5    5    0    0  0.38317035735E+02 -0.29944769266E+02 -0.21313249231E+02  0.96098014038E+02  0.80097997948E+02 0.  0.
          5    1    5    5  501    0 -0.72988625898E+02  0.24231912755E+02  0.24799757194E+02  0.80942220523E+02  0.47000000000E+01 0. -1.
        -11    1    6    6    0    0 -0.22500384141E+02 -0.22918778544E+02 -0.33310136856E+01  0.32289833518E+02  0.00000000000E+00 0.  1.
         12    1    6    6    0    0  0.60817419877E+02 -0.70259907222E+01 -0.17982235546E+02  0.63808180520E+02  0.00000000000E+00 0. -1.
         -5    1    3    3    0  503  0.70581808538E+02 -0.16220710156E+02 -0.69786971491E+02  0.10068373515E+03  0.47000000000E+01 0.  1.
         11    1    4    4    0    0 -0.11695872100E+02  0.58186180696E+01 -0.46668540847E+02  0.48462381753E+02  0.00000000000E+00 0. -1.
        -12    1    4    4    0    0 -0.24214346275E+02  0.16114948597E+02  0.31994895691E+02  0.43240021786E+02  0.00000000000E+00 0.  1.
</event>
<event>
12    1  0.8356052E-002  0.2962469E+03  0.7818608E-02  0.1087137E+00
         21   -1    0    0  503  502  0.00000000000E+00  0.00000000000E+00  0.56242343961E+03  0.56242343961E+03  0.00000000000E+00 0.  1.
         21   -1    0    0  501  503 -0.00000000000E+00 -0.00000000000E+00 -0.21810703136E+03  0.21810703136E+03  0.00000000000E+00 0. -1.
          6    2    1    2  501    0  0.28008070017E+02  0.23921040453E+03 -0.36050101296E+02  0.29843230752E+03  0.17249974710E+03 0.  0.
         24    2    3    3    0    0 -0.36576785919E+02  0.65752095105E+02  0.49556192708E+01  0.10879436869E+03  0.78424850769E+02 0.  0.
         -6    2    1    2    0  502 -0.28008070017E+02 -0.23921040453E+03  0.38036650955E+03  0.48209816345E+03  0.17243517043E+03 0.  0.
        -24    2    5    5    0    0  0.27459468113E+02 -0.13998838919E+03  0.13682126786E+03  0.21328962404E+03  0.80135091478E+02 0.  0.
          5    1    3    3  501    0  0.64584855936E+02  0.17345830942E+03 -0.41005720567E+02  0.18963793883E+03  0.47000000000E+01 0. -1.
        -11    1    4    4    0    0  0.49644561539E+01  0.32283416221E+02  0.34750636833E+02  0.47691420068E+02  0.00000000000E+00 0.  1.
         12    1    4    4    0    0 -0.41541242073E+02  0.33468678884E+02 -0.29795017562E+02  0.61102948625E+02  0.00000000000E+00 0. -1.
         -5    1    5    5    0  502 -0.55467538130E+02 -0.99222015337E+02  0.24354524169E+03  0.26880853942E+03  0.47000000000E+01 0.  1.
         11    1    6    6    0    0 -0.55849723312E+00 -0.61246797543E+02  0.10984899367E+02  0.62226603174E+02  0.00000000000E+00 0. -1.
        -12    1    6    6    0    0  0.28017965347E+02 -0.78741591646E+02  0.12583636849E+03  0.15106302086E+03  0.00000000000E+00 0.  1.
</event>
<event>
12    1  0.8356052E-002  0.2256274E+03  0.7818608E-02  0.1131270E+00
         21   -1    0    0  501  502  0.00000000000E+00  0.00000000000E+00  0.59397953600E+03  0.59397953600E+03  0.00000000000E+00 0.  1.
         21   -1    0    0  502  503 -0.00000000000E+00 -0.00000000000E+00 -0.95816788971E+02  0.95816788971E+02  0.00000000000E+00 0. -1.
         -6    2    1    2    0  503  0.60392150507E+02 -0.11045092466E+03  0.38109751321E+03  0.44288037435E+03  0.18724607556E+03 0.  0.
        -24    2    3    3    0    0  0.86070977791E+02 -0.11797179209E+02  0.15453136527E+03  0.19439240070E+03  0.79756353607E+02 0.  0.
          6    2    1    2  501    0 -0.60392150507E+02  0.11045092466E+03  0.11706523382E+03  0.24691595062E+03  0.17724728234E+03 0.  0.
         24    2    5    5    0    0 -0.81706571285E+02  0.42012703756E+02  0.11633730267E+03  0.17507783749E+03  0.93149611490E+02 0.  0.
          5    1    5    5  501    0  0.21314420778E+02  0.68438220905E+02  0.72793115472E+00  0.71838113126E+02  0.47000000000E+01 0. -1.
        -11    1    6    6    0    0 -0.90802249281E+02  0.53160066563E+02  0.69548711976E+02  0.12612717585E+03  0.00000000000E+00 0.  1.
         12    1    6    6    0    0  0.90956779964E+01 -0.11147362807E+02  0.46788590692E+02  0.48950661637E+02  0.00000000000E+00 0. -1.
         -5    1    3    3    0  503 -0.25678827284E+02 -0.98653745452E+02  0.22656614793E+03  0.24848797366E+03  0.47000000000E+01 0.  1.
         11    1    4    4    0    0  0.44389907494E+02 -0.43359514138E+02  0.59724978396E+02  0.86125399262E+02  0.00000000000E+00 0. -1.
        -12    1    4    4    0    0  0.41681070296E+02  0.31562334929E+02  0.94806386878E+02  0.10826700144E+03  0.00000000000E+00 0.  1.
</event>
<event>
12    1  0.8356052E-002  0.2058570E+03  0.7818608E-02  0.1145032E+00
         21   -1    0    0  503  502  0.00000000000E+00  0.00000000000E+00  0.14802411887E+04  0.14802411887E+04  0.00000000000E+00 0. -1.
         21   -1    0    0  501  503 -0.00000000000E+00 -0.00000000000E+00 -0.47396922850E+02  0.47396922850E+02  0.00000000000E+00 0. -1.
          6    2    1    2  501    0  0.10374199424E+03  0.42243884642E+02  0.23379685002E+03  0.31104787128E+03  0.17188037699E+03 0.  0.
         24    2    3    3    0    0  0.64377836072E+01 -0.23374535121E+02  0.11904610079E+03  0.14684156548E+03  0.82478223114E+02 0.  0.
         -6    2    1    2    0  502 -0.10374199424E+03 -0.42243884642E+02  0.11990474158E+04  0.12165902402E+04  0.17271409944E+03 0.  0.
        -24    2    5    5    0    0 -0.13388953031E+03 -0.41944969444E+02  0.11243597780E+04  0.11359100287E+04  0.80130495441E+02 0.  0.
          5    1    3    3  501    0  0.97304210628E+02  0.65618419764E+02  0.11475074923E+03  0.16420630581E+03  0.47000000000E+01 0. -1.
        -11    1    4    4    0    0 -0.21419845936E+02  0.19780817564E+02  0.20276290894E+02  0.35513638449E+02  0.00000000000E+00 0.  1.
         12    1    4    4    0    0  0.27857629544E+02 -0.43155352685E+02  0.98769809900E+02  0.11132792703E+03  0.00000000000E+00 0. -1.
         -5    1    5    5    0  502  0.30147536076E+02 -0.29891519879E+00  0.74687637843E+02  0.80680211504E+02  0.47000000000E+01 0.  1.
         11    1    6    6    0    0 -0.61271796478E+02 -0.57129815825E+02  0.71401777867E+03  0.71891545897E+03  0.00000000000E+00 0. -1.
        -12    1    6    6    0    0 -0.72617733833E+02  0.15184846382E+02  0.41034199930E+03  0.41699456977E+03  0.00000000000E+00 0.  1.
</event>
<event>
12    1  0.8356052E-002  0.1877679E+03  0.7818608E-02  0.1161217E+00
         21   -1    0    0  503  502  0.00000000000E+00  0.00000000000E+00  0.96745240618E+02  0.96745240618E+02  0.00000000000E+00 0.  1.
         21   -1    0    0  501  503 -0.00000000000E+00 -0.00000000000E+00 -0.37082263607E+03  0.37082263607E+03  0.00000000000E+00 0.  1.
          6    2    1    2  501    0  0.46116657728E+02  0.47597518538E+02 -0.17879466804E+03  0.25700771920E+03  0.17231704650E+03 0.  0.
         24    2    3    3    0    0 -0.32453628564E+02  0.51889408273E+02 -0.14831387405E+03  0.17249216437E+03  0.63330820577E+02 0.  0.
         -6    2    1    2    0  502 -0.46116657728E+02 -0.47597518538E+02 -0.95282727414E+02  0.21056015749E+03  0.17568298691E+03 0.  0.
        -24    2    5    5    0    0 -0.51089906260E+02  0.35054565594E+02 -0.66871098461E+02  0.12289368231E+03  0.82414272130E+02 0.  0.
          5    1    3    3  501    0  0.78570286292E+02 -0.42918897346E+01 -0.30480793993E+02  0.84515554828E+02  0.47000000000E+01 0. -1.
        -13    1    4    4    0    0 -0.30318789627E+02  0.35396398359E+02 -0.35834131416E+02  0.58789616392E+02  0.00000000000E+00 0.  1.
         14    1    4    4    0    0 -0.21348389370E+01  0.16493009914E+02 -0.11247974263E+03  0.11370254798E+03  0.00000000000E+00 0. -1.
         -5    1    5    5    0  502  0.49732485314E+01 -0.82652084132E+02 -0.28411628953E+02  0.87666475189E+02  0.47000000000E+01 0.  1.
         13    1    6    6    0    0 -0.45340644455E+02  0.36065616052E+02 -0.22181943407E+01  0.57977780976E+02  0.00000000000E+00 0. -1.
        -14    1    6    6    0    0 -0.57492618050E+01 -0.10110504580E+01 -0.64652904120E+02  0.64915901330E+02  0.00000000000E+00 0.  1.
</event>
<event>
12    1  0.8356052E-002  0.2076336E+03  0.7818608E-02  0.1143473E+00
         21   -1    0    0  501  502  0.00000000000E+00  0.00000000000E+00  0.73107261717E+02  0.73107261717E+02  0.00000000000E+00 0.  1.
         21   -1    0    0  502  503 -0.00000000000E+00 -0.00000000000E+00 -0.62003989602E+03  0.62003989602E+03  0.00000000000E+00 0. -1.
         -6    2    1    2    0  503 -0.22368502633E+02  0.11310792479E+03 -0.19651808428E+03  0.28588642939E+03  0.17267872047E+03 0.  0.
        -24    2    3    3    0    0  0.42908166560E+02  0.24348465301E+02 -0.11714633857E+03  0.15001424973E+03  0.79668387469E+02 0.  0.
          6    2    1    2  501    0  0.22368502633E+02 -0.11310792479E+03 -0.35041455003E+03  0.40726072834E+03  0.17256068909E+03 0.  0.
         24    2    5    5    0    0  0.57632052105E+01 -0.78717764982E-01 -0.22115611489E+03  0.23468850985E+03  0.78329105500E+02 0.  0.
          5    1    5    5  501    0  0.16605297422E+02 -0.11302920703E+03 -0.12925843513E+03  0.17257221850E+03  0.47000000000E+01 0. -1.
        -11    1    6    6    0    0  0.18294618355E+02  0.35941218090E+02 -0.11874801500E+03  0.12540955022E+03  0.00000000000E+00 0.  1.
         12    1    6    6    0    0 -0.12531413145E+02 -0.36019935855E+02 -0.10240809989E+03  0.10927895963E+03  0.00000000000E+00 0. -1.
         -5    1    3    3    0  503 -0.65276669193E+02  0.88759459490E+02 -0.79371745702E+02  0.13587217966E+03  0.47000000000E+01 0.  1.
         11    1    4    4    0    0 -0.12416838646E+02  0.21120384566E+02 -0.79061101518E+02  0.82770201761E+02  0.00000000000E+00 0. -1.
        -12    1    4    4    0    0  0.55325005206E+02  0.32280807344E+01 -0.38085237055E+02  0.67244047973E+02  0.00000000000E+00 0.  1.
</event>
<event>
12    1  0.8356052E-002  0.2264290E+03  0.7818608E-02  0.1129579E+00
         21   -1    0    0  503  502  0.00000000000E+00  0.00000000000E+00  0.10241892531E+03  0.10241892531E+03  0.00000000000E+00 0.  1.
         21   -1    0    0  501  503 -0.00000000000E+00 -0.00000000000E+00 -0.66515847360E+03  0.66515847360E+03  0.00000000000E+00 0. -1.
          6    2    1    2  501    0  0.14050005307E+03  0.30047620719E+02 -0.47611356490E+03  0.52721363099E+03  0.17500560447E+03 0.  0.
         24    2    3    3    0    0  0.33949703874E+02  0.23876326252E+02 -0.93295142316E+02  0.12976791588E+03  0.80081627501E+02 0.  0.
         -6    2    1    2    0  502 -0.14050005307E+03 -0.30047620719E+02 -0.86625983392E+02  0.24036376792E+03  0.17212656828E+03 0.  0.
        -24    2    5    5    0    0 -0.13765099441E+02  0.30373072358E+02 -0.36530689377E+02  0.91219418031E+02  0.76645218197E+02 0.  0.
          5    1    3    3  501    0  0.10655034919E+03  0.61712944667E+01 -0.38281842258E+03  0.39744571511E+03  0.47000000000E+01 0. -1.
        -11    1    4    4    0    0 -0.90341178367E+01 -0.13176272095E+02  0.45897985415E+01  0.16622144328E+02  0.00000000000E+00 0.  1.
         12    1    4    4    0    0  0.42983821711E+02  0.37052598347E+02 -0.97884940857E+02  0.11314577155E+03  0.00000000000E+00 0. -1.
         -5    1    5    5    0  502 -0.12673495363E+03 -0.60420693076E+02 -0.50095294015E+02  0.14914434989E+03  0.47000000000E+01 0.  1.
         11    1    6    6    0    0 -0.32888253256E+02  0.29296084309E+02 -0.50873842397E+02  0.67290754181E+02  0.00000000000E+00 0. -1.
        -12    1    6    6    0    0  0.19123153815E+02  0.10769880483E+01  0.14343153020E+02  0.23928663850E+02  0.00000000000E+00 0.  1.
</event>
<event>
12    1  0.8356052E-002  0.1758183E+03  0.7818608E-02  0.1172064E+00
         21   -1    0    0  501  502  0.00000000000E+00  0.00000000000E+00  0.14678241786E+02  0.14678241786E+02  0.00000000000E+00 0.  1.
         21   -1    0    0  502  503 -0.00000000000E+00 -0.00000000000E+00 -0.28151113785E+04  0.28151113785E+04  0.00000000000E+00 0.  1.
         -6    2    1    2    0  503  0.32784436529E+02 -0.76667216214E+01 -0.21121637144E+04  0.21194186851E+04  0.17194885440E+03 0.  0.
        -24    2    3    3    0    0  0.31911849797E+01 -0.27429648614E+02 -0.50455804045E+03  0.51141233354E+03  0.78747631263E+02 0.  0.
          6    2    1    2  501    0 -0.32784436529E+02  0.76667216214E+01 -0.68826942239E+03  0.71037093523E+03  0.17256439358E+03 0.  0.
         24    2    5    5    0    0  0.33003766585E+02  0.49886991824E+02 -0.38066971006E+03  0.39295903894E+03  0.77002711414E+02 0.  0.
          5    1    5    5  501    0 -0.65788203114E+02 -0.42220270203E+02 -0.30759971233E+03  0.31741189629E+03  0.47000000000E+01 0. -1.
        -13    1    6    6    0    0 -0.18504830841E+02  0.36469022951E+02 -0.11620305045E+03  0.12318915266E+03  0.00000000000E+00 0.  1.
         14    1    6    6    0    0  0.51508597427E+02  0.13417968873E+02 -0.26446665961E+03  0.26976988628E+03  0.00000000000E+00 0. -1.
         -5    1    3    3    0  503  0.29593251549E+02  0.19762926992E+02 -0.16076056739E+04  0.16080063515E+04  0.47000000000E+01 0.  1.
         11    1    4    4    0    0 -0.36463287744E+02 -0.11924232774E+02 -0.17778698807E+03  0.18187900321E+03  0.00000000000E+00 0. -1.
        -12    1    4    4    0    0  0.39654472724E+02 -0.15505415840E+02 -0.32677105238E+03  0.32953333033E+03  0.00000000000E+00 0.  1.
</event>
<event>
12    1  0.8356052E-002  0.2056493E+03  0.7818608E-02  0.1146096E+00
         21   -1    0    0  501  502  0.00000000000E+00  0.00000000000E+00  0.87200820288E+03  0.87200820288E+03  0.00000000000E+00 0. -1.
         21   -1    0    0  502  503 -0.00000000000E+00 -0.00000000000E+00 -0.47444355956E+02  0.47444355956E+02  0.00000000000E+00 0.  1.
         -6    2    1    2    0  503 -0.52718007762E+02  0.99806178906E+02  0.38354227372E+03  0.43284010376E+03  0.16584757461E+03 0.  0.
        -24    2    3    3    0    0 -0.44822293762E+02  0.15531232433E+02  0.86085984608E+02  0.12353937173E+03  0.74839310682E+02 0.  0.
          6    2    1    2  501    0  0.52718007762E+02 -0.99806178906E+02  0.44102157321E+03  0.48661245508E+03  0.17190460061E+03 0.  0.
         24    2    5    5    0    0  0.50269186231E+02 -0.13406596518E+03  0.29220383843E+03  0.33381017150E+03  0.74467934688E+02 0.  0.
          5    1    5    5  501    0  0.24488215304E+01  0.34259786277E+02  0.14881773478E+03  0.15280228358E+03  0.47000000000E+01 0. -1.
        -13    1    6    6    0    0  0.47266982872E+01 -0.80719579079E+02  0.96395188537E+02  0.12581742525E+03  0.00000000000E+00 0.  1.
         14    1    6    6    0    0  0.45542487944E+02 -0.53346386104E+02  0.19580864989E+03  0.20799274625E+03  0.00000000000E+00 0. -1.
         -5    1    3    3    0  503 -0.78957140000E+01  0.84274946473E+02  0.29745628911E+03  0.30930073203E+03  0.47000000000E+01 0.  1.
         13    1    4    4    0    0 -0.20673483353E+02  0.77175651175E+01  0.94311197767E+02  0.96858431484E+02  0.00000000000E+00 0. -1.
        -14    1    4    4    0    0 -0.24148810409E+02  0.78136673156E+01 -0.82252131588E+01  0.26680940249E+02  0.00000000000E+00 0.  1.
</event>
<event>
12    1  0.8356052E-002  0.1808661E+03  0.7818608E-02  0.1167526E+00
         21   -1    0    0  501  502  0.00000000000E+00  0.00000000000E+00  0.64351850507E+03  0.64351850507E+03  0.00000000000E+00 0. -1.
         21   -1    0    0  502  503 -0.00000000000E+00 -0.00000000000E+00 -0.50481549583E+02  0.50481549583E+02  0.00000000000E+00 0. -1.
         -6    2    1    2    0  503  0.33809807184E+02 -0.23306894417E+02  0.26812500224E+03  0.32213943800E+03  0.17377136214E+03 0.  0.
        -24    2    3    3    0    0 -0.12048348002E+02 -0.62004718544E+02  0.11766531240E+03  0.16008790220E+03  0.88279458977E+02 0.  0.
          6    2    1    2  501    0 -0.33809807184E+02  0.23306894417E+02  0.32491195325E+03  0.37186061665E+03  0.17614263103E+03 0.  0.
         24    2    5    5    0    0  0.91179946064E+01 -0.44638361221E+02  0.22868854492E+03  0.24639991268E+03  0.79616237508E+02 0.  0.
          5    1    5    5  501    0 -0.42927801791E+02  0.67945255638E+02  0.96223408331E+02  0.12546070397E+03  0.47000000000E+01 0. -1.
        -11    1    6    6    0    0 -0.26296833540E+02  0.86571837546E+01  0.65167164779E+02  0.70804164073E+02  0.00000000000E+00 0.  1.
         12    1    6    6    0    0  0.35414828147E+02 -0.53295544975E+02  0.16352138014E+03  0.17559574861E+03  0.00000000000E+00 0. -1.
         -5    1    3    3    0  503  0.45858155187E+02  0.38697824126E+02  0.15045968984E+03  0.16205153580E+03  0.47000000000E+01 0.  1.
         11    1    4    4    0    0 -0.12283854810E+02 -0.49375105282E+01  0.99240415848E+02  0.10011958968E+03  0.00000000000E+00 0. -1.
        -12    1    4    4    0    0  0.23550680731E+00 -0.57067208015E+02  0.18424896555E+02  0.59968312526E+02  0.00000000000E+00 0.  1.
</event>
<event>
12    1  0.8356052E-002  0.2850918E+03  0.7818608E-02  0.1093156E+00
         21   -1    0    0  501  502  0.00000000000E+00  0.00000000000E+00  0.19765727582E+03  0.19765727582E+03  0.00000000000E+00 0.  1.
         21   -1    0    0  502  503 -0.00000000000E+00 -0.00000000000E+00 -0.43065814288E+03  0.43065814288E+03  0.00000000000E+00 0. -1.
         -6    2    1    2    0  503 -0.43991743918E+01  0.22485876517E+03 -0.18683832854E+03  0.33951041176E+03  0.17256286296E+03 0.  0.
        -24    2    3    3    0    0  0.28631380078E+02  0.14437456305E+03 -0.46067820897E+02  0.17395936180E+03  0.80472635451E+02 0.  0.
          6    2    1    2  501    0  0.43991743918E+01 -0.22485876517E+03 -0.46162538515E+02  0.28880500694E+03  0.17520426668E+03 0.  0.
         24    2    5    5    0    0 -0.46556412708E+02 -0.16720086439E+03 -0.77556957985E+02  0.20556676481E+03  0.78223937806E+02 0.  0.
          5    1    5    5  501    0  0.50955587100E+02 -0.57657900772E+02  0.31394419470E+02  0.83238242124E+02  0.47000000000E+01 0. -1.
        -11    1    6    6    0    0 -0.39104010105E+02 -0.14475087090E+03 -0.93808775328E+02  0.17686725124E+03  0.00000000000E+00 0.  1.
         12    1    6    6    0    0 -0.74524026035E+01 -0.22449993490E+02  0.16251817343E+02  0.28699513571E+02  0.00000000000E+00 0. -1.
         -5    1    3    3    0  503 -0.33030554469E+02  0.80484202120E+02 -0.14077050765E+03  0.16555104996E+03  0.47000000000E+01 0.  1.
         13    1    4    4    0    0  0.28921535181E+02  0.61924788936E+02 -0.59261323825E+02  0.90460152462E+02  0.00000000000E+00 0. -1.
        -14    1    4    4    0    0 -0.29015510343E+00  0.82449774109E+02  0.13193502929E+02  0.83499209339E+02  0.00000000000E+00 0.  1.
</event>
<event>
12    1  0.8356052E-002  0.2037732E+03  0.7818608E-02  0.1146655E+00
         21   -1    0    0  503  502  0.00000000000E+00  0.00000000000E+00  0.27929181079E+03  0.27929181079E+03  0.00000000000E+00 0.  1.
         21   -1    0    0  501  503 -0.00000000000E+00 -0.00000000000E+00 -0.18246993516E+03  0.18246993516E+03  0.00000000000E+00 0.  1.
          6    2    1    2  501    0  0.98021066427E+02 -0.44320912255E+02 -0.51297859468E+02  0.20984316734E+03  0.17271424888E+03 0.  0.
         24    2    3    3    0    0  0.13133892890E+03 -0.18476581044E+02 -0.61235278316E+02  0.16626735170E+03  0.79396313765E+02 0.  0.
         -6    2    1    2    0  502 -0.98021066427E+02  0.44320912255E+02  0.14811973509E+03  0.25191857861E+03  0.17306369231E+03 0.  0.
        -24    2    5    5    0    0 -0.49754914083E+02  0.94440969244E+02  0.89177208680E+02  0.16060618627E+03  0.80293987151E+02 0.  0.
          5    1    3    3  501    0 -0.33317862473E+02 -0.25844331211E+02  0.99374188475E+01  0.43575815642E+02  0.47000000000E+01 0. -1.
        -11    1    4    4    0    0  0.11901237266E+01 -0.21628057053E+02  0.15801268484E+01  0.21718334357E+02  0.00000000000E+00 0.  1.
         12    1    4    4    0    0  0.13014880517E+03  0.31514760094E+01 -0.62815405164E+02  0.14454901734E+03  0.00000000000E+00 0. -1.
         -5    1    5    5    0  502 -0.48266152344E+02 -0.50120056989E+02  0.58942526411E+02  0.91312392338E+02  0.47000000000E+01 0.  1.
         13    1    6    6    0    0 -0.37035309124E+00  0.28183198977E+02 -0.11426644994E+02  0.30413781117E+02  0.00000000000E+00 0. -1.
        -14    1    6    6    0    0 -0.49384560992E+02  0.66257770266E+02  0.10060385367E+03  0.13019240515E+03  0.00000000000E+00 0.  1.
</event>
<event>
12    1  0.8356052E-002  0.2572464E+03  0.7818608E-02  0.1108823E+00
         21   -1    0    0  503  502  0.00000000000E+00  0.00000000000E+00  0.11144286856E+03  0.11144286856E+03  0.00000000000E+00 0. -1.
         21   -1    0    0  501  503 -0.00000000000E+00 -0.00000000000E+00 -0.59364979134E+03  0.59364979134E+03  0.00000000000E+00 0.  1.
          6    2    1    2  501    0  0.61323793466E+02 -0.18081913187E+03 -0.24419412276E+03  0.35462751654E+03  0.17226067399E+03 0.  0.
         24    2    3    3    0    0  0.46584686447E+02 -0.53936790118E+02 -0.18543545178E+03  0.21394688056E+03  0.79420718875E+02 0.  0.
         -6    2    1    2    0  502 -0.61323793466E+02  0.18081913187E+03 -0.23801280002E+03  0.35046514335E+03  0.17239361252E+03 0.  0.
        -24    2    5    5    0    0  0.29599061417E+02  0.12559392978E+03 -0.14028250853E+03  0.20593110459E+03  0.77964722825E+02 0.  0.
          5    1    3    3  501    0  0.14739107019E+02 -0.12688234175E+03 -0.58758670979E+02  0.14068063598E+03  0.47000000000E+01 0. -1.
        -13    1    4    4    0    0  0.69938536373E+01 -0.64855042382E+02 -0.12275508815E+03  0.13901043909E+03  0.00000000000E+00 0.  1.
         14    1    4    4    0    0  0.39590832810E+02  0.10918252264E+02 -0.62680363632E+02  0.74936441469E+02  0.00000000000E+00 0. -1.
         -5    1    5    5    0  502 -0.90922854883E+02  0.55225202089E+02 -0.97730291496E+02  0.14453403876E+03  0.47000000000E+01 0.  1.
         13    1    6    6    0    0  0.36303261754E+02  0.13397074996E+03 -0.12232339054E+03  0.18501108218E+03  0.00000000000E+00 0. -1.
        -14    1    6    6    0    0 -0.67042003370E+01 -0.83768201802E+01 -0.17959117989E+02  0.20920022406E+02  0.00000000000E+00 0.  1.
</event>
<event>
12    1  0.8356052E-002  0.1756886E+03  0.7818608E-02  0.1172670E+00
         21   -1    0    0  501  502  0.00000000000E+00  0.00000000000E+00  0.31289906083E+02  0.31289906083E+02  0.00000000000E+00 0.  1.
         21   -1    0    0  502  503 -0.00000000000E+00 -0.00000000000E+00 -0.23601996560E+04  0.23601996560E+04  0.00000000000E+00 0.  1.
         -6    2    1    2    0  503 -0.31056361087E+02  0.50820736498E+01 -0.20847498313E+04  0.20921396566E+04  0.17284721220E+03 0.  0.
        -24    2    3    3    0    0  0.11358086941E+01 -0.72899285719E+02 -0.10060677847E+04  0.10101533000E+04  0.54052809988E+02 0.  0.
          6    2    1    2  501    0  0.31056361087E+02 -0.50820736498E+01 -0.24415991864E+03  0.29934990546E+03  0.17031140594E+03 0.  0.
         24    2    5    5    0    0  0.45728012627E+02 -0.61914859118E+02 -0.18256633437E+03  0.21413791988E+03  0.81240884831E+02 0.  0.
          5    1    5    5  501    0 -0.14671651540E+02  0.56832785468E+02 -0.61593584273E+02  0.85211985580E+02  0.47000000000E+01 0. -1.
        -13    1    6    6    0    0  0.14184197467E+02  0.11903869188E+02 -0.48652170677E+01  0.19145858470E+02  0.00000000000E+00 0.  1.
         14    1    6    6    0    0  0.31543815160E+02 -0.73818728307E+02 -0.17770111730E+03  0.19499206141E+03  0.00000000000E+00 0. -1.
         -5    1    3    3    0  503 -0.32192169781E+02  0.77981359369E+02 -0.10786820466E+04  0.10819863566E+04  0.47000000000E+01 0.  1.
         11    1    4    4    0    0 -0.19424410006E+02 -0.48862911345E+02 -0.42751686444E+03  0.43073839066E+03  0.00000000000E+00 0. -1.
        -12    1    4    4    0    0  0.20560218700E+02 -0.24036374374E+02 -0.57855092022E+03  0.57941490935E+03  0.00000000000E+00 0.  1.
</event>
<event>
12    1  0.8356052E-002  0.2091355E+03  0.7818608E-02  0.1142467E+00
         21   -1    0    0  501  502  0.00000000000E+00  0.00000000000E+00  0.79819419926E+02  0.79819419926E+02  0.00000000000E+00 0.  1.
         21   -1    0    0  502  503 -0.00000000000E+00 -0.00000000000E+00 -0.69441582558E+03  0.69441582558E+03  0.00000000000E+00 0. -1.
         -6    2    1    2    0  503 -0.52320198332E+02 -0.10609009149E+03 -0.48616028760E+03  0.52881011977E+03  0.17116017898E+03 0.  0.
        -24    2    3    3    0    0  0.35795209724E+02 -0.68615226081E+02 -0.26014756555E+03  0.28330547379E+03  0.81215080644E+02 0.  0.
          6    2    1    2  501    0  0.52320198332E+02  0.10609009149E+03 -0.12843611806E+03  0.24542512574E+03  0.17246780933E+03 0.  0.
         24    2    5    5    0    0  0.76144738307E+02  0.11612038442E+03 -0.57342095350E+02  0.16963155381E+03  0.78770446854E+02 0.  0.
          5    1    5    5  501    0 -0.23824539974E+02 -0.10030292929E+02 -0.71094022708E+02  0.75793571930E+02  0.47000000000E+01 0. -1.
        -13    1    6    6    0    0  0.62125705812E+01 -0.81274952211E+01  0.78137635676E+01  0.12872727484E+02  0.00000000000E+00 0.  1.
         14    1    6    6    0    0  0.69932167726E+02  0.12424787964E+03 -0.65155858917E+02  0.15675882632E+03  0.00000000000E+00 0. -1.
         -5    1    3    3    0  503 -0.88115408056E+02 -0.37474865412E+02 -0.22601272205E+03  0.24550464599E+03  0.47000000000E+01 0.  1.
         11    1    4    4    0    0 -0.18475872062E+02 -0.47618611885E+02 -0.90020218139E+02  0.10350135130E+03  0.00000000000E+00 0. -1.
        -12    1    4    4    0    0  0.54271081786E+02 -0.20996614197E+02 -0.17012734741E+03  0.17980412249E+03  0.00000000000E+00 0.  1.
</event>
<event>
12    1  0.8356052E-002  0.2189358E+03  0.7818608E-02  0.1135065E+00
         21   -1    0    0  503  502  0.00000000000E+00  0.00000000000E+00  0.33325061671E+02  0.33325061671E+02  0.00000000000E+00 0. -1.
         21   -1    0    0  501  503 -0.00000000000E+00 -0.00000000000E+00 -0.14652190620E+04  0.14652190620E+04  0.00000000000E+00 0.  1.
          6    2    1    2  501    0  0.20702268336E+01  0.13015498862E+03 -0.83692302567E+03  0.86456986507E+03  0.17348283428E+03 0.  0.
         24    2    3    3    0    0 -0.28874451192E+02  0.22170585766E+02 -0.54532491573E+03  0.55204826249E+03  0.77799431874E+02 0.  0.
         -6    2    1    2    0  502 -0.20702268336E+01 -0.13015498862E+03 -0.59497097465E+03  0.63397425860E+03  0.17603491978E+03 0.  0.
        -24    2    5    5    0    0  0.59729417456E+02 -0.57221532858E+02 -0.40495896549E+03  0.42121820433E+03  0.81185619363E+02 0.  0.
          5    1    3    3  501    0  0.30944678026E+02  0.10798440285E+03 -0.29159810994E+03  0.31252160258E+03  0.47000000000E+01 0. -1.
        -13    1    4    4    0    0  0.88745284516E+01 -0.11145206602E+02 -0.21393126788E+02  0.25702893985E+02  0.00000000000E+00 0.  1.
         14    1    4    4    0    0 -0.37748979644E+02  0.33315792367E+02 -0.52393178894E+03  0.52634536851E+03  0.00000000000E+00 0. -1.
         -5    1    5    5    0  502 -0.61799644289E+02 -0.72933455758E+02 -0.19001200916E+03  0.21275605427E+03  0.47000000000E+01 0.  1.
         11    1    6    6    0    0  0.39848584287E+02 -0.24447649571E+02 -0.35590994566E+03  0.35896725012E+03  0.00000000000E+00 0. -1.
        -12    1    6    6    0    0  0.19880833168E+02 -0.32773883286E+02 -0.49049019835E+02  0.62250954209E+02  0.00000000000E+00 0.  1.
</event>
<event>
12    1  0.8356052E-002  0.2589918E+03  0.7818608E-02  0.1107809E+00
         21   -1    0    0  503  502  0.00000000000E+00  0.00000000000E+00  0.19616209107E+03  0.19616209107E+03  0.00000000000E+00 0.  1.
         21   -1    0    0  501  503 -0.00000000000E+00 -0.00000000000E+00 -0.43852878040E+03  0.43852878040E+03  0.00000000000E+00 0. -1.
          6    2    1    2  501    0  0.12108479727E+03 -0.15087845867E+03 -0.27058006943E+03  0.37455352767E+03  0.17219446477E+03 0.  0.
         24    2    3    3    0    0  0.75832033213E+02 -0.17625972008E+03 -0.22078401971E+03  0.30248579804E+03  0.77033034949E+02 0.  0.
         -6    2    1    2    0  502 -0.12108479727E+03  0.15087845867E+03  0.28213380096E+02  0.26013734381E+03  0.17160887333E+03 0.  0.
        -24    2    5    5    0    0 -0.54110169915E+02  0.37724931648E+02 -0.41478398517E+02  0.11124692977E+03  0.79399879618E+02 0.  0.
          5    1    3    3  501    0  0.45252764057E+02  0.25381261413E+02 -0.49796049718E+02  0.72067729625E+02  0.47000000000E+01 0. -1.
        -13    1    4    4    0    0  0.78033639521E+02 -0.11841243189E+03 -0.11784564227E+03  0.18438641036E+03  0.00000000000E+00 0.  1.
         14    1    4    4    0    0 -0.22016063078E+01 -0.57847288199E+02 -0.10293837744E+03  0.11809938769E+03  0.00000000000E+00 0. -1.
         -5    1    5    5    0  502 -0.66974627355E+02  0.11315352702E+03  0.69691778614E+02  0.14889041404E+03  0.47000000000E+01 0.  1.
         11    1    6    6    0    0 -0.16446608326E+01  0.21995062799E+02 -0.51080304058E+02  0.55638881724E+02  0.00000000000E+00 0. -1.
        -12    1    6    6    0    0 -0.52465509083E+02  0.15729868849E+02  0.96019055413E+01  0.55608048045E+02  0.00000000000E+00 0.  1.
</event>
<event>
12    1  0.8356052E-002  0.2221319E+03  0.7818608E-02  0.1132342E+00
         21   -1    0    0  503  502  0.00000000000E+00  0.00000000000E+00  0.19138461771E+03  0.19138461771E+03  0.00000000000E+00 0. -1.
         21   -1    0    0  501  503 -0.00000000000E+00 -0.00000000000E+00 -0.37867978466E+03  0.37867978466E+03  0.00000000000E+00 0. -1.
          6    2    1    2  501    0 -0.13598638949E+03 -0.31388911860E+02 -0.25486775813E+03  0.33808303636E+03  0.17281493981E+03 0.  0.
         24    2    3    3    0    0 -0.11962978340E+03  0.34511560750E+02 -0.20885375678E+03  0.25592593579E+03  0.79848982384E+02 0.  0.
         -6    2    1    2    0  502  0.13598638949E+03  0.31388911860E+02  0.67572591179E+02  0.23198136601E+03  0.17254488455E+03 0.  0.
        -24    2    5    5    0    0  0.10063404672E+03 -0.17544628374E+02 -0.15976070569E+02  0.12879828417E+03  0.76803241014E+02 0.  0.
          5    1    3    3  501    0 -0.16356606094E+02 -0.65900472610E+02 -0.46014001347E+02  0.82157100564E+02  0.47000000000E+01 0. -1.
        -13    1    4    4    0    0 -0.27775070095E+02  0.22289676309E+02 -0.12827520022E+03  0.13312704902E+03  0.00000000000E+00 0.  1.
         14    1    4    4    0    0 -0.91854713304E+02  0.12221884441E+02 -0.80578556563E+02  0.12279888678E+03  0.00000000000E+00 0. -1.
         -5    1    5    5    0  502  0.35352342777E+02  0.48933540234E+02  0.83548661748E+02  0.10318308185E+03  0.47000000000E+01 0.  1.
         13    1    6    6    0    0  0.41951040748E+02 -0.42482442128E+02 -0.24368806573E+02  0.64486327565E+02  0.00000000000E+00 0. -1.
        -14    1    6    6    0    0  0.58683005968E+02  0.24937813755E+02  0.83927360040E+01  0.64311956602E+02  0.00000000000E+00 0.  1.
</event>
<event>
12    1  0.8356052E-002  0.1832482E+03  0.7818608E-02  0.1169541E+00
         21   -1    0    0  503  502  0.00000000000E+00  0.00000000000E+00  0.46365256614E+03  0.46365256614E+03  0.00000000000E+00 0.  1.
         21   -1    0    0  501  503 -0.00000000000E+00 -0.00000000000E+00 -0.14495574838E+03  0.14495574838E+03  0.00000000000E+00 0.  1.
          6    2    1    2  501    0  0.61399299453E+02 -0.52934755742E+01 -0.62535242046E+02  0.19362481580E+03  0.17257467352E+03 0.  0.
         24    2    3    3    0    0 -0.16268041720E+02  0.23767558275E+02 -0.70483397836E+02  0.11018607927E+03  0.79646196940E+02 0.  0.
         -6    2    1    2    0  502 -0.61399299453E+02  0.52934755742E+01  0.38123205980E+03  0.41498349872E+03  0.15190630642E+03 0.  0.
        -24    2    5    5    0    0 -0.39263654172E+01 -0.10714835182E+02  0.32072025851E+03  0.32987667023E+03  0.76334194855E+02 0.  0.
          5    1    3    3  501    0  0.77667341173E+02 -0.29061033849E+02  0.79481557901E+01  0.83438736530E+02  0.47000000000E+01 0. -1.
        -11    1    4    4    0    0  0.20670563838E+01  0.51398058663E+02 -0.40308167066E+02  0.65351216428E+02  0.00000000000E+00 0.  1.
         12    1    4    4    0    0 -0.18335098104E+02 -0.27630500389E+02 -0.30175230770E+02  0.44834862844E+02  0.00000000000E+00 0. -1.
         -5    1    5    5    0  502 -0.57472934036E+02  0.16008310757E+02  0.60511801291E+02  0.85106828489E+02  0.47000000000E+01 0.  1.
         11    1    6    6    0    0  0.82063963971E+01 -0.36376283974E+02  0.90039582249E+02  0.97456171427E+02  0.00000000000E+00 0. -1.
        -12    1    6    6    0    0 -0.12132761814E+02  0.25661448791E+02  0.23068067626E+03  0.23242049880E+03  0.00000000000E+00 0.  1.
</event>
<event>
12    1  0.8356052E-002  0.1851871E+03  0.7818608E-02  0.1163582E+00
         21   -1    0    0  501  502  0.00000000000E+00  0.00000000000E+00  0.34835634578E+03  0.34835634578E+03  0.00000000000E+00 0. -1.
         21   -1    0    0  502  503 -0.00000000000E+00 -0.00000000000E+00 -0.11266214099E+03  0.11266214099E+03  0.00000000000E+00 0.  1.
         -6    2    1    2    0  503  0.11339574491E+02 -0.65612690531E+02  0.30675870600E+02  0.18474545077E+03  0.16957671253E+03 0.  0.
        -24    2    3    3    0    0 -0.29211758546E+02 -0.97893938064E+02  0.27381268296E+02  0.13259725849E+03  0.79973427827E+02 0.  0.
          6    2    1    2  501    0 -0.11339574491E+02  0.65612690531E+02  0.20501833419E+03  0.27627303601E+03  0.17280237836E+03 0.  0.
         24    2    5    5    0    0 -0.74972179267E+01  0.38191815699E+02  0.26852703163E+02  0.95907434637E+02  0.83440669271E+02 0.  0.
          5    1    5    5  501    0 -0.38423565639E+01  0.27420874832E+02  0.17816563103E+03  0.18036560138E+03  0.47000000000E+01 0. -1.
        -13    1    6    6    0    0 -0.36723171450E+02  0.57983721696E+01  0.35528042563E+02  0.51424257404E+02  0.00000000000E+00 0.  1.
         14    1    6    6    0    0  0.29225953523E+02  0.32393443529E+02 -0.86753394004E+01  0.44483177233E+02  0.00000000000E+00 0. -1.
         -5    1    3    3    0  503  0.40551333037E+02  0.32281247533E+02  0.32946023041E+01  0.52148192276E+02  0.47000000000E+01 0.  1.
         13    1    4    4    0    0  0.13336752485E+02 -0.62979871847E+02  0.40446685805E+02  0.76028071245E+02  0.00000000000E+00 0. -1.
        -14    1    4    4    0    0 -0.42548511031E+02 -0.34914066217E+02 -0.13065417509E+02  0.56569187244E+02  0.00000000000E+00 0.  1.
</event>
<event>
12    1  0.8356052E-002  0.1836507E+03  0.7818608E-02  0.1164599E+00
         21   -1    0    0  503  502  0.00000000000E+00  0.00000000000E+00  0.16870587469E+04  0.16870587469E+04  0.00000000000E+00 0.  1.
         21   -1    0    0  501  503 -0.00000000000E+00 -0.00000000000E+00 -0.24184863296E+02  0.24184863296E+02  0.00000000000E+00 0.  1.
          6    2    1    2  501    0 -0.58567334705E+02  0.65965731047E+01  0.46746615703E+03  0.50181100717E+03  0.17267319269E+03 0.  0.
         24    2    3    3    0    0 -0.65495499097E+02  0.52777845094E+02  0.21144457058E+03  0.24152298963E+03  0.80928281569E+02 0.  0.
         -6    2    1    2    0  502  0.58567334705E+02 -0.65965731047E+01  0.11954077266E+04  0.12094326030E+04  0.17393660066E+03 0.  0.
        -24    2    5    5    0    0  0.42533205164E+02 -0.50749616618E+02  0.10704173713E+04  0.10758239825E+04  0.84966437295E+02 0.  0.
          5    1    3    3  501    0  0.69281643922E+01 -0.46181271989E+02  0.25602158645E+03  0.26028801754E+03  0.47000000000E+01 0. -1.
        -13    1    4    4    0    0  0.18917731089E+02  0.96705696251E+01  0.29294594675E+02  0.36188033155E+02  0.00000000000E+00 0.  1.
         14    1    4    4    0    0 -0.84413230186E+02  0.43107275469E+02  0.18214997591E+03  0.20533495648E+03  0.00000000000E+00 0. -1.
         -5    1    5    5    0  502  0.16034129541E+02  0.44153043514E+02  0.12499035526E+03  0.13360862049E+03  0.47000000000E+01 0.  1.
         13    1    6    6    0    0 -0.13947784670E+01  0.92607171037E+01  0.14314988577E+02  0.17106290837E+02  0.00000000000E+00 0. -1.
        -14    1    6    6    0    0  0.43927983631E+02 -0.60010333722E+02  0.10561023827E+04  0.10587176917E+04  0.00000000000E+00 0.  1.
</event>
<event>
12    1  0.8356052E-002  0.1925992E+03  0.7818608E-02  0.1156220E+00
         21   -1    0    0  501  502  0.00000000000E+00  0.00000000000E+00  0.45289190533E+03  0.45289190533E+03  0.00000000000E+00 0.  1.
         21   -1    0    0  502  503 -0.00000000000E+00 -0.00000000000E+00 -0.87060192300E+02  0.87060192300E+02  0.00000000000E+00 0.  1.
         -6    2    1    2    0  503 -0.56894463555E+01  0.85364523912E+02  0.24943408659E+03  0.31491239085E+03  0.17214232082E+03 0.  0.
        -24    2    3    3    0    0  0.33405267301E+02 -0.73737639894E+01  0.14325787078E+03  0.16854208826E+03  0.81934935741E+02 0.  0.
          6    2    1    2  501    0  0.56894463555E+01 -0.85364523912E+02  0.11639762644E+03  0.22503970677E+03  0.17255431157E+03 0.  0.
         24    2    5    5    0    0 -0.31599888086E+02 -0.17479623565E+02  0.30682771960E+01  0.87691661437E+02  0.79851881591E+02 0.  0.
          5    1    5    5  501    0  0.37289334441E+02 -0.67884900346E+02  0.11332934924E+03  0.13734804534E+03  0.47000000000E+01 0. -1.
        -11    1    6    6    0    0 -0.40742562908E+02 -0.40465257611E+02  0.16227954498E+02  0.59671936562E+02  0.00000000000E+00 0.  1.
         12    1    6    6    0    0  0.91426748222E+01  0.22985634046E+02 -0.13159677302E+02  0.28019724875E+02  0.00000000000E+00 0. -1.
         -5    1    3    3    0  503 -0.39094713657E+02  0.92738287901E+02  0.10617621581E+03  0.14637030260E+03  0.47000000000E+01 0.  1.
         13    1    4    4    0    0 -0.21562682787E+02 -0.17740195365E+02  0.24007425797E+02  0.36824181103E+02  0.00000000000E+00 0. -1.
        -14    1    4    4    0    0  0.54967950088E+02  0.10366431375E+02  0.11925044498E+03  0.13171790715E+03  0.00000000000E+00 0.  1.
</event>
<event>
12    1  0.8356052E-002  0.2421931E+03  0.7818608E-02  0.1118580E+00
         21   -1    0    0  503  502  0.00000000000E+00  0.00000000000E+00  0.33161567138E+04  0.33161567138E+04  0.00000000000E+00 0.  1.
         21   -1    0    0  501  503 -0.00000000000E+00 -0.00000000000E+00 -0.17644748901E+02  0.17644748901E+02  0.00000000000E+00 0.  1.
          6    2    1    2  501    0  0.72731196059E+02 -0.15105907891E+03  0.17433975900E+04  0.17599405312E+04  0.17276239287E+03 0.  0.
         24    2    3    3    0    0  0.24440775448E+00 -0.21877980613E+02  0.40487646959E+03  0.41323975880E+03  0.79771153024E+02 0.  0.
         -6    2    1    2    0  502 -0.72731196059E+02  0.15105907891E+03  0.15551143749E+04  0.15738609315E+04  0.17478226582E+03 0.  0.
        -24    2    5    5    0    0 -0.35565272592E+02  0.12707753549E+02  0.83493331859E+03  0.83955497417E+03  0.79451447664E+02 0.  0.
          5    1    3    3  501    0  0.72486788304E+02 -0.12918109829E+03  0.13385211204E+04  0.13467007724E+04  0.47000000000E+01 0. -1.
        -13    1    4    4    0    0  0.41595974783E+01 -0.49841886833E+02  0.31746746146E+03  0.32138311253E+03  0.00000000000E+00 0.  1.
         14    1    4    4    0    0 -0.39151897239E+01  0.27963906219E+02  0.87409008139E+02  0.91856646278E+02  0.00000000000E+00 0. -1.
         -5    1    5    5    0  502 -0.37165923466E+02  0.13835132536E+03  0.72018105630E+03  0.73430595731E+03  0.47000000000E+01 0.  1.
         11    1    6    6    0    0  0.15468532783E+02  0.25733583086E+02  0.45481548113E+03  0.45580545706E+03  0.00000000000E+00 0. -1.
        -12    1    6    6    0    0 -0.51033805375E+02 -0.13025829537E+02  0.38011783746E+03  0.38374951711E+03  0.00000000000E+00 0.  1.
</event>
<event>
12    1  0.8356052E-002  0.1832252E+03  0.7818608E-02  0.1166227E+00
         21   -1    0    0  503  502  0.00000000000E+00  0.00000000000E+00  0.21237803353E+03  0.21237803353E+03  0.00000000000E+00 0. -1.
         21   -1    0    0  501  503 -0.00000000000E+00 -0.00000000000E+00 -0.15740376817E+03  0.15740376817E+03  0.00000000000E+00 0. -1.
          6    2    1    2  501    0 -0.32506951380E+02  0.25955787625E+02 -0.39622095774E+01  0.18326802586E+03  0.17844064951E+03 0.  0.
         24    2    3    3    0    0  0.52423817259E+02  0.26996049718E+02 -0.60140111326E+01  0.98176207824E+02  0.78264654452E+02 0.  0.
         -6    2    1    2    0  502  0.32506951380E+02 -0.25955787625E+02  0.58936474940E+02  0.18651377584E+03  0.17199847587E+03 0.  0.
        -24    2    5    5    0    0 -0.30621123355E+02 -0.24861991274E+02  0.78078594921E+02  0.12037104406E+03  0.82687057378E+02 0.  0.
          5    1    3    3  501    0 -0.84930768640E+02 -0.10402620924E+01  0.20518015552E+01  0.85091818035E+02  0.47000000000E+01 0. -1.
        -13    1    4    4    0    0  0.14312051065E+01  0.23975724272E+02  0.27935760674E+02  0.36841422704E+02  0.00000000000E+00 0.  1.
         14    1    4    4    0    0  0.50992612153E+02  0.30203254462E+01 -0.33949771807E+02  0.61334785120E+02  0.00000000000E+00 0. -1.
         -5    1    5    5    0  502  0.63128074735E+02 -0.10937963518E+01 -0.19142119981E+02  0.66142731782E+02  0.47000000000E+01 0.  1.
         13    1    6    6    0    0  0.99586693816E+01 -0.44937250844E+02  0.34401544344E+02  0.57463012996E+02  0.00000000000E+00 0. -1.
        -14    1    6    6    0    0 -0.40579792737E+02  0.20075259571E+02  0.43677050577E+02  0.62908031065E+02  0.00000000000E+00 0.  1.
</event>
<event>
12    1  0.8356052E-002  0.1816279E+03  0.7818608E-02  0.1167237E+00
         21   -1    0    0  503  502  0.00000000000E+00  0.00000000000E+00  0.65423092063E+02  0.65423092063E+02  0.00000000000E+00 0. -1.
         21   -1    0    0  501  503 -0.00000000000E+00 -0.00000000000E+00 -0.14371507066E+04  0.14371507066E+04  0.00000000000E+00 0. -1.
          6    2    1    2  501    0 -0.10153081445E+00 -0.48238340276E+02 -0.12921397407E+04  0.13042737232E+04  0.17081536133E+03 0.  0.
         24    2    3    3    0    0 -0.37290264541E+02 -0.78966977052E+02 -0.99540899120E+03  0.10036103254E+04  0.93639085171E+02 0.  0.
         -6    2    1    2    0  502  0.10153081445E+00  0.48238340276E+02 -0.79587873745E+02  0.19830007541E+03  0.17510494704E+03 0.  0.
        -24    2    5    5    0    0 -0.43288444646E+02 -0.25405803677E+02 -0.34689283319E+02  0.10163506968E+03  0.81283434424E+02 0.  0.
          5    1    3    3  501    0  0.37188733726E+02  0.30728636775E+02 -0.29673074954E+03  0.30066339777E+03  0.47000000000E+01 0. -1.
        -11    1    4    4    0    0  0.20051448804E+02 -0.42846332509E+02 -0.20901147013E+03  0.21429807152E+03  0.00000000000E+00 0.  1.
         12    1    4    4    0    0 -0.57341713345E+02 -0.36120644543E+02 -0.78639752107E+03  0.78931225392E+03  0.00000000000E+00 0. -1.
         -5    1    5    5    0  502  0.43389975461E+02  0.73644143954E+02 -0.44898590426E+02  0.96665005723E+02  0.47000000000E+01 0.  1.
         13    1    6    6    0    0  0.20626081160E+02 -0.15214787842E+02  0.44282960359E+01  0.26010282560E+02  0.00000000000E+00 0. -1.
        -14    1    6    6    0    0 -0.63914525806E+02 -0.10191015835E+02 -0.39117579355E+02  0.75624787123E+02  0.00000000000E+00 0.  1.
</event>
<event>
12    1  0.8356052E-002  0.2108209E+03  0.7818608E-02  0.1141415E+00
         21   -1    0    0  503  502  0.00000000000E+00  0.00000000000E+00  0.23204269583E+03  0.23204269583E+03  0.00000000000E+00 0.  1.
         21   -1    0    0  501  503 -0.00000000000E+00 -0.00000000000E+00 -0.39447833871E+03  0.39447833871E+03  0.00000000000E+00 0.  1.
          6    2    1    2  501    0 -0.12061097147E+03  0.14334063195E+02 -0.30692315599E+03  0.37093913200E+03  0.16923812858E+03 0.  0.
         24    2    3    3    0    0 -0.60075025948E+02  0.69860040879E+02 -0.21380364571E+03  0.24667703765E+03  0.81536052965E+02 0.  0.
         -6    2    1    2    0  502  0.12061097147E+03 -0.14334063195E+02  0.14448751310E+03  0.25558190253E+03  0.17231655652E+03 0.  0.
        -24    2    5    5    0    0  0.52976153004E+02 -0.61629967907E+02  0.36695497579E+02  0.11974162911E+03  0.79917285167E+02 0.  0.
          5    1    3    3  501    0 -0.60535945526E+02 -0.55525977684E+02 -0.93119510275E+02  0.12426209435E+03  0.47000000000E+01 0. -1.
        -11    1    4    4    0    0 -0.50474016596E+02  0.38093344160E+01 -0.56836192885E+02  0.76108410847E+02  0.00000000000E+00 0.  1.
         12    1    4    4    0    0 -0.96010093523E+01  0.66050706463E+02 -0.15696745282E+03  0.17056862681E+03  0.00000000000E+00 0. -1.
         -5    1    5    5    0  502  0.67634818469E+02  0.47295904712E+02  0.10779201553E+03  0.13584027342E+03  0.47000000000E+01 0.  1.
         11    1    6    6    0    0 -0.95440490130E+01  0.88131292307E+01 -0.82418657245E+01  0.15384682935E+02  0.00000000000E+00 0. -1.
        -12    1    6    6    0    0  0.62520202017E+02 -0.70443097138E+02  0.44937363304E+02  0.10435694618E+03  0.00000000000E+00 0.  1.
</event>
<event>
12    1  0.8356052E-002  0.1988905E+03  0.7818608E-02  0.1150826E+00
         21   -1    0    0  501  502  0.00000000000E+00  0.00000000000E+00  0.11889761235E+03  0.11889761235E+03  0.00000000000E+00 0.  1.
         21   -1    0    0  502  503 -0.00000000000E+00 -0.00000000000E+00 -0.36899296071E+03  0.36899296071E+03  0.00000000000E+00 0. -1.
         -6    2    1    2    0  503 -0.97732334077E+02  0.31549788585E+02 -0.20296175825E+03  0.28416706567E+03  0.17032453616E+03 0.  0.
        -24    2    3    3    0    0 -0.30725392058E+01 -0.27595038192E+02 -0.11297943133E+03  0.14071848096E+03  0.79160674259E+02 0.  0.
          6    2    1    2  501    0  0.97732334077E+02 -0.31549788585E+02 -0.47133590101E+02  0.20372350738E+03  0.16951310823E+03 0.  0.
         24    2    5    5    0    0 -0.13277665532E+02  0.14595353422E+01 -0.18331091907E+02  0.84289385871E+02  0.81180323938E+02 0.  0.
          5    1    5    5  501    0  0.11100999961E+03 -0.33009323927E+02 -0.28802498194E+02  0.11943412151E+03  0.47000000000E+01 0. -1.
        -13    1    6    6    0    0  0.20492234609E+02 -0.63648099838E+01  0.22254901580E+02  0.30914772031E+02  0.00000000000E+00 0.  1.
         14    1    6    6    0    0 -0.33769900141E+02  0.78243453260E+01 -0.40585993487E+02  0.53374613841E+02  0.00000000000E+00 0. -1.
         -5    1    3    3    0  503 -0.94659794871E+02  0.59144826777E+02 -0.89982326920E+02  0.14344858472E+03  0.47000000000E+01 0.  1.
         11    1    4    4    0    0 -0.33843244975E+02 -0.37805989644E+02 -0.77739881256E+02  0.92833976652E+02  0.00000000000E+00 0. -1.
        -12    1    4    4    0    0  0.30770705769E+02  0.10210951452E+02 -0.35239550075E+02  0.47884504305E+02  0.00000000000E+00 0.  1.
</event>
<event>
12    1  0.8356052E-002  0.1934765E+03  0.7818608E-02  0.1155760E+00
         21   -1    0    0  501  502  0.00000000000E+00  0.00000000000E+00  0.35386179609E+03  0.35386179609E+03  0.00000000000E+00 0.  1.
         21   -1    0    0  502  503 -0.00000000000E+00 -0.00000000000E+00 -0.10810056449E+03  0.10810056449E+03  0.00000000000E+00 0.  1.
         -6    2    1    2    0  503 -0.85137299499E+02 -0.26069825109E+02  0.81994733191E+02  0.20848132836E+03  0.16974490407E+03 0.  0.
        -24    2    3    3    0    0  0.14036548546E+02 -0.36745130558E+02  0.21258732819E+02  0.91603759839E+02  0.79950520828E+02 0.  0.
          6    2    1    2  501    0  0.85137299499E+02  0.26069825109E+02  0.16376649841E+03  0.25348103223E+03  0.17177069643E+03 0.  0.
         24    2    5    5    0    0  0.39812060241E+02  0.28709194618E+02  0.18147007660E+03  0.20452339476E+03  0.80555647275E+02 0.  0.
          5    1    5    5  501    0  0.45325239258E+02 -0.26393695093E+01 -0.17703578192E+02  0.48957637463E+02  0.47000000000E+01 0. -1.
        -11    1    6    6    0    0  0.42993998180E+02 -0.51480898116E+01  0.39747523981E+02  0.58777992232E+02  0.00000000000E+00 0.  1.
         12    1    6    6    0    0 -0.31819379387E+01  0.33857284430E+02  0.14172255262E+03  0.14574540253E+03  0.00000000000E+00 0. -1.
         -5    1    3    3    0  503 -0.99173848045E+02  0.10675305450E+02  0.60736000372E+02  0.11687756852E+03  0.47000000000E+01 0.  1.
         13    1    4    4    0    0  0.52557458354E+01  0.81709139219E+01 -0.24823324991E+02  0.26656784544E+02  0.00000000000E+00 0. -1.
        -14    1    4    4    0    0  0.87808027101E+01 -0.44916044480E+02  0.46082057810E+02  0.64946975295E+02  0.00000000000E+00 0.  1.
</event>
<event>
12    1  0.8356052E-002  0.2018481E+03  0.7818608E-02  0.1148914E+00
         21   -1    0    0  501  502  0.00000000000E+00  0.00000000000E+00  0.35093362014E+03  0.35093362014E+03  0.00000000000E+00 0. -1.
         21   -1    0    0  502  503 -0.00000000000E+00 -0.00000000000E+00 -0.16821115115E+03  0.16821115115E+03  0.00000000000E+00 0. -1.
         -6    2    1    2    0  503  0.36490631878E+02  0.99728265129E+02 -0.56360034414E+02  0.20625007298E+03  0.16758683136E+03 0.  0.
        -24    2    3    3    0    0  0.63433250865E+02  0.11611470082E+03 -0.15874409025E+02  0.15471759919E+03  0.78607490569E+02 0.  0.
          6    2    1    2  501    0 -0.36490631878E+02 -0.99728265129E+02  0.23908250341E+03  0.31289469831E+03  0.17165475733E+03 0.  0.
         24    2    5    5    0    0 -0.69816355939E+02 -0.19585381232E+02  0.17264376051E+03  0.20348865514E+03  0.79648314578E+02 0.  0.
          5    1    5    5  501    0  0.33325724061E+02 -0.80142883897E+02  0.66438742898E+02  0.10940604317E+03  0.47000000000E+01 0. -1.
        -11    1    6    6    0    0 -0.19836453269E+02  0.14740816308E+02  0.49964993155E+01  0.25213915783E+02  0.00000000000E+00 0.  1.
         12    1    6    6    0    0 -0.49979902670E+02 -0.34326197540E+02  0.16764726119E+03  0.17827473936E+03  0.00000000000E+00 0. -1.
         -5    1    3    3    0  503 -0.26942618987E+02 -0.16386435693E+02 -0.40485625389E+02  0.51532473798E+02  0.47000000000E+01 0.  1.
         13    1    4    4    0    0  0.97280278320E+01  0.95399944377E+02 -0.42171357647E+01  0.95987333262E+02  0.00000000000E+00 0. -1.
        -14    1    4    4    0    0  0.53705223033E+02  0.20714756445E+02 -0.11657273260E+02  0.58730265924E+02  0.00000000000E+00 0.  1.
</event>
<event>
12    1  0.8356052E-002  0.1948389E+03  0.7818608E-02  0.1156737E+00
         21   -1    0    0  501  502  0.00000000000E+00  0.00000000000E+00  0.55090733146E+02  0.55090733146E+02  0.00000000000E+00 0.  1.
         21   -1    0    0  502  503 -0.00000000000E+00 -0.00000000000E+00 -0.16578034597E+04  0.16578034597E+04  0.00000000000E+00 0. -1.
         -6    2    1    2    0  503 -0.17860021252E+02  0.72189468142E+02 -0.14786716030E+04  0.14914529452E+04  0.18008852918E+03 0.  0.
        -24    2    3    3    0    0 -0.32210923707E+02  0.14721223363E+02 -0.32585060802E+03  0.33710166236E+03  0.78769626101E+02 0.  0.
          6    2    1    2  501    0  0.17860021252E+02 -0.72189468142E+02 -0.12404112349E+03  0.22144124766E+03  0.16768937407E+03 0.  0.
         24    2    5    5    0    0  0.50677668046E+02  0.70423098734E+01 -0.45190565693E+02  0.10484719526E+03  0.79579689366E+02 0.  0.
          5    1    5    5  501    0 -0.32817646794E+02 -0.79231778016E+02 -0.78850557800E+02  0.11659405240E+03  0.47000000000E+01 0. -1.
        -11    1    6    6    0    0  0.40156400073E+02 -0.33194514107E+02 -0.32324019873E+02  0.61312759638E+02  0.00000000000E+00 0.  1.
         12    1    6    6    0    0  0.10521267973E+02  0.40236823980E+02 -0.12866545819E+02  0.43534435624E+02  0.00000000000E+00 0. -1.
         -5    1    3    3    0  503  0.14350902455E+02  0.57468244779E+02 -0.11528209950E+04  0.11543512828E+04  0.47000000000E+01 0.  1.
         11    1    4    4    0    0 -0.28373168468E+02  0.33431471805E+02 -0.30751456247E+03  0.31062502495E+03  0.00000000000E+00 0. -1.
        -12    1    4    4    0    0 -0.38377552390E+01 -0.18710248442E+02 -0.18336045552E+02  0.26476637410E+02  0.00000000000E+00 0.  1.
</event>
<event>
12    1  0.8356052E-002  0.1846366E+03  0.7818608E-02  0.1163502E+00
         21   -1    0    0  503  502  0.00000000000E+00  0.00000000000E+00  0.20199506707E+03  0.20199506707E+03  0.00000000000E+00 0. -1.
         21   -1    0    0  501  503 -0.00000000000E+00 -0.00000000000E+00 -0.22256264625E+03  0.22256264625E+03  0.00000000000E+00 0.  1.
          6    2    1    2  501    0 -0.22388044282E+02 -0.62333482661E+02 -0.11506076697E+03  0.21714599596E+03  0.17183339570E+03 0.  0.
         24    2    3    3    0    0 -0.66014130519E+02 -0.71917769096E+02 -0.45337764500E+02  0.13420938752E+03  0.80166176583E+02 0.  0.
         -6    2    1    2    0  502  0.22388044282E+02  0.62333482661E+02  0.94493187797E+02  0.20741171735E+03  0.17234839822E+03 0.  0.
        -24    2    5    5    0    0 -0.36465791424E+02  0.29985797242E+02  0.10442245955E+03  0.13936153611E+03  0.79301233962E+02 0.  0.
          5    1    3    3  501    0  0.43626086237E+02  0.95842864350E+01 -0.69723002473E+02  0.82936608447E+02  0.47000000000E+01 0. -1.
        -11    1    4    4    0    0 -0.64021217410E+02 -0.22517010762E+02 -0.50366434047E+02  0.84513370131E+02  0.00000000000E+00 0.  1.
         12    1    4    4    0    0 -0.19929131088E+01 -0.49400758334E+02  0.50286695472E+01  0.49696017386E+02  0.00000000000E+00 0. -1.
         -5    1    5    5    0  502  0.58853835706E+02  0.32347685419E+02 -0.99292717575E+01  0.68050181241E+02  0.47000000000E+01 0.  1.
         11    1    6    6    0    0 -0.29912355793E+02  0.39382175704E+02  0.18691403944E+02  0.52868453483E+02  0.00000000000E+00 0. -1.
        -12    1    6    6    0    0 -0.65534356317E+01 -0.93963784621E+01  0.85731055610E+02  0.86493082630E+02  0.00000000000E+00 0.  1.
</event>
<event>
12    1  0.8356052E-002  0.2027747E+03  0.7818608E-02  0.1147769E+00
         21   -1    0    0  503  502  0.00000000000E+00  0.00000000000E+00  0.24690747775E+03  0.24690747775E+03  0.00000000000E+00 0. -1.
         21   -1    0    0  501  503 -0.00000000000E+00 -0.00000000000E+00 -0.29437407288E+03  0.29437407288E+03  0.00000000000E+00 0. -1.
          6    2    1    2  501    0  0.95470144226E+02  0.44795287879E+02 -0.20299146086E+03  0.28573204116E+03  0.17121944956E+03 0.  0.
         24    2    3    3    0    0 -0.43231557796E+01 -0.16489005363E+01 -0.13307211793E+03  0.15524614200E+03  0.79823351760E+02 0.  0.
         -6    2    1    2    0  502 -0.95470144226E+02 -0.44795287879E+02  0.15552486573E+03  0.25554950947E+03  0.17319469297E+03 0.  0.
        -24    2    5    5    0    0 -0.13211655859E+03 -0.36323906010E+02  0.14830134458E+03  0.21696203411E+03  0.79404182768E+02 0.  0.
          5    1    3    3  501    0  0.99793300006E+02  0.46444188415E+02 -0.69919342932E+02  0.13048589916E+03  0.47000000000E+01 0. -1.
        -13    1    4    4    0    0 -0.15709037179E+02 -0.38097961190E+02 -0.59855888950E+02  0.72670186032E+02  0.00000000000E+00 0.  1.
         14    1    4    4    0    0  0.11385881400E+02  0.36449060653E+02 -0.73216228981E+02  0.82575955968E+02  0.00000000000E+00 0. -1.
         -5    1    5    5    0  502  0.36646414361E+02 -0.84713818692E+01  0.72235211521E+01  0.38587475353E+02  0.47000000000E+01 0.  1.
         11    1    6    6    0    0 -0.98089121752E+02 -0.56405555289E+02  0.13292904682E+03  0.17456572963E+03  0.00000000000E+00 0. -1.
        -12    1    6    6    0    0 -0.34027436836E+02  0.20081649279E+02  0.15372297767E+02  0.42396304485E+02  0.00000000000E+00 0.  1.
</event>
<event>
12    1  0.8356052E-002  0.1812121E+03  0.7818608E-02  0.1169342E+00
         21   -1    0    0  503  502  0.00000000000E+00  0.00000000000E+00  0.39647683503E+02  0.39647683503E+02  0.00000000000E+00 0. -1.
         21   -1    0    0  501  503 -0.00000000000E+00 -0.00000000000E+00 -0.79585247710E+03  0.79585247710E+03  0.00000000000E+00 0. -1.
          6    2    1    2  501    0  0.46137914757E+02  0.30938828395E+02 -0.45016842047E+03  0.48527252697E+03  0.17248739190E+03 0.  0.
         24    2    3    3    0    0  0.44534959994E+02  0.40806124728E+02 -0.11616687992E+03  0.15108836802E+03  0.75395281586E+02 0.  0.
         -6    2    1    2    0  502 -0.46137914757E+02 -0.30938828395E+02 -0.30603637312E+03  0.35022763363E+03  0.16098203440E+03 0.  0.
        -24    2    5    5    0    0 -0.73447005568E+02 -0.54753387869E+02 -0.16393081584E+03  0.20349999787E+03  0.78399876535E+02 0.  0.
          5    1    3    3  501    0  0.16029547628E+01 -0.98672963331E+01 -0.33400154055E+03  0.33418415895E+03  0.47000000000E+01 0. -1.
        -13    1    4    4    0    0 -0.15580648466E+02 -0.30606265693E+01 -0.38235529006E+01  0.16332286992E+02  0.00000000000E+00 0.  1.
         14    1    4    4    0    0  0.60115608460E+02  0.43866751298E+02 -0.11234332701E+03  0.13475608103E+03  0.00000000000E+00 0. -1.
         -5    1    5    5    0  502  0.27309090811E+02  0.23814559474E+02 -0.14210555728E+03  0.14672763576E+03  0.47000000000E+01 0.  1.
         13    1    6    6    0    0 -0.29664824058E+02 -0.47242658106E+02 -0.14472569019E+03  0.15510446780E+03  0.00000000000E+00 0. -1.
        -14    1    6    6    0    0 -0.43782181509E+02 -0.75107297634E+01 -0.19205125652E+02  0.48395530068E+02  0.00000000000E+00 0.  1.
</event>
<event>
12    1  0.8356052E-002  0.1848114E+03  0.7818608E-02  0.1163411E+00
         21   -1    0    0  503  502  0.00000000000E+00  0.00000000000E+00  0.73867879420E+02  0.73867879420E+02  0.00000000000E+00 0.  1.
         21   -1    0    0  501  503 -0.00000000000E+00 -0.00000000000E+00 -0.46168028736E+03  0.46168028736E+03  0.00000000000E+00 0.  1.
          6    2    1    2  501    0 -0.36766202620E+02 -0.56647487628E+02 -0.20836672347E+03  0.27851740100E+03  0.17203069407E+03 0.  0.
         24    2    3    3    0    0 -0.70365429001E+02 -0.85227202059E+02 -0.18102474983E+03  0.22640807734E+03  0.79219239219E+02 0.  0.
         -6    2    1    2    0  502  0.36766202620E+02  0.56647487628E+02 -0.17944568447E+03  0.25703076578E+03  0.17118226944E+03 0.  0.
        -24    2    5    5    0    0  0.29447270553E+02  0.48332929291E+02 -0.22225558230E+02  0.99350847142E+02  0.78570997145E+02 0.  0.
          5    1    3    3  501    0  0.33599226381E+02  0.28579714431E+02 -0.27341973643E+02  0.52109323667E+02  0.47000000000E+01 0. -1.
        -11    1    4    4    0    0 -0.14421064533E+02 -0.11775696828E+02 -0.10548001503E+03  0.10711053968E+03  0.00000000000E+00 0.  1.
         12    1    4    4    0    0 -0.55944364468E+02 -0.73451505231E+02 -0.75544734798E+02  0.11929753766E+03  0.00000000000E+00 0. -1.
         -5    1    5    5    0  502  0.73189320673E+01  0.83145583373E+01 -0.15722012624E+03  0.15767991863E+03  0.47000000000E+01 0.  1.
         13    1    6    6    0    0 -0.66846197119E+01 -0.19151074696E+02 -0.48092247485E+01  0.20846497197E+02  0.00000000000E+00 0. -1.
        -14    1    6    6    0    0  0.36131890265E+02  0.67484003987E+02 -0.17416333482E+02  0.78504349944E+02  0.00000000000E+00 0.  1.
</event>
<event>
12    1  0.8356052E-002  0.1954341E+03  0.7818608E-02  0.1155201E+00
         21   -1    0    0  503  502  0.00000000000E+00  0.00000000000E+00  0.76747851240E+03  0.76747851240E+03  0.00000000000E+00 0. -1.
         21   -1    0    0  501  503 -0.00000000000E+00 -0.00000000000E+00 -0.48084831543E+02  0.48084831543E+02  0.00000000000E+00 0. -1.
          6    2    1    2  501    0 -0.63717966615E+02 -0.43137185552E+02  0.37027645658E+03  0.41546668086E+03  0.17200904791E+03 0.  0.
         24    2    3    3    0    0 -0.24902878768E+02  0.24593420017E+02  0.29106994229E+03  0.30415716698E+03  0.81023954734E+02 0.  0.
         -6    2    1    2    0  502  0.63717966615E+02  0.43137185552E+02  0.34911722428E+03  0.40009666308E+03  0.17964884490E+03 0.  0.
        -24    2    5    5    0    0  0.25682997202E+02 -0.22011518765E+02  0.74294603359E+02  0.11506933888E+03  0.81099576807E+02 0.  0.
          5    1    3    3  501    0 -0.38815087847E+02 -0.67730605569E+02  0.79206514289E+02  0.11130951388E+03  0.47000000000E+01 0. -1.
        -11    1    4    4    0    0  0.93060296729E+00  0.42164198049E+02  0.24428874386E+03  0.24790255343E+03  0.00000000000E+00 0.  1.
         12    1    4    4    0    0 -0.25833481735E+02 -0.17570778033E+02  0.46781198428E+02  0.56254613549E+02  0.00000000000E+00 0. -1.
         -5    1    5    5    0  502  0.38034969413E+02  0.65148704317E+02  0.27482262092E+03  0.28502732420E+03  0.47000000000E+01 0.  1.
         11    1    6    6    0    0  0.41687019838E+02  0.12878175687E+02  0.59830202718E+02  0.74049363193E+02  0.00000000000E+00 0. -1.
        -12    1    6    6    0    0 -0.16004022636E+02 -0.34889694451E+02  0.14464400641E+02  0.41019975687E+02  0.00000000000E+00 0.  1.
</event>
<event>
12    1  0.8356052E-002  0.2141278E+03  0.7818608E-02  0.1138935E+00
         21   -1    0    0  501  502  0.00000000000E+00  0.00000000000E+00  0.15833840600E+04  0.15833840600E+04  0.00000000000E+00 0.  1.
         21   -1    0    0  502  503 -0.00000000000E+00 -0.00000000000E+00 -0.72048479674E+02  0.72048479674E+02  0.00000000000E+00 0. -1.
         -6    2    1    2    0  503  0.80500275434E+02 -0.96351633053E+02  0.11464914095E+03  0.24288914022E+03  0.17345540458E+03 0.  0.
        -24    2    3    3    0    0 -0.12059270092E+02  0.61788094222E+00  0.44574455437E+02  0.91552073835E+02  0.79051200965E+02 0.  0.
          6    2    1    2  501    0 -0.80500275434E+02  0.96351633053E+02  0.13966864394E+04  0.14125433995E+04  0.16965233234E+03 0.  0.
         24    2    5    5    0    0  0.18697389862E+02  0.26334561974E+02  0.43548472539E+03  0.44369181535E+03  0.78564492126E+02 0.  0.
          5    1    5    5  501    0 -0.99197665296E+02  0.70017071079E+02  0.96120171403E+03  0.96885158414E+03  0.47000000000E+01 0. -1.
        -11    1    6    6    0    0  0.39196445382E+01  0.37793947075E+02  0.41163478256E+03  0.41338473636E+03  0.00000000000E+00 0.  1.
         12    1    6    6    0    0  0.14777745323E+02 -0.11459385101E+02  0.23849942829E+02  0.30307078987E+02  0.00000000000E+00 0. -1.
         -5    1    3    3    0  503  0.92559545526E+02 -0.96969513995E+02  0.70074685513E+02  0.15133706639E+03  0.47000000000E+01 0.  1.
         11    1    4    4    0    0  0.14678351747E+02  0.23845366727E+02 -0.71166238453E+01  0.28891207301E+02  0.00000000000E+00 0. -1.
        -12    1    4    4    0    0 -0.26737621839E+02 -0.23227485785E+02  0.51691079282E+02  0.62660866534E+02  0.00000000000E+00 0.  1.
</event>
<event>
12    1  0.8356052E-002  0.1799086E+03  0.7818608E-02  0.1168286E+00
         21   -1    0    0  503  502  0.00000000000E+00  0.00000000000E+00  0.39700393182E+03  0.39700393182E+03  0.00000000000E+00 0.  1.
         21   -1    0    0  501  503 -0.00000000000E+00 -0.00000000000E+00 -0.81070769032E+02  0.81070769032E+02  0.00000000000E+00 0.  1.
          6    2    1    2  501    0  0.15094650155E+02 -0.45991989420E+02  0.14475763082E+03  0.23091527075E+03  0.17327428843E+03 0.  0.
         24    2    3    3    0    0  0.21948309158E+02 -0.84839067182E+02  0.15081820295E+03  0.19072959386E+03  0.77150839513E+02 0.  0.
         -6    2    1    2    0  502 -0.15094650155E+02  0.45991989420E+02  0.17117553197E+03  0.24715943010E+03  0.17159140302E+03 0.  0.
        -24    2    5    5    0    0 -0.33036160200E+02  0.33788252532E+02  0.19289599937E+03  0.21609984735E+03  0.85189456865E+02 0.  0.
          5    1    3    3  501    0 -0.68536590030E+01  0.38847077762E+02 -0.60605721322E+01  0.40185676888E+02  0.47000000000E+01 0. -1.
        -11    1    4    4    0    0  0.47880131810E+02 -0.40393732854E+02  0.62343658272E+02  0.88379253237E+02  0.00000000000E+00 0.  1.
         12    1    4    4    0    0 -0.25931822652E+02 -0.44445334328E+02  0.88474544680E+02  0.10235034062E+03  0.00000000000E+00 0. -1.
         -5    1    5    5    0  502  0.17941510045E+02  0.12203736888E+02 -0.21720467402E+02  0.31059582755E+02  0.47000000000E+01 0.  1.
         13    1    6    6    0    0  0.20087505406E+02  0.28639173238E+02  0.12462842066E+03  0.12944478882E+03  0.00000000000E+00 0. -1.
        -14    1    6    6    0    0 -0.53123665606E+02  0.51490792944E+01  0.68267578706E+02  0.86655058522E+02  0.00000000000E+00 0.  1.
</event>
<event>
12    1  0.8356052E-002  0.3103205E+03  0.7818608E-02  0.1080845E+00
         21   -1    0    0  503  502  0.00000000000E+00  0.00000000000E+00  0.12306363083E+03  0.12306363083E+03  0.00000000000E+00 0.  1.
         21   -1    0    0  501  503 -0.00000000000E+00 -0.00000000000E+00 -0.78461249698E+03  0.78461249698E+03  0.00000000000E+00 0.  1.
          6    2    1    2  501    0 -0.17144153973E+03  0.18342827998E+03 -0.39204988496E+03  0.49666701375E+03  0.17302275807E+03 0.  0.
         24    2    3    3    0    0 -0.63299995013E+02  0.16606033161E+03 -0.26456408728E+03  0.32852731608E+03  0.79706449079E+02 0.  0.
         -6    2    1    2    0  502  0.17144153973E+03 -0.18342827998E+03 -0.26949898119E+03  0.41100911406E+03  0.18237504087E+03 0.  0.
        -24    2    5    5    0    0  0.18203455914E+03 -0.15266201596E+03 -0.16595177651E+03  0.30236801383E+03  0.86279498256E+02 0.  0.
          5    1    3    3  501    0 -0.10814154472E+03  0.17367948363E+02 -0.12748579768E+03  0.16813969768E+03  0.47000000000E+01 0. -1.
        -13    1    4    4    0    0 -0.33346311103E+02  0.96016107565E+02 -0.21451631985E+03  0.23737801259E+03  0.00000000000E+00 0.  1.
         14    1    4    4    0    0 -0.29953683909E+02  0.70044224047E+02 -0.50047767432E+02  0.91149303492E+02  0.00000000000E+00 0. -1.
         -5    1    5    5    0  502 -0.10593019411E+02 -0.30766264012E+02 -0.10354720468E+03  0.10864110023E+03  0.47000000000E+01 0.  1.
         11    1    6    6    0    0  0.47021464019E+02 -0.57116847065E+02 -0.93104704499E+01  0.74565656687E+02  0.00000000000E+00 0. -1.
        -12    1    6    6    0    0  0.13501309513E+03 -0.95545168899E+02 -0.15664130606E+03  0.22780235714E+03  0.00000000000E+00 0.  1.
</event>
<event>
12    1  0.8356052E-002  0.1950255E+03  0.7818608E-02  0.1154244E+00
         21   -1    0    0  501  502  0.00000000000E+00  0.00000000000E+00  0.33573350200E+03  0.33573350200E+03  0.00000000000E+00 0.  1.
         21   -1    0    0  502  503 -0.00000000000E+00 -0.00000000000E+00 -0.12372896559E+03  0.12372896559E+03  0.00000000000E+00 0.  1.
         -6    2    1    2    0  503  0.89663972401E+02 -0.18350919601E+02  0.37543157948E+02  0.19860623730E+03  0.17221662112E+03 0.  0.
        -24    2    3    3    0    0  0.66853772850E+02 -0.79639645227E+02  0.22687707227E+02  0.13137984733E+03  0.77032669624E+02 0.  0.
          6    2    1    2  501    0 -0.89663972401E+02  0.18350919601E+02  0.17446137847E+03  0.26085623029E+03  0.17097606881E+03 0.  0.
         24    2    5    5    0    0 -0.11985166908E+03  0.44040405161E+02  0.15987016971E+03  0.21835634709E+03  0.76269543617E+02 0.  0.
          5    1    5    5  501    0  0.30187696675E+02 -0.25689485560E+02  0.14591208758E+02  0.42499883198E+02  0.47000000000E+01 0. -1.
        -13    1    6    6    0    0 -0.95847166832E+02  0.25039224993E+00  0.83553393272E+02  0.12715310304E+03  0.00000000000E+00 0.  1.
         14    1    6    6    0    0 -0.24004502245E+02  0.43790012911E+02  0.76316776437E+02  0.91203244045E+02  0.00000000000E+00 0. -1.
         -5    1    3    3    0  503  0.22810199551E+02  0.61288725626E+02  0.14855450721E+02  0.67226389971E+02  0.47000000000E+01 0.  1.
         11    1    4    4    0    0  0.17071417203E+02 -0.75668939679E+02  0.27884679692E+01  0.77620855903E+02  0.00000000000E+00 0. -1.
        -12    1    4    4    0    0  0.49782355647E+02 -0.39707055476E+01  0.19899239257E+02  0.53758991428E+02  0.00000000000E+00 0.  1.
</event>
<event>
12    1  0.8356052E-002  0.1894125E+03  0.7818608E-02  0.1159261E+00
         21   -1    0    0  503  502  0.00000000000E+00  0.00000000000E+00  0.17123597235E+03  0.17123597235E+03  0.00000000000E+00 0.  1.
         21   -1    0    0  501  503 -0.00000000000E+00 -0.00000000000E+00 -0.35835868463E+03  0.35835868463E+03  0.00000000000E+00 0.  1.
          6    2    1    2  501    0  0.23692898101E+02 -0.72628199898E+02 -0.26513167358E+03  0.32584027653E+03  0.17332302972E+03 0.  0.
         24    2    3    3    0    0  0.54293175676E+02 -0.16520815370E+02 -0.23599723228E+03  0.25544623377E+03  0.79607778746E+02 0.  0.
         -6    2    1    2    0  502 -0.23692898101E+02  0.72628199898E+02  0.78008961297E+02  0.20375438045E+03  0.17202976681E+03 0.  0.
        -24    2    5    5    0    0  0.18424437364E+02  0.98724069112E+02  0.86778277269E+02  0.15321869762E+03  0.76548012256E+02 0.  0.
          5    1    3    3  501    0 -0.30600277575E+02 -0.56107384528E+02 -0.29134441301E+02  0.70394042761E+02  0.47000000000E+01 0. -1.
        -11    1    4    4    0    0  0.60005120734E+02 -0.19831737556E+02 -0.93844035962E+02  0.11313980473E+03  0.00000000000E+00 0.  1.
         12    1    4    4    0    0 -0.57119450574E+01  0.33109221861E+01 -0.14215319632E+03  0.14230642903E+03  0.00000000000E+00 0. -1.
         -5    1    5    5    0  502 -0.42117335465E+02 -0.26095869214E+02 -0.87693159722E+01  0.50535682832E+02  0.47000000000E+01 0.  1.
         11    1    6    6    0    0  0.47436420297E+02  0.56261690556E+02  0.40310888296E+02  0.83908041987E+02  0.00000000000E+00 0. -1.
        -12    1    6    6    0    0 -0.29011982933E+02  0.42462378556E+02  0.46467388973E+02  0.69310655633E+02  0.00000000000E+00 0.  1.
</event>
<event>
12    1  0.8356052E-002  0.2081458E+03  0.7818608E-02  0.1143288E+00
         21   -1    0    0  501  502  0.00000000000E+00  0.00000000000E+00  0.21425289788E+03  0.21425289788E+03  0.00000000000E+00 0. -1.
         21   -1    0    0  502  503 -0.00000000000E+00 -0.00000000000E+00 -0.41328010270E+03  0.41328010270E+03  0.00000000000E+00 0. -1.
         -6    2    1    2    0  503  0.11029553815E+03  0.19289443866E+02 -0.32422900631E+03  0.38463350855E+03  0.17401522631E+03 0.  0.
        -24    2    3    3    0    0  0.14185537080E+03 -0.81844518462E+01 -0.24315614204E+03  0.29327850155E+03  0.81837879877E+02 0.  0.
          6    2    1    2  501    0 -0.11029553815E+03 -0.19289443866E+02  0.12520180149E+03  0.24289949204E+03  0.17546362517E+03 0.  0.
         24    2    5    5    0    0  0.10482658376E+02 -0.66786578674E+01  0.71208053953E+02  0.10991896921E+03  0.82807621912E+02 0.  0.
          5    1    5    5  501    0 -0.12077819653E+03 -0.12610785998E+02  0.53993747535E+02  0.13298052283E+03  0.47000000000E+01 0. -1.
        -13    1    6    6    0    0  0.22619649814E+02  0.14850026188E+02 -0.69579938518E+01  0.27938960502E+02  0.00000000000E+00 0.  1.
         14    1    6    6    0    0 -0.12136991438E+02 -0.21528684055E+02  0.78166047805E+02  0.81980008708E+02  0.00000000000E+00 0. -1.
         -5    1    3    3    0  503 -0.31559832654E+02  0.27473895712E+02 -0.81072864267E+02  0.91355006996E+02  0.47000000000E+01 0.  1.
         13    1    4    4    0    0  0.42856660617E+02 -0.41339838362E+02 -0.85864103271E+02  0.10449076431E+03  0.00000000000E+00 0. -1.
        -14    1    4    4    0    0  0.98998710187E+02  0.33155386516E+02 -0.15729203877E+03  0.18878773724E+03  0.00000000000E+00 0.  1.
</event>
<event>
12    1  0.8356052E-002  0.1875826E+03  0.7818608E-02  0.1160695E+00
         21   -1    0    0  501  502  0.00000000000E+00  0.00000000000E+00  0.21364370591E+03  0.21364370591E+03  0.00000000000E+00 0.  1.
         21   -1    0    0  502  503 -0.00000000000E+00 -0.00000000000E+00 -0.19294732514E+03  0.19294732514E+03  0.00000000000E+00 0.  1.
         -6    2    1    2    0  503 -0.33752963678E+02  0.65563257845E+02 -0.67617030446E+02  0.19939732719E+03  0.17248022480E+03 0.  0.
        -24    2    3    3    0    0 -0.89701128965E+00  0.47994713081E+00 -0.93036451123E+02  0.12204367253E+03  0.78980008798E+02 0.  0.
          6    2    1    2  501    0  0.33752963678E+02 -0.65563257845E+02  0.88313411207E+02  0.20719370386E+03  0.17231415782E+03 0.  0.
         24    2    5    5    0    0  0.23766640897E+02 -0.71084884575E+02  0.12667401503E+03  0.16689679418E+03  0.78678585319E+02 0.  0.
          5    1    5    5  501    0  0.99863227806E+01  0.55216267300E+01 -0.38360603824E+02  0.40296909685E+02  0.47000000000E+01 0. -1.
        -11    1    6    6    0    0  0.10988734278E+02 -0.46497524882E+02  0.13045643256E+03  0.13893038868E+03  0.00000000000E+00 0.  1.
         12    1    6    6    0    0  0.12777906619E+02 -0.24587359693E+02 -0.37824175298E+01  0.27966405501E+02  0.00000000000E+00 0. -1.
         -5    1    3    3    0  503 -0.32855952388E+02  0.65083310714E+02  0.25419420677E+02  0.77353654654E+02  0.47000000000E+01 0.  1.
         11    1    4    4    0    0  0.31946809398E+02 -0.21306335589E+02 -0.35450097280E+02  0.52261534268E+02  0.00000000000E+00 0. -1.
        -12    1    4    4    0    0 -0.32843820688E+02  0.21786282720E+02 -0.57586353843E+02  0.69782138266E+02  0.00000000000E+00 0.  1.
</event>
<event>
12    1  0.8356052E-002  0.2633169E+03  0.7818608E-02  0.1105246E+00
         21   -1    0    0  501  502  0.00000000000E+00  0.00000000000E+00  0.80938176312E+02  0.80938176312E+02  0.00000000000E+00 0. -1.
         21   -1    0    0  502  503 -0.00000000000E+00 -0.00000000000E+00 -0.13190411762E+04  0.13190411762E+04  0.00000000000E+00 0.  1.
         -6    2    1    2    0  503  0.55848165190E+02 -0.19096555364E+03 -0.10346927784E+04  0.10676726808E+04  0.17247883158E+03 0.  0.
        -24    2    3    3    0    0  0.15501293209E+02 -0.68887276746E+02 -0.72266132231E+03  0.73015720651E+03  0.76840174866E+02 0.  0.
          6    2    1    2  501    0 -0.55848165190E+02  0.19096555364E+03 -0.20341022146E+03  0.33230667172E+03  0.17165414543E+03 0.  0.
         24    2    5    5    0    0 -0.87691084193E+02  0.71064213462E+02 -0.96183635242E+02  0.16826419655E+03  0.79509115646E+02 0.  0.
          5    1    5    5  501    0  0.31842919003E+02  0.11990134018E+03 -0.10722658621E+03  0.16404247517E+03  0.47000000000E+01 0. -1.
        -11    1    6    6    0    0 -0.64739667306E+01 -0.11189181855E+02  0.57482456028E+01  0.14147521455E+02  0.00000000000E+00 0.  1.
         12    1    6    6    0    0 -0.81217117463E+02  0.82253395317E+02 -0.10193188084E+03  0.15411667510E+03  0.00000000000E+00 0. -1.
         -5    1    3    3    0  503  0.40346871981E+02 -0.12207827690E+03 -0.31203145611E+03  0.33751547427E+03  0.47000000000E+01 0.  1.
         11    1    4    4    0    0  0.24979768192E+02  0.74183686959E+01 -0.23984742816E+03  0.24125880255E+03  0.00000000000E+00 0. -1.
        -12    1    4    4    0    0 -0.94784749832E+01 -0.76305645442E+02 -0.48281389415E+03  0.48889840396E+03  0.00000000000E+00 0.  1.
</event>
<event>
12    1  0.8356052E-002  0.4844863E+03  0.7818608E-02  0.1017958E+00
         21   -1    0    0  501  502  0.00000000000E+00  0.00000000000E+00  0.26670404245E+04  0.26670404245E+04  0.00000000000E+00 0. -1.
         21   -1    0    0  502  503 -0.00000000000E+00 -0.00000000000E+00 -0.96516073550E+02  0.96516073550E+02  0.00000000000E+00 0.  1.
         -6    2    1    2    0  503  0.34116753584E+03  0.29708194670E+03  0.87111983505E+03  0.99643945692E+03  0.17143177571E+03 0.  0.
        -24    2    3    3    0    0  0.13779117240E+03  0.76900476401E+02  0.24567770415E+03  0.30286770564E+03  0.80443908038E+02 0.  0.
          6    2    1    2  501    0 -0.34116753584E+03 -0.29708194670E+03  0.16994045159E+04  0.17671170411E+04  0.17341844718E+03 0.  0.
         24    2    5    5    0    0 -0.16622166589E+03 -0.83627036538E+02  0.84985718883E+03  0.87385235079E+03  0.82082678526E+02 0.  0.
          5    1    5    5  501    0 -0.17494586995E+03 -0.21345491016E+03  0.84954732707E+03  0.89326469034E+03  0.47000000000E+01 0. -1.
        -13    1    6    6    0    0 -0.13732773123E+03 -0.50248388351E+02  0.49168686018E+03  0.51297151458E+03  0.00000000000E+00 0.  1.
         14    1    6    6    0    0 -0.28893934663E+02 -0.33378648186E+02  0.35817032865E+03  0.36088083620E+03  0.00000000000E+00 0. -1.
         -5    1    3    3    0  503  0.20337636344E+03  0.22018147030E+03  0.62544213090E+03  0.69357175128E+03  0.47000000000E+01 0.  1.
         11    1    4    4    0    0 -0.10778446443E+02  0.61687086150E+01  0.20646321487E+02  0.24093535744E+02  0.00000000000E+00 0. -1.
        -12    1    4    4    0    0  0.14856961884E+03  0.70731767786E+02  0.22503138266E+03  0.27877416990E+03  0.00000000000E+00 0.  1.
</event>
<event>
12    1  0.8356052E-002  0.1841340E+03  0.7818608E-02  0.1163951E+00
         21   -1    0    0  501  502  0.00000000000E+00  0.00000000000E+00  0.41052329543E+03  0.41052329543E+03  0.00000000000E+00 0.  1.
         21   -1    0    0  502  503 -0.00000000000E+00 -0.00000000000E+00 -0.10231295534E+03  0.10231295534E+03  0.00000000000E+00 0.  1.
         -6    2    1    2    0  503 -0.26330992525E+02  0.60020087394E+02  0.26704491671E+03  0.32415682142E+03  0.17166515451E+03 0.  0.
        -24    2    3    3    0    0 -0.41568598786E+02  0.40441613820E+02  0.37582585539E+02  0.93309355114E+02  0.62695394429E+02 0.  0.
          6    2    1    2  501    0  0.26330992525E+02 -0.60020087394E+02  0.41165423378E+02  0.18867942936E+03  0.17207441100E+03 0.  0.
         24    2    5    5    0    0 -0.13359248280E+02  0.23346572647E+01  0.73560590606E+02  0.10784029121E+03  0.77681708136E+02 0.  0.
          5    1    5    5  501    0  0.39690240806E+02 -0.62354744658E+02 -0.32395167228E+02  0.80839138147E+02  0.47000000000E+01 0. -1.
        -11    1    6    6    0    0 -0.20333165418E+02  0.78879097392E+01 -0.98670190515E+01  0.23937727564E+02  0.00000000000E+00 0.  1.
         12    1    6    6    0    0  0.69739171373E+01 -0.55532524744E+01  0.83427609658E+02  0.83902563646E+02  0.00000000000E+00 0. -1.
         -5    1    3    3    0  503  0.15237606261E+02  0.19578473574E+02  0.22946233117E+03  0.23084746630E+03  0.47000000000E+01 0.  1.
         13    1    4    4    0    0 -0.42390494510E+02  0.53674317611E+02  0.40835176628E+02  0.79658006792E+02  0.00000000000E+00 0. -1.
        -14    1    4    4    0    0  0.82189572337E+00 -0.13232703792E+02 -0.32525910889E+01  0.13651348322E+02  0.00000000000E+00 0.  1.
</event>
<event>
12    1  0.8356052E-002  0.3817244E+03  0.7818608E-02  0.1050417E+00
         21   -1    0    0  503  502  0.00000000000E+00  0.00000000000E+00  0.61077737281E+03  0.61077737281E+03  0.00000000000E+00 0.  1.
         21   -1    0    0  501  503 -0.00000000000E+00 -0.00000000000E+00 -0.62189964610E+03  0.62189964610E+03  0.00000000000E+00 0. -1.
          6    2    1    2  501    0 -0.33351464184E+03 -0.69592081379E+02 -0.48995928190E+03  0.62110676897E+03  0.17215820174E+03 0.  0.
         24    2    3    3    0    0 -0.26799060137E+03 -0.99683762885E+02 -0.32089169112E+03  0.43724581763E+03  0.80353049730E+02 0.  0.
         -6    2    1    2    0  502  0.33351464184E+03  0.69592081379E+02  0.47883700861E+03  0.61157024994E+03  0.16928737605E+03 0.  0.
        -24    2    5    5    0    0  0.20127641048E+03  0.92147084916E+02  0.22981689371E+03  0.32867665574E+03  0.78798862430E+02 0.  0.
          5    1    3    3  501    0 -0.65524040474E+02  0.30091681506E+02 -0.16906759078E+03  0.18386095134E+03  0.47000000000E+01 0.  1.
        -13    1    4    4    0    0 -0.11296185605E+03 -0.49417633500E+01 -0.97529663440E+02  0.14932125501E+03  0.00000000000E+00 0.  1.
         14    1    4    4    0    0 -0.15502874532E+03 -0.94741999535E+02 -0.22336202768E+03  0.28792456262E+03  0.00000000000E+00 0. -1.
         -5    1    5    5    0  502  0.13223823136E+03 -0.22555003537E+02  0.24902011489E+03  0.28289359420E+03  0.47000000000E+01 0.  1.
         11    1    6    6    0    0  0.10786749962E+03  0.22969277170E+02  0.68438288739E+02  0.12979516375E+03  0.00000000000E+00 0. -1.
        -12    1    6    6    0    0  0.93408910857E+02  0.69177807746E+02  0.16137860498E+03  0.19888149199E+03  0.00000000000E+00 0.  1.
</event>
<event>
12    1  0.8356052E-002  0.1743935E+03  0.7818608E-02  0.1174394E+00
         21   -1    0    0  503  502  0.00000000000E+00  0.00000000000E+00  0.15947801534E+03  0.15947801534E+03  0.00000000000E+00 0. -1.
         21   -1    0    0  501  503 -0.00000000000E+00 -0.00000000000E+00 -0.19653987825E+03  0.19653987825E+03  0.00000000000E+00 0. -1.
          6    2    1    2  501    0 -0.17830838463E+02 -0.25717439532E+02  0.22029452105E+02  0.17577941840E+03  0.17156276309E+03 0.  0.
         24    2    3    3    0    0 -0.29948401737E+02 -0.30348704568E+02 -0.50526337650E+02  0.10192336528E+03  0.77572617324E+02 0.  0.
         -6    2    1    2    0  502  0.17830838463E+02  0.25717439532E+02 -0.59091315023E+02  0.18023847519E+03  0.16737621973E+03 0.  0.
        -24    2    5    5    0    0  0.70334182488E+02  0.31342426863E+02 -0.61936812986E+02  0.12714960183E+03  0.80010046205E+02 0.  0.
          5    1    3    3  501    0  0.12117563274E+02  0.46312650356E+01  0.72555789756E+02  0.73856053121E+02  0.47000000000E+01 0. -1.
        -13    1    4    4    0    0  0.12010168092E+02  0.17603001263E+02 -0.26076125800E+02  0.33676017101E+02  0.00000000000E+00 0.  1.
         14    1    4    4    0    0 -0.41958569829E+02 -0.47951705831E+02 -0.24450211850E+02  0.68247348181E+02  0.00000000000E+00 0. -1.
         -5    1    5    5    0  502 -0.52503344025E+02 -0.56249873309E+01  0.28454979630E+01  0.53088873363E+02  0.47000000000E+01 0.  1.
         13    1    6    6    0    0  0.34470175342E+02  0.50866950415E+02 -0.11938541766E+02  0.62595274679E+02  0.00000000000E+00 0. -1.
        -14    1    6    6    0    0  0.35864007146E+02 -0.19524523552E+02 -0.49998271220E+02  0.64554327147E+02  0.00000000000E+00 0.  1.
</event>
<event>
12    1  0.8356052E-002  0.1828255E+03  0.7818608E-02  0.1165133E+00
         21   -1    0    0  501  502  0.00000000000E+00  0.00000000000E+00  0.10274593786E+03  0.10274593786E+03  0.00000000000E+00 0.  1.
         21   -1    0    0  502  503 -0.00000000000E+00 -0.00000000000E+00 -0.10706186659E+04  0.10706186659E+04  0.00000000000E+00 0.  1.
         -6    2    1    2    0  503  0.52981362663E+02 -0.36589480054E+02 -0.97346283987E+03  0.99045365750E+03  0.17094657703E+03 0.  0.
        -24    2    3    3    0    0  0.39241447323E+02 -0.69270318403E+02 -0.38327115485E+03  0.39917949306E+03  0.78161508021E+02 0.  0.
          6    2    1    2  501    0 -0.52981362663E+02  0.36589480054E+02  0.55901117885E+01  0.18291094630E+03  0.17111209801E+03 0.  0.
         24    2    5    5    0    0 -0.94671129673E+02  0.43060541031E+02 -0.24320626368E+02  0.13098163318E+03  0.75814658064E+02 0.  0.
          5    1    5    5  501    0  0.41689767009E+02 -0.64710609770E+01  0.29910738156E+02  0.51929313114E+02  0.47000000000E+01 0. -1.
        -11    1    6    6    0    0 -0.42330624833E+02  0.54045317927E+02  0.69979852947E+01  0.69005434473E+02  0.00000000000E+00 0.  1.
         12    1    6    6    0    0 -0.52340504839E+02 -0.10984776896E+02 -0.31318611663E+02  0.61976198712E+02  0.00000000000E+00 0. -1.
         -5    1    3    3    0  503  0.13739915340E+02  0.32680838349E+02 -0.59019168502E+03  0.59127416444E+03  0.47000000000E+01 0.  1.
         11    1    4    4    0    0  0.11377562483E+02 -0.48912738870E+02 -0.83568232796E+02  0.97496433188E+02  0.00000000000E+00 0. -1.
        -12    1    4    4    0    0  0.27863884840E+02 -0.20357579533E+02 -0.29970292206E+03  0.30168305987E+03  0.00000000000E+00 0.  1.
</event>
<event>
12    1  0.8356052E-002  0.1902392E+03  0.7818608E-02  0.1162353E+00
         21   -1    0    0  501  502  0.00000000000E+00  0.00000000000E+00  0.93278793776E+03  0.93278793776E+03  0.00000000000E+00 0.  1.
         21   -1    0    0  502  503 -0.00000000000E+00 -0.00000000000E+00 -0.12858280635E+03  0.12858280635E+03  0.00000000000E+00 0.  1.
         -6    2    1    2    0  503  0.82532009556E+02 -0.55507420303E+01 -0.44382665073E+02  0.19534779467E+03  0.17131432101E+03 0.  0.
        -24    2    3    3    0    0  0.99272115561E+01 -0.30308674161E+02 -0.73451400282E+02  0.11318032384E+03  0.79984450002E+02 0.  0.
          6    2    1    2  501    0 -0.82532009556E+02  0.55507420303E+01  0.84858779649E+03  0.86602294944E+03  0.15182936894E+03 0.  0.
         24    2    5    5    0    0 -0.13477434250E+02  0.15816105256E+02  0.17992986887E+03  0.19371392361E+03  0.68691601144E+02 0.  0.
          5    1    5    5  501    0 -0.69054575307E+02 -0.10265363226E+02  0.66865792762E+03  0.67230902583E+03  0.47000000000E+01 0. -1.
        -13    1    6    6    0    0  0.83053056606E+01 -0.23609725185E+02  0.45372275339E+02  0.51817377345E+02  0.00000000000E+00 0.  1.
         14    1    6    6    0    0 -0.21782739910E+02  0.39425830441E+02  0.13455759353E+03  0.14189654626E+03  0.00000000000E+00 0. -1.
         -5    1    3    3    0  503  0.72604798000E+02  0.24757932131E+02  0.29068735209E+02  0.82167470831E+02  0.47000000000E+01 0.  1.
         11    1    4    4    0    0  0.40593399709E+02 -0.30981366852E+02 -0.27689717674E+02  0.58089496958E+02  0.00000000000E+00 0. -1.
        -12    1    4    4    0    0 -0.30666188153E+02  0.67269269107E+00 -0.45761682608E+02  0.55090826880E+02  0.00000000000E+00 0.  1.
</event>
<event>
12    1  0.8356052E-002  0.2109040E+03  0.7818608E-02  0.1141164E+00
         21   -1    0    0  503  502  0.00000000000E+00  0.00000000000E+00  0.79739952061E+03  0.79739952061E+03  0.00000000000E+00 0. -1.
         21   -1    0    0  501  503 -0.00000000000E+00 -0.00000000000E+00 -0.62225405952E+02  0.62225405952E+02  0.00000000000E+00 0. -1.
          6    2    1    2  501    0  0.70752032628E+02 -0.10012565411E+03  0.22364336797E+03  0.30632193414E+03  0.16966371023E+03 0.  0.
         24    2    3    3    0    0  0.94863526741E+02 -0.11583254929E+03  0.21888573206E+03  0.27677881643E+03  0.79241916580E+02 0.  0.
         -6    2    1    2    0  502 -0.70752032628E+02  0.10012565411E+03  0.51153074669E+03  0.55330299242E+03  0.17160856587E+03 0.  0.
        -24    2    5    5    0    0 -0.33156051817E+02 -0.14576692375E+02  0.26380983932E+03  0.27769852219E+03  0.78797424905E+02 0.  0.
          5    1    3    3  501    0 -0.24111494113E+02  0.15706895183E+02  0.47576359058E+01  0.29543117711E+02  0.47000000000E+01 0. -1.
        -11    1    4    4    0    0  0.71177366998E+02 -0.60607139131E+02  0.18625641836E+03  0.20840080678E+03  0.00000000000E+00 0.  1.
         12    1    4    4    0    0  0.23686159743E+02 -0.55225410162E+02  0.32629313699E+02  0.68378009648E+02  0.00000000000E+00 0. -1.
         -5    1    5    5    0  502 -0.37595980811E+02  0.11470234649E+03  0.24772090737E+03  0.27560447023E+03  0.47000000000E+01 0.  1.
         11    1    6    6    0    0 -0.18255037055E+02  0.13333626823E+02  0.15566732156E+02  0.27447315573E+02  0.00000000000E+00 0. -1.
        -12    1    6    6    0    0 -0.14901014762E+02 -0.27910319198E+02  0.24824310717E+03  0.25025120662E+03  0.00000000000E+00 0.  1.
</event>
<event>
12    1  0.8356052E-002  0.1981397E+03  0.7818608E-02  0.1153138E+00
         21   -1    0    0  503  502  0.00000000000E+00  0.00000000000E+00  0.12551284188E+03  0.12551284188E+03  0.00000000000E+00 0.  1.
         21   -1    0    0  501  503 -0.00000000000E+00 -0.00000000000E+00 -0.43957170950E+03  0.43957170950E+03  0.00000000000E+00 0.  1.
          6    2    1    2  501    0 -0.53408644127E+02 -0.59571047842E+02 -0.31863959238E+03  0.37522063136E+03  0.18126814215E+03 0.  0.
         24    2    3    3    0    0  0.34283746689E+02 -0.46198450247E+02 -0.20863142040E+03  0.23382519410E+03  0.88529541559E+02 0.  0.
         -6    2    1    2    0  502  0.53408644127E+02  0.59571047842E+02  0.45807247682E+01  0.18986392002E+03  0.17212243340E+03 0.  0.
        -24    2    5    5    0    0 -0.77274462903E+01  0.68409515698E+02  0.44209767646E+02  0.11632283555E+03  0.82685689522E+02 0.  0.
          5    1    3    3  501    0 -0.87692390816E+02 -0.13372597595E+02 -0.11000817198E+03  0.14139543726E+03  0.47000000000E+01 0. -1.
        -13    1    4    4    0    0 -0.78036188791E+01 -0.29873465076E+02 -0.17455586325E+03  0.17726553466E+03  0.00000000000E+00 0.  1.
         14    1    4    4    0    0  0.42087365568E+02 -0.16324985171E+02 -0.34075557141E+02  0.56559659438E+02  0.00000000000E+00 0. -1.
         -5    1    5    5    0  502  0.61136090417E+02 -0.88384678555E+01 -0.39629042878E+02  0.73541084469E+02  0.47000000000E+01 0.  1.
         13    1    6    6    0    0 -0.33979422041E+02  0.20681225356E+02 -0.83309871412E+01  0.40641352724E+02  0.00000000000E+00 0. -1.
        -14    1    6    6    0    0  0.26251975750E+02  0.47728290341E+02  0.52540754787E+02  0.75681482830E+02  0.00000000000E+00 0.  1.
</event>
<event>
12    1  0.8356052E-002  0.2377394E+03  0.7818608E-02  0.1121700E+00
         21   -1    0    0  501  502  0.00000000000E+00  0.00000000000E+00  0.17729669793E+03  0.17729669793E+03  0.00000000000E+00 0.  1.
         21   -1    0    0  502  503 -0.00000000000E+00 -0.00000000000E+00 -0.31858238302E+03  0.31858238302E+03  0.00000000000E+00 0. -1.
         -6    2    1    2    0  503 -0.11401849307E+03  0.11393487010E+03 -0.94589527520E+02  0.25586558428E+03  0.17475310331E+03 0.  0.
        -24    2    3    3    0    0 -0.44289682648E+01  0.74146676646E+02 -0.56372485517E+01  0.10914284501E+03  0.79768644399E+02 0.  0.
          6    2    1    2  501    0  0.11401849307E+03 -0.11393487010E+03 -0.46696157565E+02  0.24001349666E+03  0.17159421920E+03 0.  0.
         24    2    5    5    0    0  0.10158263038E+02 -0.10325935472E+02  0.10917588056E+02  0.82332830755E+02  0.80309937367E+02 0.  0.
          5    1    5    5  501    0  0.10386023003E+03 -0.10360893463E+03 -0.57613745621E+02  0.15768066591E+03  0.47000000000E+01 0. -1.
        -11    1    6    6    0    0  0.45088745734E+02 -0.93888436837E+01  0.12323616800E+01  0.46072378850E+02  0.00000000000E+00 0.  1.
         12    1    6    6    0    0 -0.34930482696E+02 -0.93709178862E+00  0.96852263760E+01  0.36260451905E+02  0.00000000000E+00 0. -1.
         -5    1    3    3    0  503 -0.10958952480E+03  0.39788193456E+02 -0.88952278969E+02  0.14672273927E+03  0.47000000000E+01 0.  1.
         11    1    4    4    0    0 -0.14645810462E+02  0.81267411382E+02 -0.24860979078E+02  0.86237811878E+02  0.00000000000E+00 0. -1.
        -12    1    4    4    0    0  0.10216842197E+02 -0.71207347359E+01  0.19223730526E+02  0.22905033137E+02  0.00000000000E+00 0.  1.
</event>
<event>
12    1  0.8356052E-002  0.1750206E+03  0.7818608E-02  0.1173225E+00
         21   -1    0    0  503  502  0.00000000000E+00  0.00000000000E+00  0.43046579437E+03  0.43046579437E+03  0.00000000000E+00 0. -1.
         21   -1    0    0  501  503 -0.00000000000E+00 -0.00000000000E+00 -0.75140063319E+02  0.75140063319E+02  0.00000000000E+00 0. -1.
          6    2    1    2  501    0  0.71156081855E+01  0.26868296046E+02  0.11276562582E+03  0.20649446410E+03  0.17073763535E+03 0.  0.
         24    2    3    3    0    0  0.68658318747E+02  0.18513856517E+02  0.90508156128E+02  0.14035229268E+03  0.80313835158E+02 0.  0.
         -6    2    1    2    0  502 -0.71156081855E+01 -0.26868296046E+02  0.24256010523E+03  0.29911139359E+03  0.17279954836E+03 0.  0.
        -24    2    5    5    0    0 -0.56466707610E+02 -0.51908982986E+01  0.21999061112E+03  0.24048620573E+03  0.78881630767E+02 0.  0.
          5    1    3    3  501    0 -0.61542710562E+02  0.83544395293E+01  0.22257469694E+02  0.66142171422E+02  0.47000000000E+01 0. -1.
        -11    1    4    4    0    0 -0.79135496519E+01  0.16922861907E+02 -0.35917839338E+01  0.19023891165E+02  0.00000000000E+00 0.  1.
         12    1    4    4    0    0  0.76571868399E+02  0.15909946100E+01  0.94099940062E+02  0.12132840151E+03  0.00000000000E+00 0. -1.
         -5    1    5    5    0  502  0.49351099425E+02 -0.21677397748E+02  0.22569494114E+02  0.58625187864E+02  0.47000000000E+01 0.  1.
         13    1    6    6    0    0 -0.15917785228E+01  0.22719279744E+02  0.17154323218E+02  0.28512632920E+02  0.00000000000E+00 0. -1.
        -14    1    6    6    0    0 -0.54874929087E+02 -0.27910178042E+02  0.20283628790E+03  0.21197357281E+03  0.00000000000E+00 0.  1.
</event>
<event>
12    1  0.8356052E-002  0.2344160E+03  0.7818608E-02  0.1123633E+00
         21   -1    0    0  503  502  0.00000000000E+00  0.00000000000E+00  0.28525587558E+03  0.28525587558E+03  0.00000000000E+00 0. -1.
         21   -1    0    0  501  503 -0.00000000000E+00 -0.00000000000E+00 -0.36645443298E+03  0.36645443298E+03  0.00000000000E+00 0. -1.
          6    2    1    2  501    0 -0.15239143107E+03 -0.46890372539E+02 -0.26519675217E+03  0.35370659594E+03  0.17133938063E+03 0.  0.
         24    2    3    3    0    0 -0.97513407998E+02  0.62545935517E+01 -0.70672410399E+02  0.14466642187E+03  0.79911196619E+02 0.  0.
         -6    2    1    2    0  502  0.15239143107E+03  0.46890372539E+02  0.18399819476E+03  0.29800371262E+03  0.17184010520E+03 0.  0.
        -24    2    5    5    0    0  0.51217665316E+02  0.91927234183E+02  0.11835001973E+03  0.16917738507E+03  0.59501216998E+02 0.  0.
          5    1    3    3  501    0 -0.54878023077E+02 -0.53144966091E+02 -0.19452434177E+03  0.20904017407E+03  0.47000000000E+01 0. -1.
        -11    1    4    4    0    0 -0.18071328204E+01  0.27325721455E+02 -0.22628447330E+02  0.35524743640E+02  0.00000000000E+00 0.  1.
         12    1    4    4    0    0 -0.95706275177E+02 -0.21071127904E+02 -0.48043963069E+02  0.10914167823E+03  0.00000000000E+00 0. -1.
         -5    1    5    5    0  502  0.10117376576E+03 -0.45036861644E+02  0.65648175039E+02  0.12882632755E+03  0.47000000000E+01 0.  1.
         11    1    6    6    0    0  0.57642676319E+02  0.45938142999E+02  0.63308704429E+02  0.97164721848E+02  0.00000000000E+00 0. -1.
        -12    1    6    6    0    0 -0.64250110026E+01  0.45989091185E+02  0.55041315296E+02  0.72012663219E+02  0.00000000000E+00 0.  1.
</event>
<event>
12    1  0.8356052E-002  0.1825596E+03  0.7818608E-02  0.1165371E+00
         21   -1    0    0  503  502  0.00000000000E+00  0.00000000000E+00  0.15338360591E+03  0.15338360591E+03  0.00000000000E+00 0. -1.
         21   -1    0    0  501  503 -0.00000000000E+00 -0.00000000000E+00 -0.27865040467E+03  0.27865040467E+03  0.00000000000E+00 0. -1.
          6    2    1    2  501    0 -0.27157194040E+02  0.56767162557E+02 -0.16408669380E+03  0.24539261812E+03  0.17126899898E+03 0.  0.
         24    2    3    3    0    0 -0.14316922966E+02  0.22003332827E+02 -0.36036088560E+01  0.80619116086E+02  0.76140232091E+02 0.  0.
         -6    2    1    2    0  502  0.27157194040E+02 -0.56767162557E+02  0.38819895045E+02  0.18664139246E+03  0.17137094619E+03 0.  0.
        -24    2    5    5    0    0 -0.44330138135E+02 -0.59043475738E+02  0.40452244762E+02  0.11494498510E+03  0.78260285708E+02 0.  0.
          5    1    3    3  501    0 -0.12840271074E+02  0.34763829729E+02 -0.16048308494E+03  0.16477350203E+03  0.47000000000E+01 0. -1.
        -11    1    4    4    0    0 -0.25593871510E+02  0.42853918376E+02 -0.17793676782E+02  0.52991692863E+02  0.00000000000E+00 0.  1.
         12    1    4    4    0    0  0.11276948544E+02 -0.20850585548E+02  0.14190067926E+02  0.27627423223E+02  0.00000000000E+00 0. -1.
         -5    1    5    5    0  502  0.71487332175E+02  0.22763131818E+01 -0.16323497177E+01  0.71696407363E+02  0.47000000000E+01 0.  1.
         13    1    6    6    0    0 -0.43175215798E+02  0.49087854525E+01  0.19598944905E+02  0.47668795613E+02  0.00000000000E+00 0. -1.
        -14    1    6    6    0    0 -0.11549223370E+01 -0.63952261191E+02  0.20853299857E+02  0.67276189488E+02  0.00000000000E+00 0.  1.
</event>
<event>
12    1  0.8356052E-002  0.1773100E+03  0.7818608E-02  0.1170927E+00
         21   -1    0    0  503  502  0.00000000000E+00  0.00000000000E+00  0.24060525077E+03  0.24060525077E+03  0.00000000000E+00 0.  1.
         21   -1    0    0  501  503 -0.00000000000E+00 -0.00000000000E+00 -0.14115175890E+03  0.14115175890E+03  0.00000000000E+00 0.  1.
          6    2    1    2  501    0 -0.32054447539E+02  0.20367970642E+02  0.10552369427E+03  0.20633492349E+03  0.17319500214E+03 0.  0.
         24    2    3    3    0    0 -0.52068558161E+02  0.38544925025E+02  0.50357575449E+01  0.10216735790E+03  0.78841386159E+02 0.  0.
         -6    2    1    2    0  502  0.32054447539E+02 -0.20367970642E+02 -0.60702023975E+01  0.17542208617E+03  0.17115408007E+03 0.  0.
        -24    2    5    5    0    0  0.41990731546E+02  0.46855796025E+02  0.10795889398E+01  0.10693140023E+03  0.86455026957E+02 0.  0.
          5    1    3    3  501    0  0.20014110622E+02 -0.18176954383E+02  0.10048793673E+03  0.10416756560E+03  0.47000000000E+01 0. -1.
        -11    1    4    4    0    0 -0.35371780765E+02  0.33792885486E+02  0.39960430245E+02  0.63166114091E+02  0.00000000000E+00 0.  1.
         12    1    4    4    0    0 -0.16696777396E+02  0.47520395390E+01 -0.34924672700E+02  0.39001243806E+02  0.00000000000E+00 0. -1.
         -5    1    5    5    0  502 -0.99362840069E+01 -0.67223766667E+02 -0.71497913373E+01  0.68490685943E+02  0.47000000000E+01 0.  1.
         11    1    6    6    0    0 -0.25527180918E+02  0.19195754147E+02 -0.92215665430E+01  0.33243814950E+02  0.00000000000E+00 0. -1.
        -12    1    6    6    0    0  0.67517912464E+02  0.27660041878E+02  0.10301155483E+02  0.73687585281E+02  0.00000000000E+00 0.  1.
</event>
<event>
12    1  0.8356052E-002  0.2104220E+03  0.7818608E-02  0.1141263E+00
         21   -1    0    0  503  502  0.00000000000E+00  0.00000000000E+00  0.22067884917E+02  0.22067884917E+02  0.00000000000E+00 0.  1.
         21   -1    0    0  501  503 -0.00000000000E+00 -0.00000000000E+00 -0.21126118449E+04  0.21126118449E+04  0.00000000000E+00 0.  1.
          6    2    1    2  501    0  0.11813360245E+03 -0.26905441116E+02 -0.12858490508E+04  0.13029277851E+04  0.17185337015E+03 0.  0.
         24    2    3    3    0    0  0.36163172353E+02 -0.72232597731E+02 -0.80351961163E+03  0.81156490446E+03  0.80427014521E+02 0.  0.
         -6    2    1    2    0  502 -0.11813360245E+03  0.26905441116E+02 -0.80469490915E+03  0.83175194473E+03  0.17204054743E+03 0.  0.
        -24    2    5    5    0    0 -0.66749777665E+02  0.71279142075E+02 -0.65928101163E+03  0.67120097345E+03  0.79517580153E+02 0.  0.
          5    1    3    3  501    0  0.81970430099E+02  0.45327156615E+02 -0.48232943919E+03  0.49136288061E+03  0.47000000000E+01 0. -1.
        -13    1    4    4    0    0  0.51276057229E+02 -0.50001420975E+02 -0.35017433787E+03  0.35742333870E+03  0.00000000000E+00 0.  1.
         14    1    4    4    0    0 -0.15112884876E+02 -0.22231176756E+02 -0.45334527376E+03  0.45414156576E+03  0.00000000000E+00 0. -1.
         -5    1    5    5    0  502 -0.51383824787E+02 -0.44373700959E+02 -0.14541389752E+03  0.16055097128E+03  0.47000000000E+01 0.  1.
         13    1    6    6    0    0 -0.12717002984E+02  0.30496031261E+02 -0.45069493516E+03  0.45190447516E+03  0.00000000000E+00 0. -1.
        -14    1    6    6    0    0 -0.54032774681E+02  0.40783110814E+02 -0.20858607647E+03  0.21929649829E+03  0.00000000000E+00 0.  1.
</event>
<event>
12    1  0.8356052E-002  0.1985085E+03  0.7818608E-02  0.1151126E+00
         21   -1    0    0  501  502  0.00000000000E+00  0.00000000000E+00  0.13665400922E+04  0.13665400922E+04  0.00000000000E+00 0. -1.
         21   -1    0    0  502  503 -0.00000000000E+00 -0.00000000000E+00 -0.34554854731E+02  0.34554854731E+02  0.00000000000E+00 0. -1.
         -6    2    1    2    0  503 -0.75361555150E+02 -0.65396929890E+02  0.37972952274E+03  0.42848585042E+03  0.17160854040E+03 0.  0.
        -24    2    3    3    0    0 -0.82488320548E+02 -0.96246723283E+02  0.22179971872E+03  0.26734487632E+03  0.78806172979E+02 0.  0.
          6    2    1    2  501    0  0.75361555150E+02  0.65396929890E+02  0.95225571476E+03  0.97260909654E+03  0.17094263934E+03 0.  0.
         24    2    5    5    0    0  0.43296726014E+02  0.52402648949E+02  0.27250465449E+03  0.29196190560E+03  0.79764174283E+02 0.  0.
          5    1    5    5  501    0  0.32064829136E+02  0.12994280941E+02  0.67975106027E+03  0.68064719094E+03  0.47000000000E+01 0. -1.
        -13    1    6    6    0    0  0.54888886322E+02  0.60093374120E+01  0.17230635613E+03  0.18093750949E+03  0.00000000000E+00 0.  1.
         14    1    6    6    0    0 -0.11592160308E+02  0.46393311537E+02  0.10019829836E+03  0.11102439611E+03  0.00000000000E+00 0. -1.
         -5    1    3    3    0  503  0.71267653980E+01  0.30849793392E+02  0.15792980401E+03  0.16114097410E+03  0.47000000000E+01 0.  1.
         11    1    4    4    0    0 -0.11388147635E+02 -0.66550519767E+02  0.70866253221E+02  0.97880986067E+02  0.00000000000E+00 0. -1.
        -12    1    4    4    0    0 -0.71100172913E+02 -0.29696203516E+02  0.15093346550E+03  0.16946389026E+03  0.00000000000E+00 0.  1.
</event>
<event>
12    1  0.8356052E-002  0.2432532E+03  0.7818608E-02  0.1117748E+00
         21   -1    0    0  503  502  0.00000000000E+00  0.00000000000E+00  0.31968426232E+03  0.31968426232E+03  0.00000000000E+00 0. -1.
         21   -1    0    0  501  503 -0.00000000000E+00 -0.00000000000E+00 -0.14583823055E+04  0.14583823055E+04  0.00000000000E+00 0. -1.
          6    2    1    2  501    0 -0.17083047892E+03 -0.19751792651E+02 -0.14003021253E+04  0.14212734239E+04  0.17204335973E+03 0.  0.
         24    2    3    3    0    0 -0.77156509138E+02 -0.16483468785E+02 -0.36345243968E+03  0.38018512071E+03  0.78855681155E+02 0.  0.
         -6    2    1    2    0  502  0.17083047892E+03  0.19751792651E+02  0.26160408208E+03  0.35679314392E+03  0.17114749763E+03 0.  0.
        -24    2    5    5    0    0  0.18805835996E+03 -0.12671188083E+02  0.23049132741E+03  0.30843879492E+03  0.80509207171E+02 0.  0.
          5    1    3    3  501    0 -0.93673969785E+02 -0.32683238653E+01 -0.10368496856E+04  0.10410883032E+04  0.47000000000E+01 0. -1.
        -11    1    4    4    0    0 -0.25712159745E+02  0.21392471485E+02 -0.49119975920E+02  0.59426635690E+02  0.00000000000E+00 0.  1.
         12    1    4    4    0    0 -0.51444349393E+02 -0.37875940271E+02 -0.31433246376E+03  0.32075848502E+03  0.00000000000E+00 0. -1.
         -5    1    5    5    0  502 -0.17227881034E+02  0.32422980733E+02  0.31112754668E+02  0.48354349004E+02  0.47000000000E+01 0.  1.
         13    1    6    6    0    0  0.83593809070E+02  0.24741353053E+02  0.14149983670E+03  0.16619946827E+03  0.00000000000E+00 0. -1.
        -14    1    6    6    0    0  0.10446455089E+03 -0.37412541136E+02  0.88991490710E+02  0.14223932665E+03  0.00000000000E+00 0.  1.
</event>
<event>
12    1  0.8356052E-002  0.2188435E+03  0.7818608E-02  0.1134958E+00
         21   -1    0    0  501  502  0.00000000000E+00  0.00000000000E+00  0.99665317419E+02  0.99665317419E+02  0.00000000000E+00 0.  1.
         21   -1    0    0  502  503 -0.00000000000E+00 -0.00000000000E+00 -0.49415656625E+03  0.49415656625E+03  0.00000000000E+00 0.  1.
         -6    2    1    2    0  503 -0.54498306092E+02 -0.12288240024E+03 -0.25127965561E+03  0.33321759224E+03  0.17269148445E+03 0.  0.
        -24    2    3    3    0    0  0.10520870811E+02 -0.28909280079E+01 -0.73415527058E+02  0.10897846765E+03  0.79796119020E+02 0.  0.
          6    2    1    2  501    0  0.54498306092E+02  0.12288240024E+03 -0.14321159322E+03  0.26060429143E+03  0.17127430228E+03 0.  0.
         24    2    5    5    0    0  0.77706684316E+02  0.29408731481E+02 -0.80560502142E+02  0.14561209698E+03  0.88372427863E+02 0.  0.
          5    1    5    5  501    0 -0.23208378223E+02  0.93473668756E+02 -0.62651091080E+02  0.11499219445E+03  0.47000000000E+01 0. -1.
        -13    1    6    6    0    0  0.16628669004E+02  0.43772545572E+02 -0.45425283913E+01  0.47044478346E+02  0.00000000000E+00 0.  1.
         14    1    6    6    0    0  0.61078015312E+02 -0.14363814090E+02 -0.76017973751E+02  0.98567618632E+02  0.00000000000E+00 0. -1.
         -5    1    3    3    0  503 -0.65019176903E+02 -0.11999147223E+03 -0.17786412855E+03  0.22423912459E+03  0.47000000000E+01 0.  1.
         11    1    4    4    0    0  0.20106132740E+02 -0.35177868636E+02 -0.60694424877E+02  0.72976381293E+02  0.00000000000E+00 0. -1.
        -12    1    4    4    0    0 -0.95852619287E+01  0.32286940628E+02 -0.12721102181E+02  0.36002086357E+02  0.00000000000E+00 0.  1.
</event>
<event>
12    1  0.8356052E-002  0.1786696E+03  0.7818608E-02  0.1169307E+00
         21   -1    0    0  503  502  0.00000000000E+00  0.00000000000E+00  0.12066612251E+03  0.12066612251E+03  0.00000000000E+00 0. -1.
         21   -1    0    0  501  503 -0.00000000000E+00 -0.00000000000E+00 -0.36868340391E+03  0.36868340391E+03  0.00000000000E+00 0. -1.
          6    2    1    2  501    0  0.24919568866E+02  0.35192257495E+02 -0.25461492200E+03  0.31055814417E+03  0.17250542746E+03 0.  0.
         24    2    3    3    0    0 -0.41281503871E+02  0.90167720896E+01 -0.75470642439E+02  0.11773049841E+03  0.79869816861E+02 0.  0.
         -6    2    1    2    0  502 -0.24919568866E+02 -0.35192257495E+02  0.65976405942E+01  0.17879138225E+03  0.17338785888E+03 0.  0.
        -24    2    5    5    0    0 -0.28305811460E+02  0.24492423840E+02  0.53412143981E+02  0.10271631701E+03  0.79351665809E+02 0.  0.
          5    1    3    3  501    0  0.66201072737E+02  0.26175485405E+02 -0.17914427956E+03  0.19282764576E+03  0.47000000000E+01 0. -1.
        -13    1    4    4    0    0 -0.15007988227E+02  0.63408319930E+01 -0.87289563774E+02  0.88797037140E+02  0.00000000000E+00 0.  1.
         14    1    4    4    0    0 -0.26273515644E+02  0.26759400967E+01  0.11818921335E+02  0.28933461273E+02  0.00000000000E+00 0. -1.
         -5    1    5    5    0  502  0.33862425944E+01 -0.59684681335E+02 -0.46814503387E+02  0.76075065247E+02  0.47000000000E+01 0.  1.
         13    1    6    6    0    0  0.71050230732E+01 -0.18421556029E+02 -0.66599041752E+01  0.20837211978E+02  0.00000000000E+00 0. -1.
        -14    1    6    6    0    0 -0.35410834533E+02  0.42913979869E+02  0.60072048157E+02  0.81879105028E+02  0.00000000000E+00 0.  1.
</event>
<event>
12    1  0.8356052E-002  0.1940395E+03  0.7818608E-02  0.1154901E+00
         21   -1    0    0  501  502  0.00000000000E+00  0.00000000000E+00  0.52150936626E+03  0.52150936626E+03  0.00000000000E+00 0. -1.
         21   -1    0    0  502  503 -0.00000000000E+00 -0.00000000000E+00 -0.12903308150E+03  0.12903308150E+03  0.00000000000E+00 0. -1.
         -6    2    1    2    0  503  0.84990643743E+01  0.88880707244E+02 -0.19790805683E+02  0.19489401162E+03  0.17210457739E+03 0.  0.
        -24    2    3    3    0    0  0.37903691054E+02  0.12222266534E+03 -0.18690122145E+02  0.15017690365E+03  0.76346001902E+02 0.  0.
          6    2    1    2  501    0 -0.84990643743E+01 -0.88880707244E+02  0.41226709045E+03  0.45564843615E+03  0.17227689711E+03 0.  0.
         24    2    5    5    0    0  0.54477444092E+02 -0.76177831286E+02  0.32222043124E+03  0.34493306001E+03  0.79887143458E+02 0.  0.
          5    1    5    5  501    0 -0.62976508466E+02 -0.12702875958E+02  0.90046659216E+02  0.11071537613E+03  0.47000000000E+01 0. -1.
        -11    1    6    6    0    0 -0.19336146021E+02 -0.78782576928E+01  0.36750462479E+02  0.42267599643E+02  0.00000000000E+00 0.  1.
         12    1    6    6    0    0  0.73813590113E+02 -0.68299573593E+02  0.28546996876E+03  0.30266546037E+03  0.00000000000E+00 0. -1.
         -5    1    3    3    0  503 -0.29404626680E+02 -0.33341958100E+02 -0.11006835382E+01  0.44717107960E+02  0.47000000000E+01 0.  1.
         11    1    4    4    0    0  0.89689458927E+01  0.83207172686E+02  0.22310684401E+02  0.86612021193E+02  0.00000000000E+00 0. -1.
        -12    1    4    4    0    0  0.28934745161E+02  0.39015492658E+02 -0.41000806546E+02  0.63564882461E+02  0.00000000000E+00 0.  1.
</event>
<event>
12    1  0.8356052E-002  0.2168904E+03  0.7818608E-02  0.1136239E+00
         21   -1    0    0  501  502  0.00000000000E+00  0.00000000000E+00  0.18815048094E+03  0.18815048094E+03  0.00000000000E+00 0.  1.
         21   -1    0    0  502  503 -0.00000000000E+00 -0.00000000000E+00 -0.25585458340E+03  0.25585458340E+03  0.00000000000E+00 0. -1.
         -6    2    1    2    0  503  0.13134702513E+03  0.80592067216E+01 -0.67654710563E+02  0.22719727949E+03  0.17240780760E+03 0.  0.
        -24    2    3    3    0    0  0.40508932506E+02  0.30386830885E+02  0.21025179061E+02  0.98215518390E+02  0.81485561875E+02 0.  0.
          6    2    1    2  501    0 -0.13134702513E+03 -0.80592067216E+01 -0.49391899383E-01  0.21680778485E+03  0.17230386331E+03 0.  0.
         24    2    5    5    0    0 -0.10951583305E+03 -0.13262837952E+02  0.62502492686E+02  0.15018566397E+03  0.80495661447E+02 0.  0.
          5    1    5    5  501    0 -0.21831192085E+02  0.52036312308E+01 -0.62551884586E+02  0.66622120884E+02  0.47000000000E+01 0. -1.
        -11    1    6    6    0    0 -0.73540697515E+02 -0.46927423899E+02  0.41973207163E+02  0.96809955192E+02  0.00000000000E+00 0.  1.
         12    1    6    6    0    0 -0.35975135530E+02  0.33664585947E+02  0.20529285523E+02  0.53375708777E+02  0.00000000000E+00 0. -1.
         -5    1    3    3    0  503  0.90838092624E+02 -0.22327624163E+02 -0.88679889624E+02  0.12898176110E+03  0.47000000000E+01 0.  1.
         13    1    4    4    0    0  0.33937005127E+02  0.23669968288E+02 -0.26917004837E+02  0.49361046030E+02  0.00000000000E+00 0. -1.
        -14    1    4    4    0    0  0.65719273795E+01  0.67168625972E+01  0.47942183899E+02  0.48854472360E+02  0.00000000000E+00 0.  1.
</event>
<event>
12    1  0.8356052E-002  0.1808198E+03  0.7818608E-02  0.1168446E+00
         21   -1    0    0  503  502  0.00000000000E+00  0.00000000000E+00  0.15894484359E+03  0.15894484359E+03  0.00000000000E+00 0. -1.
         21   -1    0    0  501  503 -0.00000000000E+00 -0.00000000000E+00 -0.49202811397E+03  0.49202811397E+03  0.00000000000E+00 0. -1.
          6    2    1    2  501    0 -0.31724681315E+02 -0.48183492067E+02 -0.41656216268E+03  0.45181344771E+03  0.16517642643E+03 0.  0.
         24    2    3    3    0    0 -0.81332032964E+02 -0.57520954861E+02 -0.25757803867E+03  0.28494188262E+03  0.70156044879E+02 0.  0.
         -6    2    1    2    0  502  0.31724681315E+02  0.48183492067E+02  0.83478892296E+02  0.19915950984E+03  0.17137001076E+03 0.  0.
        -24    2    5    5    0    0  0.78795675487E+02  0.11088193732E+02  0.73733366954E+02  0.13825955159E+03  0.85716904329E+02 0.  0.
          5    1    3    3  501    0  0.49607351649E+02  0.93374627941E+01 -0.15898412401E+03  0.16687156510E+03  0.47000000000E+01 0. -1.
        -11    1    4    4    0    0 -0.47637532522E+02 -0.53281673675E+02 -0.95159363130E+02  0.11901082155E+03  0.00000000000E+00 0.  1.
         12    1    4    4    0    0 -0.33694500442E+02 -0.42392811868E+01 -0.16241867554E+03  0.16593106107E+03  0.00000000000E+00 0. -1.
         -5    1    5    5    0  502 -0.47070994172E+02  0.37095298336E+02  0.97455253424E+01  0.60899958252E+02  0.47000000000E+01 0.  1.
         13    1    6    6    0    0  0.94423358646E+01  0.28731174736E+02  0.57365392566E+02  0.64849258844E+02  0.00000000000E+00 0. -1.
        -14    1    6    6    0    0  0.69353339623E+02 -0.17642981004E+02  0.16367974387E+02  0.73410292746E+02  0.00000000000E+00 0.  1.
</event>
<event>
12    1  0.8356052E-002  0.1881926E+03  0.7818608E-02  0.1160346E+00
         21   -1    0    0  503  502  0.00000000000E+00  0.00000000000E+00  0.41615536610E+03  0.41615536610E+03  0.00000000000E+00 0.  1.
         21   -1    0    0  501  503 -0.00000000000E+00 -0.00000000000E+00 -0.19529724133E+03  0.19529724133E+03  0.00000000000E+00 0.  1.
          6    2    1    2  501    0  0.61635505142E+02  0.46649645278E+02 -0.11958422749E+03  0.22297274945E+03  0.17158477390E+03 0.  0.
         24    2    3    3    0    0  0.52078567329E+02  0.54354173928E+02 -0.10443326310E+02  0.11304313046E+03  0.83684723101E+02 0.  0.
         -6    2    1    2    0  502 -0.61635505142E+02 -0.46649645278E+02  0.34044235227E+03  0.38847985797E+03  0.17041267539E+03 0.  0.
        -24    2    5    5    0    0  0.30395560010E+02 -0.26827025018E+02  0.12932897397E+03  0.15727950823E+03  0.79795243343E+02 0.  0.
          5    1    3    3  501    0  0.95569378136E+01 -0.77045286500E+01 -0.10914090118E+03  0.10992961900E+03  0.47000000000E+01 0. -1.
        -11    1    4    4    0    0  0.31979459570E+01  0.27074322617E+02 -0.41024216131E+02  0.49256797629E+02  0.00000000000E+00 0.  1.
         12    1    4    4    0    0  0.48880621372E+02  0.27279851311E+02  0.30580889821E+02  0.63786332827E+02  0.00000000000E+00 0. -1.
         -5    1    5    5    0  502 -0.92031065152E+02 -0.19822620260E+02  0.21111337829E+03  0.23120034974E+03  0.47000000000E+01 0.  1.
         11    1    6    6    0    0  0.21744842314E+02  0.22417967778E+02  0.84645580388E+02  0.90223487661E+02  0.00000000000E+00 0. -1.
        -12    1    6    6    0    0  0.86507176959E+01 -0.49244992796E+02  0.44683393587E+02  0.67056020569E+02  0.00000000000E+00 0.  1.
</event>
<event>
12    1  0.8356052E-002  0.2558102E+03  0.7818608E-02  0.1109753E+00
         21   -1    0    0  503  502  0.00000000000E+00  0.00000000000E+00  0.45044370471E+02  0.45044370471E+02  0.00000000000E+00 0.  1.
         21   -1    0    0  501  503 -0.00000000000E+00 -0.00000000000E+00 -0.14505904921E+04  0.14505904921E+04  0.00000000000E+00 0. -1.
          6    2    1    2  501    0 -0.18215565572E+03 -0.50404429554E+02 -0.69233288801E+03  0.73793308497E+03  0.17175308047E+03 0.  0.
         24    2    3    3    0    0 -0.97661078865E+02 -0.96424377365E+02 -0.44821482419E+03  0.47549663896E+03  0.79782066664E+02 0.  0.
         -6    2    1    2    0  502  0.18215565572E+03  0.50404429554E+02 -0.71321323366E+03  0.75770177764E+03  0.17238787005E+03 0.  0.
        -24    2    5    5    0    0  0.11350891876E+03  0.11258575500E+02 -0.61885217537E+03  0.63453168506E+03  0.81494872354E+02 0.  0.
          5    1    3    3  501    0 -0.84494576853E+02  0.46019947811E+02 -0.24411806382E+03  0.26243644601E+03  0.47000000000E+01 0. -1.
        -11    1    4    4    0    0 -0.70085233536E+02 -0.84320410264E+02 -0.22537119359E+03  0.25062730587E+03  0.00000000000E+00 0.  1.
         12    1    4    4    0    0 -0.27575845329E+02 -0.12103967102E+02 -0.22284363059E+03  0.22486933308E+03  0.00000000000E+00 0. -1.
         -5    1    5    5    0  502  0.68646736961E+02  0.39145854054E+02 -0.94361058284E+02  0.12317009258E+03  0.47000000000E+01 0.  1.
         13    1    6    6    0    0  0.92370145034E+01 -0.26351765523E+02 -0.91977343738E+02  0.96122680696E+02  0.00000000000E+00 0. -1.
        -14    1    6    6    0    0  0.10427190425E+03  0.37610341023E+02 -0.52687483163E+03  0.53840900436E+03  0.00000000000E+00 0.  1.
</event>
<event>
12    1  0.8356052E-002  0.1779381E+03  0.7818608E-02  0.1170683E+00
         21   -1    0    0  503  502  0.00000000000E+00  0.00000000000E+00  0.42751729814E+02  0.42751729814E+02  0.00000000000E+00 0.  1.
         21   -1    0    0  501  503 -0.00000000000E+00 -0.00000000000E+00 -0.80264621950E+03  0.80264621950E+03  0.00000000000E+00 0.  1.
          6    2    1    2  501    0  0.20268245360E+02 -0.14370649847E+02 -0.50706260392E+03  0.53622823491E+03  0.17265838604E+03 0.  0.
         24    2    3    3    0    0 -0.57642817296E+01 -0.15434325530E+02 -0.10565311790E+03  0.13394663039E+03  0.80670150122E+02 0.  0.
         -6    2    1    2    0  502 -0.20268245360E+02  0.14370649847E+02 -0.25283188576E+03  0.30916971440E+03  0.17619487081E+03 0.  0.
        -24    2    5    5    0    0 -0.46154035017E+02  0.68375312331E+02 -0.14199297871E+03  0.18309857975E+03  0.80979661758E+02 0.  0.
          5    1    3    3  501    0  0.26032527090E+02  0.10636756836E+01 -0.40140948602E+03  0.40228160452E+03  0.47000000000E+01 0. -1.
        -13    1    4    4    0    0 -0.26762593522E+02  0.22865200092E+02 -0.28514577379E+02  0.45300495697E+02  0.00000000000E+00 0.  1.
         14    1    4    4    0    0  0.20998311793E+02 -0.38299525622E+02 -0.77138540525E+02  0.88646134690E+02  0.00000000000E+00 0. -1.
         -5    1    5    5    0  502  0.25885789657E+02 -0.54004662484E+02 -0.11083890706E+03  0.12607113466E+03  0.47000000000E+01 0.  1.
         11    1    6    6    0    0 -0.41021436757E+02  0.15139543948E+02 -0.16590741650E+02  0.46767689413E+02  0.00000000000E+00 0. -1.
        -12    1    6    6    0    0 -0.51325982600E+01  0.53235768383E+02 -0.12540223706E+03  0.13633089033E+03  0.00000000000E+00 0.  1.
</event>
<event>
12    1  0.8356052E-002  0.1929327E+03  0.7818608E-02  0.1156008E+00
         21   -1    0    0  501  502  0.00000000000E+00  0.00000000000E+00  0.10752725834E+03  0.10752725834E+03  0.00000000000E+00 0. -1.
         21   -1    0    0  502  503 -0.00000000000E+00 -0.00000000000E+00 -0.96428949058E+03  0.96428949058E+03  0.00000000000E+00 0. -1.
         -6    2    1    2    0  503  0.55276179202E+02  0.62934480740E+02 -0.85820603417E+03  0.87962527070E+03  0.17380107858E+03 0.  0.
        -24    2    3    3    0    0  0.88488775127E+02  0.34193934701E+02 -0.37858894925E+03  0.39797837342E+03  0.77831257991E+02 0.  0.
          6    2    1    2  501    0 -0.55276179202E+02 -0.62934480740E+02  0.14438019280E+01  0.19219147822E+03  0.17297189044E+03 0.  0.
         24    2    5    5    0    0  0.15508618632E+02 -0.78781776250E+02  0.25235177665E+02  0.11570785946E+03  0.79400308740E+02 0.  0.
          5    1    5    5  501    0 -0.70784797834E+02  0.15847295509E+02 -0.23791375737E+02  0.76483618761E+02  0.47000000000E+01 0. -1.
        -11    1    6    6    0    0  0.12153993881E+02 -0.61342824513E+02 -0.21169431993E+02  0.66021258223E+02  0.00000000000E+00 0.  1.
         12    1    6    6    0    0  0.33546247513E+01 -0.17438951737E+02  0.46404609658E+02  0.49686601236E+02  0.00000000000E+00 0. -1.
         -5    1    3    3    0  503 -0.33212595925E+02  0.28740546039E+02 -0.47961708492E+03  0.48164689728E+03  0.47000000000E+01 0.  1.
         13    1    4    4    0    0 -0.94771908790E+01  0.17384799402E+01 -0.10715169764E+03  0.10758404049E+03  0.00000000000E+00 0. -1.
        -14    1    4    4    0    0  0.97965966006E+02  0.32455454761E+02 -0.27143725161E+03  0.29039433293E+03  0.00000000000E+00 0.  1.
</event>
<event>
12    1  0.8356052E-002  0.2225900E+03  0.7818608E-02  0.1132262E+00
         21   -1    0    0  501  502  0.00000000000E+00  0.00000000000E+00  0.66463892137E+03  0.66463892137E+03  0.00000000000E+00 0. -1.
         21   -1    0    0  502  503 -0.00000000000E+00 -0.00000000000E+00 -0.89098059731E+02  0.89098059731E+02  0.00000000000E+00 0. -1.
         -6    2    1    2    0  503 -0.66768278369E+02  0.12266877204E+03  0.13354893868E+03  0.25957973641E+03  0.17332250258E+03 0.  0.
        -24    2    3    3    0    0 -0.10062548752E+03  0.59228910793E+02  0.52870923240E+02  0.15140414405E+03  0.80587391692E+02 0.  0.
          6    2    1    2  501    0  0.66768278369E+02 -0.12266877204E+03  0.44199192296E+03  0.49415724469E+03  0.17125680100E+03 0.  0.
         24    2    5    5    0    0  0.34916707594E+01 -0.44458528803E+02  0.84206279484E+02  0.12246728263E+03  0.76933641942E+02 0.  0.
          5    1    5    5  501    0  0.63276607610E+02 -0.78210243240E+02  0.35778564347E+03  0.37168996206E+03  0.47000000000E+01 0. -1.
        -11    1    6    6    0    0  0.30613350768E+02 -0.37350181330E+02  0.19747119619E+02  0.52174342582E+02  0.00000000000E+00 0.  1.
         12    1    6    6    0    0 -0.27121680008E+02 -0.71083474724E+01  0.64459159864E+02  0.70292940048E+02  0.00000000000E+00 0. -1.
         -5    1    3    3    0  503  0.33857209151E+02  0.63439861250E+02  0.80678015438E+02  0.10817559236E+03  0.47000000000E+01 0.  1.
         11    1    4    4    0    0 -0.24291793358E+02  0.52157082297E+02  0.47403341492E+02  0.74548837972E+02  0.00000000000E+00 0. -1.
        -12    1    4    4    0    0 -0.76333694161E+02  0.70718284958E+01  0.54675817480E+01  0.76855306081E+02  0.00000000000E+00 0.  1.
</event>
<event>
12    1  0.8356052E-002  0.2632670E+03  0.7818608E-02  0.1105226E+00
         21   -1    0    0  501  502  0.00000000000E+00  0.00000000000E+00  0.21890546630E+03  0.21890546630E+03  0.00000000000E+00 0. -1.
         21   -1    0    0  502  503 -0.00000000000E+00 -0.00000000000E+00 -0.41526687038E+03  0.41526687038E+03  0.00000000000E+00 0.  1.
         -6    2    1    2    0  503  0.42802939166E+02 -0.19430138037E+03 -0.25289087585E+03  0.36490465249E+03  0.17209442845E+03 0.  0.
        -24    2    3    3    0    0  0.13275181588E+02 -0.23323712300E+02 -0.11226704518E+03  0.14151619442E+03  0.81870127932E+02 0.  0.
          6    2    1    2  501    0 -0.42802939166E+02  0.19430138037E+03  0.56529471777E+02  0.26926768419E+03  0.17240761746E+03 0.  0.
         24    2    5    5    0    0 -0.29871229459E+02  0.42431910025E+02 -0.20489573370E+02  0.98429783088E+02  0.81091567035E+02 0.  0.
          5    1    5    5  501    0 -0.12931709707E+02  0.15186947034E+03  0.77019045148E+02  0.17083790110E+03  0.47000000000E+01 0. -1.
        -11    1    6    6    0    0 -0.41052311584E+02  0.55186218546E+02 -0.34018429627E+02  0.76733725037E+02  0.00000000000E+00 0.  1.
         12    1    6    6    0    0  0.11181082125E+02 -0.12754308522E+02  0.13528856257E+02  0.21696058051E+02  0.00000000000E+00 0. -1.
         -5    1    3    3    0  503  0.29527757578E+02 -0.17097766807E+03 -0.14062383067E+03  0.22338845807E+03  0.47000000000E+01 0.  1.
         11    1    4    4    0    0 -0.33219205627E+02 -0.13900522028E+02 -0.31480276556E+02  0.47830408186E+02  0.00000000000E+00 0. -1.
        -12    1    4    4    0    0  0.46494387215E+02 -0.94231902718E+01 -0.80786768625E+02  0.93685786234E+02  0.00000000000E+00 0.  1.
</event>
<event>
12    1  0.8356052E-002  0.1915520E+03  0.7818608E-02  0.1157627E+00
         21   -1    0    0  503  502  0.00000000000E+00  0.00000000000E+00  0.11906324690E+04  0.11906324690E+04  0.00000000000E+00 0.  1.
         21   -1    0    0  501  503 -0.00000000000E+00 -0.00000000000E+00 -0.37158411285E+02  0.37158411285E+02  0.00000000000E+00 0.  1.
          6    2    1    2  501    0  0.32666509680E+02  0.70423950246E+02  0.31221114927E+03  0.36499574760E+03  0.17239333055E+03 0.  0.
         24    2    3    3    0    0  0.46867371873E+02 -0.13928834723E+02  0.10624060969E+03  0.14191950505E+03  0.80395993569E+02 0.  0.
         -6    2    1    2    0  502 -0.32666509680E+02 -0.70423950246E+02  0.84126290840E+03  0.86279513264E+03  0.17511575095E+03 0.  0.
        -24    2    5    5    0    0  0.55250706951E+02 -0.35020100580E+02  0.28534078703E+03  0.29883204468E+03  0.60018148264E+02 0.  0.
          5    1    3    3  501    0 -0.14200862194E+02  0.84352784969E+02  0.20597053958E+03  0.22307624256E+03  0.47000000000E+01 0. -1.
        -11    1    4    4    0    0 -0.64007930838E+01  0.26132405382E+02  0.23930760995E+02  0.36007694802E+02  0.00000000000E+00 0.  1.
         12    1    4    4    0    0  0.53268164957E+02 -0.40061240106E+02  0.82309848698E+02  0.10591181025E+03  0.00000000000E+00 0. -1.
         -5    1    5    5    0  502 -0.87917216631E+02 -0.35403849666E+02  0.55592212137E+03  0.56396308796E+03  0.47000000000E+01 0.  1.
         13    1    6    6    0    0  0.60280164811E+02 -0.90756775949E+01  0.22155447764E+03  0.22978784293E+03  0.00000000000E+00 0. -1.
        -14    1    6    6    0    0 -0.50294578599E+01 -0.25944422985E+02  0.63786309389E+02  0.69044201754E+02  0.00000000000E+00 0.  1.
</event>
<event>
12    1  0.8356052E-002  0.1754048E+03  0.7818608E-02  0.1173073E+00
         21   -1    0    0  503  502  0.00000000000E+00  0.00000000000E+00  0.16121914280E+02  0.16121914280E+02  0.00000000000E+00 0. -1.
         21   -1    0    0  501  503 -0.00000000000E+00 -0.00000000000E+00 -0.24512331201E+04  0.24512331201E+04  0.00000000000E+00 0. -1.
          6    2    1    2  501    0  0.27146495689E+02  0.81346827541E+01 -0.18229082024E+04  0.18313277013E+04  0.17310034652E+03 0.  0.
         24    2    3    3    0    0  0.82803929252E+02  0.83836779144E+01 -0.14389771944E+04  0.14433548662E+04  0.75439558265E+02 0.  0.
         -6    2    1    2    0  502 -0.27146495689E+02 -0.81346827541E+01 -0.61220300347E+03  0.63602733310E+03  0.17010333832E+03 0.  0.
        -24    2    5    5    0    0 -0.65327130418E+02 -0.43539344952E+02 -0.37652275306E+03  0.39461788547E+03  0.88264281761E+02 0.  0.
          5    1    3    3  501    0 -0.55657433562E+02 -0.24899516031E+00 -0.38393100793E+03  0.38797283508E+03  0.47000000000E+01 0. -1.
        -11    1    4    4    0    0 -0.10059637373E+02 -0.10489885823E+02 -0.10289695078E+03  0.10391831642E+03  0.00000000000E+00 0.  1.
         12    1    4    4    0    0  0.92863566625E+02  0.18873563737E+02 -0.13360802437E+04  0.13394365498E+04  0.00000000000E+00 0. -1.
         -5    1    5    5    0  502  0.38180634729E+02  0.35404662197E+02 -0.23568025041E+03  0.24140944763E+03  0.47000000000E+01 0.  1.
         11    1    6    6    0    0 -0.59486594921E+02 -0.51028356233E+02 -0.16278870437E+03  0.18067293761E+03  0.00000000000E+00 0. -1.
        -12    1    6    6    0    0 -0.58405354965E+01  0.74890112814E+01 -0.21373404869E+03  0.21394494786E+03  0.00000000000E+00 0.  1.
</event>
<event>
12    1  0.8356052E-002  0.2189316E+03  0.7818608E-02  0.1134687E+00
         21   -1    0    0  503  502  0.00000000000E+00  0.00000000000E+00  0.85220352382E+03  0.85220352382E+03  0.00000000000E+00 0. -1.
         21   -1    0    0  501  503 -0.00000000000E+00 -0.00000000000E+00 -0.65577421154E+02  0.65577421154E+02  0.00000000000E+00 0.  1.
          6    2    1    2  501    0  0.88896051332E+02  0.10241312868E+03  0.22010440244E+03  0.31042777148E+03  0.17183857676E+03 0.  0.
         24    2    3    3    0    0  0.63667594381E+02  0.98809260351E+02  0.71204028473E+02  0.15928917854E+03  0.80536924607E+02 0.  0.
         -6    2    1    2    0  502 -0.88896051332E+02 -0.10241312868E+03  0.56652170022E+03  0.60735317349E+03  0.17187228880E+03 0.  0.
        -24    2    5    5    0    0  0.11175315918E+02 -0.64789784438E+02  0.21002702735E+03  0.23514310328E+03  0.82814992312E+02 0.  0.
          5    1    3    3  501    0  0.25228456951E+02  0.36038683311E+01  0.14890037396E+03  0.15113859293E+03  0.47000000000E+01 0. -1.
        -11    1    4    4    0    0  0.52396413409E+02  0.56340858623E+02  0.15748554028E+01  0.76955549885E+02  0.00000000000E+00 0.  1.
         12    1    4    4    0    0  0.11271180972E+02  0.42468401728E+02  0.69629173070E+02  0.82333628660E+02  0.00000000000E+00 0. -1.
         -5    1    5    5    0  502 -0.10007136725E+03 -0.37623344244E+02  0.35649467288E+03  0.37221007021E+03  0.47000000000E+01 0.  1.
         13    1    6    6    0    0  0.41358074335E+02 -0.92601858608E+01  0.78118036233E+02  0.88874456059E+02  0.00000000000E+00 0. -1.
        -14    1    6    6    0    0 -0.30182758417E+02 -0.55529598578E+02  0.13190899112E+03  0.14626864722E+03  0.00000000000E+00 0.  1.
</event>
<event>
12    1  0.8356052E-002  0.1851786E+03  0.7818608E-02  0.1163168E+00
         21   -1    0    0  503  502  0.00000000000E+00  0.00000000000E+00  0.12822829306E+04  0.12822829306E+04  0.00000000000E+00 0. -1.
         21   -1    0    0  501  503 -0.00000000000E+00 -0.00000000000E+00 -0.26925763694E+02  0.26925763694E+02  0.00000000000E+00 0. -1.
          6    2    1    2  501    0  0.39848525862E+02 -0.56150413790E+02  0.55005864808E+03  0.58000563359E+03  0.17059086929E+03 0.  0.
         24    2    3    3    0    0  0.45912959918E+02  0.51403273298E+01  0.46976641468E+03  0.47870279527E+03  0.79633278107E+02 0.  0.
         -6    2    1    2    0  502 -0.39848525862E+02  0.56150413790E+02  0.70529851878E+03  0.72920306066E+03  0.17190209161E+03 0.  0.
        -24    2    5    5    0    0  0.17451431666E+02  0.76917735822E+02  0.32372304352E+03  0.34276225003E+03  0.80426740527E+02 0.  0.
          5    1    3    3  501    0 -0.60644340562E+01 -0.61290741120E+02  0.80292233398E+02  0.10130283832E+03  0.47000000000E+01 0. -1.
        -11    1    4    4    0    0  0.15734615071E+02  0.23532285780E+02  0.50048083298E+02  0.57499193275E+02  0.00000000000E+00 0.  1.
         12    1    4    4    0    0  0.30178344847E+02 -0.18391958450E+02  0.41971833139E+03  0.42120360200E+03  0.00000000000E+00 0. -1.
         -5    1    5    5    0  502 -0.57299957528E+02 -0.20767322032E+02  0.38157547526E+03  0.38644081062E+03  0.47000000000E+01 0.  1.
         11    1    6    6    0    0  0.32372905508E+01 -0.11185738746E+02  0.67368363280E+01  0.13453095002E+02  0.00000000000E+00 0. -1.
        -12    1    6    6    0    0  0.14214141115E+02  0.88103474568E+02  0.31698620719E+03  0.32930915503E+03  0.00000000000E+00 0.  1.
</event>
<event>
12    1  0.8356052E-002  0.1738982E+03  0.7818608E-02  0.1173978E+00
         21   -1    0    0  501  502  0.00000000000E+00  0.00000000000E+00  0.75990890951E+03  0.75990890951E+03  0.00000000000E+00 0.  1.
         21   -1    0    0  502  503 -0.00000000000E+00 -0.00000000000E+00 -0.39888645796E+02  0.39888645796E+02  0.00000000000E+00 0.  1.
         -6    2    1    2    0  503 -0.10554785239E+02 -0.25429303693E+02  0.33114672474E+03  0.37403040738E+03  0.17170480296E+03 0.  0.
        -24    2    3    3    0    0  0.60076628469E+02 -0.16343565449E+02  0.22095799657E+03  0.24274829489E+03  0.78917583641E+02 0.  0.
          6    2    1    2  501    0  0.10554785239E+02  0.25429303693E+02  0.38887353897E+03  0.42576714792E+03  0.17116361167E+03 0.  0.
         24    2    5    5    0    0  0.54178779495E+02  0.47322516639E+02  0.18672915772E+03  0.21776040160E+03  0.85889774888E+02 0.  0.
          5    1    5    5  501    0 -0.43623994255E+02 -0.21893212946E+02  0.20214438125E+03  0.20800674633E+03  0.47000000000E+01 0. -1.
        -11    1    6    6    0    0  0.12612609889E+02  0.16688585083E+02  0.15657311431E+03  0.15796432169E+03  0.00000000000E+00 0.  1.
         12    1    6    6    0    0  0.41566169606E+02  0.30633931556E+02  0.30156043411E+02  0.59796079909E+02  0.00000000000E+00 0. -1.
         -5    1    3    3    0  503 -0.70631413709E+02 -0.90857382436E+01  0.11018872818E+03  0.13128211249E+03  0.47000000000E+01 0.  1.
         13    1    4    4    0    0  0.27490898012E+02  0.31518227781E+02  0.10799390782E+03  0.11580946543E+03  0.00000000000E+00 0. -1.
        -14    1    4    4    0    0  0.32585730458E+02 -0.47861793230E+02  0.11296408874E+03  0.12693882947E+03  0.00000000000E+00 0.  1.
</event>
<event>
12    1  0.8356052E-002  0.1895825E+03  0.7818608E-02  0.1159448E+00
         21   -1    0    0  501  502  0.00000000000E+00  0.00000000000E+00  0.30649940872E+03  0.30649940872E+03  0.00000000000E+00 0.  1.
         21   -1    0    0  502  503 -0.00000000000E+00 -0.00000000000E+00 -0.27166538695E+03  0.27166538695E+03  0.00000000000E+00 0.  1.
         -6    2    1    2    0  503  0.74559366992E+02 -0.97648271958E+00 -0.20162536158E+03  0.27675677029E+03  0.17430281337E+03 0.  0.
        -24    2    3    3    0    0  0.29143783016E+01  0.69283243732E-01 -0.18605200014E+03  0.20328080404E+03  0.81848885968E+02 0.  0.
          6    2    1    2  501    0 -0.74559366992E+02  0.97648271958E+00  0.23645938335E+03  0.30140802537E+03  0.17138758724E+03 0.  0.
         24    2    5    5    0    0 -0.45220865720E+02  0.26163226711E+02  0.44629453823E+02  0.10566346838E+03  0.80271659213E+02 0.  0.
          5    1    5    5  501    0 -0.29338501272E+02 -0.25186743991E+02  0.19182992953E+03  0.19574455699E+03  0.47000000000E+01 0. -1.
        -11    1    6    6    0    0 -0.67113586486E+02  0.12441821748E+02  0.40860776734E+02  0.79552721479E+02  0.00000000000E+00 0.  1.
         12    1    6    6    0    0  0.21892720765E+02  0.13721404962E+02  0.37686770886E+01  0.26110746900E+02  0.00000000000E+00 0. -1.
         -5    1    3    3    0  503  0.71644988690E+02 -0.10457659633E+01 -0.15573361441E+02  0.73475966257E+02  0.47000000000E+01 0.  1.
         11    1    4    4    0    0 -0.24123867503E+02 -0.10521747131E+02 -0.16071306966E+02  0.30837559138E+02  0.00000000000E+00 0. -1.
        -12    1    4    4    0    0  0.27038245805E+02  0.10591030375E+02 -0.16998069317E+03  0.17244324490E+03  0.00000000000E+00 0.  1.
</event>
<event>
12    1  0.8356052E-002  0.2123802E+03  0.7818608E-02  0.1140910E+00
         21   -1    0    0  501  502  0.00000000000E+00  0.00000000000E+00  0.12658654906E+04  0.12658654906E+04  0.00000000000E+00 0.  1.
         21   -1    0    0  502  503 -0.00000000000E+00 -0.00000000000E+00 -0.45362628984E+02  0.45362628984E+02  0.00000000000E+00 0.  1.
         -6    2    1    2    0  503  0.33694325253E+02  0.10738049309E+03  0.29791449306E+03  0.36586665048E+03  0.18010964135E+03 0.  0.
        -24    2    3    3    0    0  0.10893649844E+02  0.21191906890E+02  0.25229816748E+03  0.26561056663E+03  0.79541431131E+02 0.  0.
          6    2    1    2  501    0 -0.33694325253E+02 -0.10738049309E+03  0.92258836851E+03  0.94536146906E+03  0.17283845528E+03 0.  0.
         24    2    5    5    0    0 -0.83397572670E+02 -0.70095375254E+02  0.47774464064E+03  0.49617484299E+03  0.77980871993E+02 0.  0.
          5    1    5    5  501    0  0.49703247417E+02 -0.37285117833E+02  0.44484372787E+03  0.44918662607E+03  0.47000000000E+01 0. -1.
        -11    1    6    6    0    0 -0.37659291475E+00 -0.47901073196E+02  0.16037866943E+03  0.16737972471E+03  0.00000000000E+00 0.  1.
         12    1    6    6    0    0 -0.83020979756E+02 -0.22194302058E+02  0.31736597121E+03  0.32879511828E+03  0.00000000000E+00 0. -1.
         -5    1    3    3    0  503  0.22800675409E+02  0.86188586196E+02  0.45616325585E+02  0.10025608385E+03  0.47000000000E+01 0.  1.
         11    1    4    4    0    0 -0.26767145428E+02 -0.42607238761E+01  0.38814182190E+02  0.47341045419E+02  0.00000000000E+00 0. -1.
        -12    1    4    4    0    0  0.37660795273E+02  0.25452630766E+02  0.21348398529E+03  0.21826952121E+03  0.00000000000E+00 0.  1.
</event>
<event>
12    1  0.8356052E-002  0.2224291E+03  0.7818608E-02  0.1132167E+00
         21   -1    0    0  501  502  0.00000000000E+00  0.00000000000E+00  0.29975682510E+03  0.29975682510E+03  0.00000000000E+00 0. -1.
         21   -1    0    0  502  503 -0.00000000000E+00 -0.00000000000E+00 -0.37417476394E+03  0.37417476394E+03  0.00000000000E+00 0. -1.
         -6    2    1    2    0  503 -0.61973841550E+02 -0.12724919761E+03 -0.28930545868E+03  0.36465603307E+03  0.17100660425E+03 0.  0.
        -24    2    3    3    0    0 -0.88667619212E+01 -0.13939067289E+03 -0.17397624988E+03  0.23702103108E+03  0.80017838606E+02 0.  0.
          6    2    1    2  501    0  0.61973841550E+02  0.12724919761E+03  0.21488751984E+03  0.30927555598E+03  0.17158557053E+03 0.  0.
         24    2    5    5    0    0  0.46392289519E+02  0.16055730412E+03  0.18296707357E+03  0.26035501211E+03  0.79855431152E+02 0.  0.
          5    1    5    5  501    0  0.15581552031E+02 -0.33308106509E+02  0.31920446270E+02  0.48920543874E+02  0.47000000000E+01 0. -1.
        -13    1    6    6    0    0  0.20892879263E+02 -0.77819435903E+00  0.30048128388E+02  0.36606119843E+02  0.00000000000E+00 0.  1.
         14    1    6    6    0    0  0.25499410256E+02  0.16133549848E+03  0.15291894518E+03  0.22374889226E+03  0.00000000000E+00 0. -1.
         -5    1    3    3    0  503 -0.53107079629E+02  0.12141475283E+02 -0.11532920881E+03  0.12763500199E+03  0.47000000000E+01 0.  1.
         11    1    4    4    0    0  0.24384759820E+01 -0.38243957291E+02 -0.35082717894E+01  0.38481871125E+02  0.00000000000E+00 0. -1.
        -12    1    4    4    0    0 -0.11305237903E+02 -0.10114671560E+03 -0.17046797809E+03  0.19853915995E+03  0.00000000000E+00 0.  1.
</event>
<event>
12    1  0.8356052E-002  0.1967052E+03  0.7818608E-02  0.1152723E+00
         21   -1    0    0  503  502  0.00000000000E+00  0.00000000000E+00  0.14613246464E+04  0.14613246464E+04  0.00000000000E+00 0.  1.
         21   -1    0    0  501  503 -0.00000000000E+00 -0.00000000000E+00 -0.36256108945E+02  0.36256108945E+02  0.00000000000E+00 0.  1.
          6    2    1    2  501    0  0.55062176831E+02  0.76285337510E+02  0.11024801007E+04  0.11197498054E+04  0.17183119106E+03 0.  0.
         24    2    3    3    0    0  0.10116388938E+03  0.77334230021E+02  0.83798392297E+03  0.85122273767E+03  0.78411595507E+02 0.  0.
         -6    2    1    2    0  502 -0.55062176831E+02 -0.76285337510E+02  0.32258843670E+03  0.37783094988E+03  0.17274730436E+03 0.  0.
        -24    2    5    5    0    0  0.21413429755E+02  0.95188656100E+01  0.11195495647E+03  0.13783213183E+03  0.76906700034E+02 0.  0.
          5    1    3    3  501    0 -0.46101712545E+02 -0.10488925117E+01  0.26449617775E+03  0.26852706775E+03  0.47000000000E+01 0. -1.
        -11    1    4    4    0    0  0.43361319573E+02  0.68945062752E+01  0.12597829602E+03  0.13341015449E+03  0.00000000000E+00 0.  1.
         12    1    4    4    0    0  0.57802569803E+02  0.70439723746E+02  0.71200562695E+03  0.71781258318E+03  0.00000000000E+00 0. -1.
         -5    1    5    5    0  502 -0.76475606585E+02 -0.85804203120E+02  0.21063348023E+03  0.23999881806E+03  0.47000000000E+01 0.  1.
         11    1    6    6    0    0  0.26490034501E+02 -0.18956300010E+02  0.13576841891E+02  0.35290138476E+02  0.00000000000E+00 0. -1.
        -12    1    6    6    0    0 -0.50766047460E+01  0.28475165620E+02  0.98378114577E+02  0.10254199335E+03  0.00000000000E+00 0.  1.
</event>
<event>
12    1  0.8356052E-002  0.1998285E+03  0.7818608E-02  0.1150302E+00
         21   -1    0    0  503  502  0.00000000000E+00  0.00000000000E+00  0.17425352380E+03  0.17425352380E+03  0.00000000000E+00 0.  1.
         21   -1    0    0  501  503 -0.00000000000E+00 -0.00000000000E+00 -0.46529989003E+03  0.46529989003E+03  0.00000000000E+00 0. -1.
          6    2    1    2  501    0  0.99012732674E+02  0.12970431775E+02  0.83016503194E+02  0.21638658339E+03  0.17308859100E+03 0.  0.
         24    2    3    3    0    0  0.58709354288E+02  0.40277029245E+02  0.11587953269E+03  0.15746221421E+03  0.79355248359E+02 0.  0.
         -6    2    1    2    0  502 -0.99012732674E+02 -0.12970431775E+02 -0.37406286943E+03  0.42316683044E+03  0.17080802899E+03 0.  0.
        -24    2    5    5    0    0 -0.73232413479E+02  0.43855850768E+02 -0.15341070516E+03  0.19381269631E+03  0.82110868732E+02 0.  0.
          5    1    3    3  501    0  0.40303378386E+02 -0.27306597470E+02 -0.32863029499E+02  0.58924369174E+02  0.47000000000E+01 0. -1.
        -11    1    4    4    0    0  0.29883624688E+02 -0.13496953382E+02  0.80527287829E+02  0.86947356832E+02  0.00000000000E+00 0.  1.
         12    1    4    4    0    0  0.28825729600E+02  0.53773982627E+02  0.35352244864E+02  0.70514857381E+02  0.00000000000E+00 0. -1.
         -5    1    5    5    0  502 -0.25780319195E+02 -0.56826282543E+02 -0.22065216427E+03  0.22935413413E+03  0.47000000000E+01 0.  1.
         11    1    6    6    0    0 -0.69123763319E+02  0.65866219919E+01 -0.13550873561E+03  0.15226324465E+03  0.00000000000E+00 0. -1.
        -12    1    6    6    0    0 -0.41086501602E+01  0.37269228776E+02 -0.17901969547E+02  0.41549451661E+02  0.00000000000E+00 0.  1.
</event>
<event>
12    1  0.8356052E-002  0.2336256E+03  0.7818608E-02  0.1124312E+00
         21   -1    0    0  503  502  0.00000000000E+00  0.00000000000E+00  0.55814945054E+03  0.55814945054E+03  0.00000000000E+00 0.  1.
         21   -1    0    0  501  503 -0.00000000000E+00 -0.00000000000E+00 -0.98798235110E+02  0.98798235110E+02  0.00000000000E+00 0.  1.
          6    2    1    2  501    0  0.15312026439E+03 -0.27487056672E+02  0.18991730915E+03  0.30108057686E+03  0.17429737747E+03 0.  0.
         24    2    3    3    0    0  0.44765432193E+02  0.38919033373E+02  0.11941920901E+03  0.15567558870E+03  0.80344921183E+02 0.  0.
         -6    2    1    2    0  502 -0.15312026439E+03  0.27487056672E+02  0.26943390628E+03  0.35586710880E+03  0.17275825774E+03 0.  0.
        -24    2    5    5    0    0 -0.42470321425E+01  0.41846086471E+01  0.11701023785E+03  0.14148122293E+03  0.79309472617E+02 0.  0.
          5    1    3    3  501    0  0.10835483220E+03 -0.66406090045E+02  0.70498100141E+02  0.14540498815E+03  0.47000000000E+01 0. -1.
        -13    1    4    4    0    0  0.28120347925E+02  0.50247801136E+02  0.31812145584E+02  0.65784558165E+02  0.00000000000E+00 0.  1.
         14    1    4    4    0    0  0.16645084269E+02 -0.11328767763E+02  0.87607063426E+02  0.89891030539E+02  0.00000000000E+00 0. -1.
         -5    1    5    5    0  502 -0.14887323225E+03  0.23302448025E+02  0.15242366843E+03  0.21438588587E+03  0.47000000000E+01 0.  1.
         13    1    6    6    0    0 -0.40589367050E+00  0.29607217403E+02  0.11126293731E+03  0.11513554312E+03  0.00000000000E+00 0. -1.
        -14    1    6    6    0    0 -0.38411384720E+01 -0.25422608756E+02  0.57473005463E+01  0.26345679803E+02  0.00000000000E+00 0.  1.
</event>
<event>
12    1  0.8356052E-002  0.1875438E+03  0.7818608E-02  0.1161067E+00
         21   -1    0    0  503  502  0.00000000000E+00  0.00000000000E+00  0.60281342359E+03  0.60281342359E+03  0.00000000000E+00 0.  1.
         21   -1    0    0  501  503 -0.00000000000E+00 -0.00000000000E+00 -0.13299554880E+03  0.13299554880E+03  0.00000000000E+00 0. -1.
          6    2    1    2  501    0 -0.36942799034E+02 -0.60722271688E+02 -0.41200627945E+02  0.19201606216E+03  0.17355319561E+03 0.  0.
         24    2    3    3    0    0 -0.74222748441E+02 -0.81141381425E+02 -0.11059935195E+02  0.13969698314E+03  0.85439948305E+02 0.  0.
         -6    2    1    2    0  502  0.36942799034E+02  0.60722271688E+02  0.51101850274E+03  0.54379291023E+03  0.17181051887E+03 0.  0.
        -24    2    5    5    0    0 -0.15633412112E+01  0.90524043886E+02  0.24335963176E+03  0.27170059193E+03  0.80001592035E+02 0.  0.
          5    1    3    3  501    0  0.37279949406E+02  0.20419109738E+02 -0.30140692750E+02  0.52319079022E+02  0.47000000000E+01 0. -1.
        -11    1    4    4    0    0  0.31119564795E+00  0.16424528241E+02 -0.25534725695E+01  0.16624746399E+02  0.00000000000E+00 0.  1.
         12    1    4    4    0    0 -0.74533944089E+02 -0.97565909666E+02 -0.85064626252E+01  0.12307223674E+03  0.00000000000E+00 0. -1.
         -5    1    5    5    0  502  0.38506140245E+02 -0.29801772199E+02  0.26765887098E+03  0.27209231830E+03  0.47000000000E+01 0.  1.
         11    1    6    6    0    0 -0.98185475422E+01 -0.12168392481E+02  0.52901706703E+02  0.55163975776E+02  0.00000000000E+00 0. -1.
        -12    1    6    6    0    0  0.82552063310E+01  0.10269243637E+03  0.19045792505E+03  0.21653661615E+03  0.00000000000E+00 0.  1.
</event>
<event>
12    1  0.8356052E-002  0.2203469E+03  0.7818608E-02  0.1133980E+00
         21   -1    0    0  501  502  0.00000000000E+00  0.00000000000E+00  0.60091974147E+03  0.60091974147E+03  0.00000000000E+00 0. -1.
         21   -1    0    0  502  503 -0.00000000000E+00 -0.00000000000E+00 -0.84437709208E+02  0.84437709208E+02  0.00000000000E+00 0. -1.
         -6    2    1    2    0  503  0.12956159175E+03  0.40895616692E+02  0.18164867580E+03  0.28556783436E+03  0.17347647989E+03 0.  0.
        -24    2    3    3    0    0  0.26019402858E+02  0.72139579003E+02  0.10846907893E+03  0.15489835261E+03  0.79666996762E+02 0.  0.
          6    2    1    2  501    0 -0.12956159175E+03 -0.40895616692E+02  0.33483335646E+03  0.39978961632E+03  0.17105467896E+03 0.  0.
         24    2    5    5    0    0 -0.36052555461E+02  0.27641132679E+02  0.82934668388E+02  0.12245179896E+03  0.77797589151E+02 0.  0.
          5    1    5    5  501    0 -0.93509036294E+02 -0.68536749371E+02  0.25189868807E+03  0.27733781735E+03  0.47000000000E+01 0. -1.
        -11    1    6    6    0    0 -0.58861042541E+02  0.29989893924E+02  0.52701076694E+02  0.84506920139E+02  0.00000000000E+00 0.  1.
         12    1    6    6    0    0  0.22808487081E+02 -0.23487612453E+01  0.30233591694E+02  0.37944878824E+02  0.00000000000E+00 0. -1.
         -5    1    3    3    0  503  0.10354218890E+03 -0.31243962311E+02  0.73179596871E+02  0.13066948175E+03  0.47000000000E+01 0.  1.
         13    1    4    4    0    0 -0.27552904283E+02  0.32023488734E+02  0.54289094112E+02  0.68789331328E+02  0.00000000000E+00 0. -1.
        -14    1    4    4    0    0  0.53572307141E+02  0.40116090269E+02  0.54179984817E+02  0.86109021279E+02  0.00000000000E+00 0.  1.
</event>
<event>
12    1  0.8356052E-002  0.2035101E+03  0.7818608E-02  0.1146928E+00
         21   -1    0    0  503  502  0.00000000000E+00  0.00000000000E+00  0.19436303533E+03  0.19436303533E+03  0.00000000000E+00 0.  1.
         21   -1    0    0  501  503 -0.00000000000E+00 -0.00000000000E+00 -0.37408067041E+03  0.37408067041E+03  0.00000000000E+00 0.  1.
          6    2    1    2  501    0 -0.11216157478E+02 -0.10768340560E+03  0.97013670766E+02  0.22493737971E+03  0.17164980176E+03 0.  0.
         24    2    3    3    0    0 -0.48977363573E+02 -0.44939446185E+02  0.10916885652E+03  0.15055625529E+03  0.79567649252E+02 0.  0.
         -6    2    1    2    0  502  0.11216157478E+02  0.10768340560E+03 -0.27673130584E+03  0.34350632604E+03  0.17232197296E+03 0.  0.
        -24    2    5    5    0    0 -0.25112638945E+02  0.37100622013E+02 -0.50589541821E+02  0.10379003910E+03  0.78777977163E+02 0.  0.
          5    1    3    3  501    0  0.37761206095E+02 -0.62743959414E+02 -0.12155185755E+02  0.74381124416E+02  0.47000000000E+01 0. -1.
        -13    1    4    4    0    0 -0.20557412638E+02 -0.63932457964E+02  0.86631476383E+02  0.10961286008E+03  0.00000000000E+00 0.  1.
         14    1    4    4    0    0 -0.28419950935E+02  0.18993011779E+02  0.22537380138E+02  0.40943395207E+02  0.00000000000E+00 0. -1.
         -5    1    5    5    0  502  0.36328796423E+02  0.70582783586E+02 -0.22614176402E+03  0.23971628694E+03  0.47000000000E+01 0.  1.
         11    1    6    6    0    0 -0.12468052048E+02  0.52566282729E+02 -0.52922194696E+01  0.54283275405E+02  0.00000000000E+00 0. -1.
        -12    1    6    6    0    0 -0.12644586897E+02 -0.15465660716E+02 -0.45297322351E+02  0.49506763693E+02  0.00000000000E+00 0.  1.
</event>
<event>
12    1  0.8356052E-002  0.1769284E+03  0.7818608E-02  0.1170854E+00
         21   -1    0    0  503  502  0.00000000000E+00  0.00000000000E+00  0.91851259839E+03  0.91851259839E+03  0.00000000000E+00 0. -1.
         21   -1    0    0  501  503 -0.00000000000E+00 -0.00000000000E+00 -0.40571914583E+02  0.40571914583E+02  0.00000000000E+00 0.  1.
          6    2    1    2  501    0  0.34199770761E+02 -0.19016538342E+02  0.24683658345E+03  0.30369713216E+03  0.17254679396E+03 0.  0.
         24    2    3    3    0    0 -0.96758805414E+01  0.31007775696E+02  0.60358828941E+02  0.10564777544E+03  0.80393777163E+02 0.  0.
         -6    2    1    2    0  502 -0.34199770761E+02  0.19016538342E+02  0.63110410035E+03  0.65538738081E+03  0.17236293217E+03 0.  0.
        -24    2    5    5    0    0 -0.34917456532E+02  0.10304270630E+02  0.14914707558E+03  0.17332817032E+03  0.80451213228E+02 0.  0.
          5    1    3    3  501    0  0.43875651303E+02 -0.50024314038E+02  0.18647775451E+03  0.19804935672E+03  0.47000000000E+01 0. -1.
        -13    1    4    4    0    0 -0.21531839781E+01  0.95144622434E+01 -0.19931493080E+02  0.22190664916E+02  0.00000000000E+00 0.  1.
         14    1    4    4    0    0 -0.75226965634E+01  0.21493313453E+02  0.80290322021E+02  0.83457110524E+02  0.00000000000E+00 0. -1.
         -5    1    5    5    0  502  0.71768577089E+00  0.87122677115E+01  0.48195702478E+03  0.48205921048E+03  0.47000000000E+01 0.  1.
         13    1    6    6    0    0 -0.27066388090E+02  0.54482790001E+01  0.15808556281E+03  0.16047840440E+03  0.00000000000E+00 0. -1.
        -14    1    6    6    0    0 -0.78510684428E+01  0.48559916301E+01 -0.89384872312E+01  0.12849765927E+02  0.00000000000E+00 0.  1.
</event>
<event>
12    1  0.8356052E-002  0.2192974E+03  0.7818608E-02  0.1134484E+00
         21   -1    0    0  503  502  0.00000000000E+00  0.00000000000E+00  0.30534389506E+03  0.30534389506E+03  0.00000000000E+00 0.  1.
         21   -1    0    0  501  503 -0.00000000000E+00 -0.00000000000E+00 -0.18610811142E+03  0.18610811142E+03  0.00000000000E+00 0.  1.
          6    2    1    2  501    0 -0.82549881418E+02  0.10878077454E+03 -0.37260801431E+02  0.22204052693E+03  0.17107275775E+03 0.  0.
         24    2    3    3    0    0 -0.28926370456E+00  0.24087914494E+02  0.21130383632E+02  0.90240260379E+02  0.84359351483E+02 0.  0.
         -6    2    1    2    0  502  0.82549881418E+02 -0.10878077454E+03  0.15649658507E+03  0.26941147956E+03  0.17159144602E+03 0.  0.
        -24    2    5    5    0    0  0.38439774152E+02  0.96527397530E+01  0.44113514501E+02  0.10022447231E+03  0.80796974369E+02 0.  0.
          5    1    3    3  501    0 -0.82260617714E+02  0.84692860042E+02 -0.58391185063E+02  0.13180026655E+03  0.47000000000E+01 0. -1.
        -11    1    4    4    0    0 -0.29498023651E+02 -0.31090863935E+01 -0.17713101317E+02  0.34547847629E+02  0.00000000000E+00 0.  1.
         12    1    4    4    0    0  0.29208759947E+02  0.27197000888E+02  0.38843484949E+02  0.55692412750E+02  0.00000000000E+00 0. -1.
         -5    1    5    5    0  502  0.44110107266E+02 -0.11843351429E+03  0.11238307057E+03  0.16918700724E+03  0.47000000000E+01 0.  1.
         13    1    6    6    0    0  0.51903689453E+02  0.27174851256E+02  0.50364697080E+02  0.77259745221E+02  0.00000000000E+00 0. -1.
        -14    1    6    6    0    0 -0.13463915301E+02 -0.17522111503E+02 -0.62511825796E+01  0.22964727092E+02  0.00000000000E+00 0.  1.
</event>
<event>
12    1  0.8356052E-002  0.1739259E+03  0.7818608E-02  0.1174481E+00
         21   -1    0    0  501  502  0.00000000000E+00  0.00000000000E+00  0.45773193897E+02  0.45773193897E+02  0.00000000000E+00 0. -1.
         21   -1    0    0  502  503 -0.00000000000E+00 -0.00000000000E+00 -0.70909945354E+03  0.70909945354E+03  0.00000000000E+00 0. -1.
         -6    2    1    2    0  503  0.85611113654E+00 -0.19933455363E+02 -0.43741345923E+03  0.46976420880E+03  0.17014641337E+03 0.  0.
        -24    2    3    3    0    0 -0.27667318623E+02  0.47677962628E+02 -0.28170695427E+03  0.29756811251E+03  0.78417503544E+02 0.  0.
          6    2    1    2  501    0 -0.85611113654E+00  0.19933455363E+02 -0.22591280042E+03  0.28510843864E+03  0.17277775558E+03 0.  0.
         24    2    5    5    0    0 -0.45457862779E+02 -0.12024566809E+02 -0.58669905262E+02  0.10903201373E+03  0.78960843074E+02 0.  0.
          5    1    5    5  501    0  0.44601751642E+02  0.31958022172E+02 -0.16724289516E+03  0.17607642492E+03  0.47000000000E+01 0. -1.
        -13    1    6    6    0    0  0.43752129325E+01 -0.27956908842E+02  0.26560160390E+01  0.28421570355E+02  0.00000000000E+00 0.  1.
         14    1    6    6    0    0 -0.49833075712E+02  0.15932342033E+02 -0.61325921301E+02  0.80610443374E+02  0.00000000000E+00 0. -1.
         -5    1    3    3    0  503  0.28523429759E+02 -0.67611417991E+02 -0.15570650496E+03  0.17219609628E+03  0.47000000000E+01 0.  1.
         13    1    4    4    0    0 -0.22376060688E+02 -0.18530237405E+02 -0.98382675041E+02  0.10258269122E+03  0.00000000000E+00 0. -1.
        -14    1    4    4    0    0 -0.52912579348E+01  0.66208200033E+02 -0.18332427922E+03  0.19498542129E+03  0.00000000000E+00 0.  1.
</event>
<event>
12    1  0.8356052E-002  0.1737632E+03  0.7818608E-02  0.1174042E+00
         21   -1    0    0  503  502  0.00000000000E+00  0.00000000000E+00  0.54240907597E+03  0.54240907597E+03  0.00000000000E+00 0. -1.
         21   -1    0    0  501  503 -0.00000000000E+00 -0.00000000000E+00 -0.55767841814E+02  0.55767841814E+02  0.00000000000E+00 0. -1.
          6    2    1    2  501    0 -0.25262749962E+02  0.15530906786E+01  0.22642785351E+03  0.28541764651E+03  0.17190998071E+03 0.  0.
         24    2    3    3    0    0 -0.27633572499E+02  0.67232886536E+02  0.15085437865E+03  0.18515351292E+03  0.78999395095E+02 0.  0.
         -6    2    1    2    0  502  0.25262749962E+02 -0.15530906786E+01  0.26021338064E+03  0.31275927127E+03  0.17165878851E+03 0.  0.
        -24    2    5    5    0    0 -0.11211973238E+02 -0.28446805547E+02  0.49973608732E+02  0.97639469707E+02  0.78110021030E+02 0.  0.
          5    1    3    3  501    0  0.23708225371E+01 -0.65679795858E+02  0.75573474862E+02  0.10026413360E+03  0.47000000000E+01 0. -1.
        -13    1    4    4    0    0 -0.22379229987E+02  0.88484509583E+01  0.82574633861E+00  0.24079179309E+02  0.00000000000E+00 0.  1.
         14    1    4    4    0    0 -0.52543425120E+01  0.58384435578E+02  0.15002863231E+03  0.16107433361E+03  0.00000000000E+00 0. -1.
         -5    1    5    5    0  502  0.36474723200E+02  0.26893714868E+02  0.21023977191E+03  0.21511980156E+03  0.47000000000E+01 0.  1.
         13    1    6    6    0    0 -0.36552419204E+02 -0.15146129734E+02 -0.55369017026E+00  0.39570079206E+02  0.00000000000E+00 0. -1.
        -14    1    6    6    0    0  0.25340445966E+02 -0.13300675813E+02  0.50527298902E+02  0.58069390501E+02  0.00000000000E+00 0.  1.
</event>
<event>
12    1  0.8356052E-002  0.1881750E+03  0.7818608E-02  0.1160839E+00
         21   -1    0    0  503  502  0.00000000000E+00  0.00000000000E+00  0.15817415874E+03  0.15817415874E+03  0.00000000000E+00 0. -1.
         21   -1    0    0  501  503 -0.00000000000E+00 -0.00000000000E+00 -0.22834482522E+03  0.22834482522E+03  0.00000000000E+00 0. -1.
          6    2    1    2  501    0 -0.36195758531E+02  0.61628170679E+02  0.17867774666E+01  0.18505507714E+03  0.17068691996E+03 0.  0.
         24    2    3    3    0    0  0.93211425606E+01  0.68201160316E+02  0.51746450196E+02  0.11698855544E+03  0.79185510221E+02 0.  0.
         -6    2    1    2    0  502  0.36195758531E+02 -0.61628170679E+02 -0.71957443944E+02  0.20146390682E+03  0.17407374200E+03 0.  0.
        -24    2    5    5    0    0  0.41286970320E+02 -0.97186751161E+02 -0.90593397349E+02  0.16072422294E+03  0.80468836673E+02 0.  0.
          5    1    3    3  501    0 -0.45516901092E+02 -0.65729896368E+01 -0.49959672729E+02  0.68066521705E+02  0.47000000000E+01 0. -1.
        -11    1    4    4    0    0  0.27773953895E+02 -0.41624648514E+01  0.25195677850E+02  0.37729839795E+02  0.00000000000E+00 0.  1.
         12    1    4    4    0    0 -0.18452811335E+02  0.72363625168E+02  0.26550772345E+02  0.79258715645E+02  0.00000000000E+00 0. -1.
         -5    1    5    5    0  502 -0.50912117888E+01  0.35558580481E+02  0.18635953405E+02  0.40739683880E+02  0.47000000000E+01 0.  1.
         13    1    6    6    0    0 -0.19401389202E+02 -0.55232237030E+02 -0.33617431651E+02  0.67506633905E+02  0.00000000000E+00 0. -1.
        -14    1    6    6    0    0  0.60688359523E+02 -0.41954514131E+02 -0.56975965698E+02  0.93217589031E+02  0.00000000000E+00 0.  1.
</event>
<event>
12    1  0.8356052E-002  0.1828038E+03  0.7818608E-02  0.1166137E+00
         21   -1    0    0  501  502  0.00000000000E+00  0.00000000000E+00  0.41535180310E+03  0.41535180310E+03  0.00000000000E+00 0. -1.
         21   -1    0    0  502  503 -0.00000000000E+00 -0.00000000000E+00 -0.18424183413E+03  0.18424183413E+03  0.00000000000E+00 0. -1.
         -6    2    1    2    0  503  0.47447558882E+02  0.39353162956E+02 -0.11087598067E+03  0.21380063526E+03  0.17209673521E+03 0.  0.
        -24    2    3    3    0    0 -0.12614970267E+02 -0.33300547882E+02 -0.61044058138E+02  0.10707022905E+03  0.80433779909E+02 0.  0.
          6    2    1    2  501    0 -0.47447558882E+02 -0.39353162956E+02  0.34198594963E+03  0.38579300197E+03  0.16757657458E+03 0.  0.
         24    2    5    5    0    0 -0.53440769630E+02 -0.78691200402E+02  0.30748795138E+03  0.33291955260E+03  0.85078595318E+02 0.  0.
          5    1    5    5  501    0  0.59932107482E+01  0.39338037445E+02  0.34497998250E+02  0.52873449371E+02  0.47000000000E+01 0. -1.
        -11    1    6    6    0    0 -0.21160472562E+02  0.14984769084E+01  0.10622101648E+02  0.23724250789E+02  0.00000000000E+00 0.  1.
         12    1    6    6    0    0 -0.32280297068E+02 -0.80189677310E+02  0.29686584973E+03  0.30919530181E+03  0.00000000000E+00 0. -1.
         -5    1    3    3    0  503  0.60062529149E+02  0.72653710838E+02 -0.49831922527E+02  0.10673040621E+03  0.47000000000E+01 0.  1.
         13    1    4    4    0    0 -0.42363017742E+02 -0.21872894457E+02 -0.57966591232E+02  0.75054476770E+02  0.00000000000E+00 0. -1.
        -14    1    4    4    0    0  0.29748047476E+02 -0.11427653425E+02 -0.30774669063E+01  0.32015752279E+02  0.00000000000E+00 0.  1.
</event>
<event>
12    1  0.8356052E-002  0.1771531E+03  0.7818608E-02  0.1171773E+00
         21   -1    0    0  503  502  0.00000000000E+00  0.00000000000E+00  0.53760019650E+03  0.53760019650E+03  0.00000000000E+00 0.  1.
         21   -1    0    0  501  503 -0.00000000000E+00 -0.00000000000E+00 -0.88939186735E+02  0.88939186735E+02  0.00000000000E+00 0.  1.
          6    2    1    2  501    0  0.10900000457E+02 -0.10596608894E+02  0.41061504066E+03  0.44534685464E+03  0.17174985064E+03 0.  0.
         24    2    3    3    0    0 -0.21202890549E+02 -0.43800428653E+02  0.12234305428E+03  0.15336069506E+03  0.78636122363E+02 0.  0.
         -6    2    1    2    0  502 -0.10900000457E+02  0.10596608894E+02  0.38045969112E+02  0.18119252860E+03  0.17649968420E+03 0.  0.
        -24    2    5    5    0    0 -0.10668861267E+02 -0.51936037143E+02 -0.17109780258E+02  0.97678266737E+02  0.80231681133E+02 0.  0.
          5    1    3    3  501    0  0.32102891006E+02  0.33203819759E+02  0.28827198637E+03  0.29198615958E+03  0.47000000000E+01 0. -1.
        -13    1    4    4    0    0 -0.43313174097E+02 -0.15741774151E+01  0.44759591680E+02  0.62305137286E+02  0.00000000000E+00 0.  1.
         14    1    4    4    0    0  0.22110283548E+02 -0.42226251238E+02  0.77583462602E+02  0.91055557774E+02  0.00000000000E+00 0. -1.
         -5    1    5    5    0  502 -0.23113919006E+00  0.62532646037E+02  0.55155749370E+02  0.83514261861E+02  0.47000000000E+01 0.  1.
         13    1    6    6    0    0 -0.26587958179E+02  0.10428734808E+02  0.61957789487E+01  0.29224402588E+02  0.00000000000E+00 0. -1.
        -14    1    6    6    0    0  0.15919096912E+02 -0.62364771951E+02 -0.23305559207E+02  0.68453864149E+02  0.00000000000E+00 0.  1.
</event>
<event>
12    1  0.8356052E-002  0.1889987E+03  0.7818608E-02  0.1159538E+00
         21   -1    0    0  501  502  0.00000000000E+00  0.00000000000E+00  0.33018641972E+03  0.33018641972E+03  0.00000000000E+00 0. -1.
         21   -1    0    0  502  503 -0.00000000000E+00 -0.00000000000E+00 -0.11704041861E+03  0.11704041861E+03  0.00000000000E+00 0.  1.
         -6    2    1    2    0  503 -0.78481257909E+02 -0.25300528980E+01  0.43783266961E+02  0.19400382427E+03  0.17191509635E+03 0.  0.
        -24    2    3    3    0    0 -0.37946078185E+02  0.91287265468E+01  0.94460545080E+02  0.12790310982E+03  0.76897154865E+02 0.  0.
          6    2    1    2  501    0  0.78481257909E+02  0.25300528980E+01  0.16936273415E+03  0.25322301406E+03  0.17109193470E+03 0.  0.
         24    2    5    5    0    0  0.30147024947E+02  0.21032205424E+02  0.10158876950E+02  0.85752163248E+02  0.76805168724E+02 0.  0.
          5    1    5    5  501    0  0.48334232962E+02 -0.18502152526E+02  0.15920385720E+03  0.16747085082E+03  0.47000000000E+01 0. -1.
        -13    1    6    6    0    0  0.39136577308E+02  0.38509281065E+02  0.25770461194E+02  0.60652725262E+02  0.00000000000E+00 0.  1.
         14    1    6    6    0    0 -0.89895523611E+01 -0.17477075641E+02 -0.15611584245E+02  0.25099437986E+02  0.00000000000E+00 0. -1.
         -5    1    3    3    0  503 -0.40535179724E+02 -0.11658779445E+02 -0.50677278119E+02  0.66100714451E+02  0.47000000000E+01 0.  1.
         13    1    4    4    0    0 -0.51774901294E+02  0.89043995195E+01  0.10003538791E+03  0.11299118359E+03  0.00000000000E+00 0. -1.
        -14    1    4    4    0    0  0.13828823109E+02  0.22432702728E+00 -0.55748428316E+01  0.14911926226E+02  0.00000000000E+00 0.  1.
</event>
<event>
12    1  0.8356052E-002  0.1894206E+03  0.7818608E-02  0.1161350E+00
         21   -1    0    0  503  502  0.00000000000E+00  0.00000000000E+00  0.38670817740E+03  0.38670817740E+03  0.00000000000E+00 0.  1.
         21   -1    0    0  501  503 -0.00000000000E+00 -0.00000000000E+00 -0.96131993221E+02  0.96131993221E+02  0.00000000000E+00 0.  1.
          6    2    1    2  501    0  0.65931239711E+02 -0.45144484785E+02  0.78237390592E+02  0.20494208153E+03  0.17174170902E+03 0.  0.
         24    2    3    3    0    0 -0.32440793438E+01  0.12110638492E+02 -0.83299276932E+01  0.80124756999E+02  0.78698140850E+02 0.  0.
         -6    2    1    2    0  502 -0.65931239711E+02  0.45144484785E+02  0.21233879359E+03  0.27789808909E+03  0.16048249681E+03 0.  0.
        -24    2    5    5    0    0 -0.11356344821E+02  0.14633885837E+02  0.19778391723E+03  0.21353000518E+03  0.78316460699E+02 0.  0.
          5    1    3    3  501    0  0.69175319055E+02 -0.57255123276E+02  0.86567318285E+02  0.12481732453E+03  0.47000000000E+01 0. -1.
        -13    1    4    4    0    0 -0.22707268072E+02 -0.22362376680E+02 -0.21453700275E+02  0.38418188005E+02  0.00000000000E+00 0.  1.
         14    1    4    4    0    0  0.19463188729E+02  0.34473015171E+02  0.13123772582E+02  0.41706568994E+02  0.00000000000E+00 0. -1.
         -5    1    5    5    0  502 -0.54574894890E+02  0.30510598948E+02  0.14554876358E+02  0.64368083910E+02  0.47000000000E+01 0.  1.
         13    1    6    6    0    0 -0.20245698193E+02  0.20680539595E+02  0.20038889145E+03  0.20246797482E+03  0.00000000000E+00 0. -1.
        -14    1    6    6    0    0  0.88893533713E+01 -0.60466537587E+01 -0.26049742171E+01  0.11062030361E+02  0.00000000000E+00 0.  1.
</event>
<event>
12    1  0.8356052E-002  0.1978026E+03  0.7818608E-02  0.1151688E+00
         21   -1    0    0  501  502  0.00000000000E+00  0.00000000000E+00  0.19976127070E+03  0.19976127070E+03  0.00000000000E+00 0. -1.
         21   -1    0    0  502  503 -0.00000000000E+00 -0.00000000000E+00 -0.49496447539E+03  0.49496447539E+03  0.00000000000E+00 0.  1.
         -6    2    1    2    0  503 -0.34306589040E+02  0.91387448974E+02 -0.41774187078E+03  0.46204229407E+03  0.17159895987E+03 0.  0.
        -24    2    3    3    0    0 -0.31992309296E+02  0.96264787676E+02 -0.16402016160E+03  0.20821963938E+03  0.78500876513E+02 0.  0.
          6    2    1    2  501    0  0.34306589040E+02 -0.91387448974E+02  0.12253866609E+03  0.23268345202E+03  0.17203853136E+03 0.  0.
         24    2    5    5    0    0  0.78718375046E+02 -0.53526602188E+02  0.37495323037E+02  0.12943467162E+03  0.79282755099E+02 0.  0.
          5    1    5    5  501    0 -0.44411786007E+02 -0.37860846787E+02  0.85043343053E+02  0.10324878040E+03  0.47000000000E+01 0. -1.
        -13    1    6    6    0    0  0.29188494025E+02 -0.56894176720E+02 -0.49265074540E+01  0.64134125111E+02  0.00000000000E+00 0.  1.
         14    1    6    6    0    0  0.49529881021E+02  0.33675745319E+01  0.42421830491E+02  0.65300546510E+02  0.00000000000E+00 0. -1.
         -5    1    3    3    0  503 -0.23142797433E+01 -0.48773387022E+01 -0.25372170918E+03  0.25382265469E+03  0.47000000000E+01 0.  1.
         13    1    4    4    0    0  0.21947165101E+02  0.23788035722E+02 -0.19507731059E+02  0.37790213952E+02  0.00000000000E+00 0. -1.
        -14    1    4    4    0    0 -0.53939474397E+02  0.72476751954E+02 -0.14451243054E+03  0.17042942543E+03  0.00000000000E+00 0.  1.
</event>
<event>
12    1  0.8356052E-002  0.2515686E+03  0.7818608E-02  0.1112443E+00
         21   -1    0    0  503  502  0.00000000000E+00  0.00000000000E+00  0.16078486736E+03  0.16078486736E+03  0.00000000000E+00 0. -1.
         21   -1    0    0  501  503 -0.00000000000E+00 -0.00000000000E+00 -0.41111505846E+03  0.41111505846E+03  0.00000000000E+00 0.  1.
          6    2    1    2  501    0 -0.79304443571E+02 -0.16642227149E+03 -0.18604234055E+03  0.31224687042E+03  0.17000231879E+03 0.  0.
         24    2    3    3    0    0 -0.24178764793E+02 -0.17589923284E+03 -0.13975548844E+03  0.23949237960E+03  0.79371597918E+02 0.  0.
         -6    2    1    2    0  502  0.79304443571E+02  0.16642227149E+03 -0.64287850551E+02  0.25965305539E+03  0.17117597445E+03 0.  0.
        -24    2    5    5    0    0  0.10582528043E+03  0.12531467208E+03  0.79252605463E+00  0.17810101719E+03  0.69401636926E+02 0.  0.
          5    1    3    3  501    0 -0.55125678778E+02  0.94769613482E+01 -0.46286852110E+02  0.72754490826E+02  0.47000000000E+01 0. -1.
        -11    1    4    4    0    0  0.81298490704E+01 -0.61337419849E+02 -0.92798631415E+02  0.11153456645E+03  0.00000000000E+00 0.  1.
         12    1    4    4    0    0 -0.32308613863E+02 -0.11456181299E+03 -0.46956857026E+02  0.12795781315E+03  0.00000000000E+00 0. -1.
         -5    1    5    5    0  502 -0.26520836859E+02  0.41107599405E+02 -0.65080376606E+02  0.81552038207E+02  0.47000000000E+01 0.  1.
         11    1    6    6    0    0  0.13416920064E+02  0.31406464302E+02  0.27285705797E+02  0.43713721928E+02  0.00000000000E+00 0. -1.
        -12    1    6    6    0    0  0.92408360365E+02  0.93908207782E+02 -0.26493179742E+02  0.13438729526E+03  0.00000000000E+00 0.  1.
</event>
<event>
12    1  0.8356052E-002  0.2328023E+03  0.7818608E-02  0.1125086E+00
         21   -1    0    0  501  502  0.00000000000E+00  0.00000000000E+00  0.75290872920E+02  0.75290872920E+02  0.00000000000E+00 0.  1.
         21   -1    0    0  502  503 -0.00000000000E+00 -0.00000000000E+00 -0.19562768253E+04  0.19562768253E+04  0.00000000000E+00 0.  1.
         -6    2    1    2    0  503  0.15723835646E+03 -0.85570952733E+01 -0.17520853937E+04  0.17674841286E+04  0.17146367883E+03 0.  0.
        -24    2    3    3    0    0  0.84237142510E+01 -0.12540565723E+02 -0.50864461108E+03  0.51515480456E+03  0.80230340492E+02 0.  0.
          6    2    1    2  501    0 -0.15723835646E+03  0.85570952733E+01 -0.12890055865E+03  0.26408356966E+03  0.16830820873E+03 0.  0.
         24    2    5    5    0    0 -0.14263079964E+03  0.57279553496E+02 -0.69018100362E+02  0.18537361183E+03  0.77300617919E+02 0.  0.
          5    1    5    5  501    0 -0.14607556815E+02 -0.48722458223E+02 -0.59882458290E+02  0.78709957834E+02  0.47000000000E+01 0. -1.
        -13    1    6    6    0    0 -0.80028291111E+02 -0.54225617523E+01 -0.50713430885E+02  0.94898807296E+02  0.00000000000E+00 0.  1.
         14    1    6    6    0    0 -0.62602508530E+02  0.62702115249E+02 -0.18304669477E+02  0.90474804535E+02  0.00000000000E+00 0. -1.
         -5    1    3    3    0  503  0.14881464220E+03  0.39834704493E+01 -0.12434407827E+04  0.12523293240E+04  0.47000000000E+01 0.  1.
         11    1    4    4    0    0 -0.84365209649E+01 -0.39221441582E+02 -0.15511334798E+03  0.16021749932E+03  0.00000000000E+00 0. -1.
        -12    1    4    4    0    0  0.16860235216E+02  0.26680875859E+02 -0.35353126309E+03  0.35493730524E+03  0.00000000000E+00 0.  1.
</event>
<event>
12    1  0.8356052E-002  0.3134797E+03  0.7818608E-02  0.1078797E+00
         21   -1    0    0  503  502  0.00000000000E+00  0.00000000000E+00  0.17563490780E+04  0.17563490780E+04  0.00000000000E+00 0. -1.
         21   -1    0    0  501  503 -0.00000000000E+00 -0.00000000000E+00 -0.11627333566E+03  0.11627333566E+03  0.00000000000E+00 0.  1.
          6    2    1    2  501    0 -0.16597593776E+03 -0.20214839655E+03  0.14530212558E+03  0.34551731525E+03  0.17279329066E+03 0.  0.
         24    2    3    3    0    0 -0.13648277486E+03 -0.20847288596E+03  0.81163500194E+02  0.27448423078E+03  0.81643047283E+02 0.  0.
         -6    2    1    2    0  502  0.16597593776E+03  0.20214839655E+03  0.14947736168E+04  0.15271050984E+04  0.17114271834E+03 0.  0.
        -24    2    5    5    0    0  0.11301445814E+03  0.51711002896E+02  0.59911742469E+03  0.61734775046E+03  0.82038167082E+02 0.  0.
          5    1    3    3  501    0 -0.29493162903E+02  0.63244894022E+01  0.64138625382E+02  0.71033084476E+02  0.47000000000E+01 0. -1.
        -13    1    4    4    0    0 -0.23192811166E+02 -0.94163091293E+02  0.54832392873E+02  0.11140550058E+03  0.00000000000E+00 0.  1.
         14    1    4    4    0    0 -0.11328996369E+03 -0.11430979466E+03  0.26331107321E+02  0.16307873020E+03  0.00000000000E+00 0. -1.
         -5    1    5    5    0  502  0.52961479621E+02  0.15043739366E+03  0.89565619211E+03  0.90975734798E+03  0.47000000000E+01 0.  1.
         13    1    6    6    0    0  0.71713513110E+02  0.60573982806E+01  0.45463636160E+03  0.46029744875E+03  0.00000000000E+00 0. -1.
        -14    1    6    6    0    0  0.41300945031E+02  0.45653604616E+02  0.14448106309E+03  0.15705030171E+03  0.00000000000E+00 0.  1.
</event>
<event>
12    1  0.8356052E-002  0.2469928E+03  0.7818608E-02  0.1115905E+00
         21   -1    0    0  501  502  0.00000000000E+00  0.00000000000E+00  0.82718281078E+02  0.82718281078E+02  0.00000000000E+00 0.  1.
         21   -1    0    0  502  503 -0.00000000000E+00 -0.00000000000E+00 -0.10785056445E+04  0.10785056445E+04  0.00000000000E+00 0. -1.
         -6    2    1    2    0  503 -0.38938148213E+02  0.16785045369E+03 -0.82743339545E+03  0.86231169899E+03  0.17101312265E+03 0.  0.
        -24    2    3    3    0    0  0.43707950837E+02  0.79709022511E+02 -0.37546143712E+03  0.39444416358E+03  0.79693125035E+02 0.  0.
          6    2    1    2  501    0  0.38938148213E+02 -0.16785045369E+03 -0.16835396801E+03  0.29891222662E+03  0.17696187864E+03 0.  0.
         24    2    5    5    0    0 -0.74496063823E+01 -0.10787688010E+03 -0.17688143071E+03  0.22246969314E+03  0.80701957477E+02 0.  0.
          5    1    5    5  501    0  0.46387754596E+02 -0.59973573591E+02  0.85274626995E+01  0.76442533487E+02  0.47000000000E+01 0. -1.
        -13    1    6    6    0    0 -0.11477453096E+02  0.51000030726E+01 -0.13482572205E-01  0.12559543889E+02  0.00000000000E+00 0.  1.
         14    1    6    6    0    0  0.40278467135E+01 -0.11297688317E+03 -0.17686794813E+03  0.20991014925E+03  0.00000000000E+00 0. -1.
         -5    1    3    3    0  503 -0.82646099050E+02  0.88141431179E+02 -0.45197195833E+03  0.46786753541E+03  0.47000000000E+01 0.  1.
         13    1    4    4    0    0  0.18642140488E+02  0.82901737048E+02 -0.34266106573E+03  0.35303942184E+03  0.00000000000E+00 0. -1.
        -14    1    4    4    0    0  0.25065810349E+02 -0.31927145377E+01 -0.32800371390E+02  0.41404741732E+02  0.00000000000E+00 0.  1.
</event>
<event>
12    1  0.8356052E-002  0.1995293E+03  0.7818608E-02  0.1150266E+00
         21   -1    0    0  501  502  0.00000000000E+00  0.00000000000E+00  0.29652605257E+03  0.29652605257E+03  0.00000000000E+00 0.  1.
         21   -1    0    0  502  503 -0.00000000000E+00 -0.00000000000E+00 -0.22480899665E+03  0.22480899665E+03  0.00000000000E+00 0. -1.
         -6    2    1    2    0  503 -0.99985160350E+02 -0.10790081036E+02 -0.12997862028E+03  0.23762201942E+03  0.17162844823E+03 0.  0.
        -24    2    3    3    0    0 -0.92478245430E+02 -0.49145611084E+02 -0.14452554832E+03  0.19565532343E+03  0.80161427766E+02 0.  0.
          6    2    1    2  501    0  0.99985160350E+02  0.10790081036E+02  0.20169567620E+03  0.28371302980E+03  0.17233246747E+03 0.  0.
         24    2    5    5    0    0  0.58232009964E+02  0.54502491551E+02  0.19154502144E+03  0.22223761852E+03  0.79615169908E+02 0.  0.
          5    1    5    5  501    0  0.41753150385E+02 -0.43712410515E+02  0.10150654758E+02  0.61475411281E+02  0.47000000000E+01 0. -1.
        -13    1    6    6    0    0  0.35752466432E+01 -0.13317289194E+02  0.77591461015E+02  0.78807153245E+02  0.00000000000E+00 0.  1.
         14    1    6    6    0    0  0.54656763321E+02  0.67819780745E+02  0.11395356042E+03  0.14343046528E+03  0.00000000000E+00 0. -1.
         -5    1    3    3    0  503 -0.75069149197E+01  0.38355530048E+02  0.14546928037E+02  0.41966695988E+02  0.47000000000E+01 0.  1.
         11    1    4    4    0    0 -0.58714512889E+02  0.11075241265E+02 -0.46278813027E+02  0.75576342384E+02  0.00000000000E+00 0. -1.
        -12    1    4    4    0    0 -0.33763732541E+02 -0.60220852349E+02 -0.98246735294E+02  0.12007898104E+03  0.00000000000E+00 0.  1.
</event>
<event>
12    1  0.8356052E-002  0.1853426E+03  0.7818608E-02  0.1165005E+00
         21   -1    0    0  501  502  0.00000000000E+00  0.00000000000E+00  0.76831355719E+02  0.76831355719E+02  0.00000000000E+00 0.  1.
         21   -1    0    0  502  503 -0.00000000000E+00 -0.00000000000E+00 -0.51162884319E+03  0.51162884319E+03  0.00000000000E+00 0.  1.
         -6    2    1    2    0  503  0.35552801225E+02  0.14051097270E+01 -0.34353219002E+03  0.39034120356E+03  0.18189533695E+03 0.  0.
        -24    2    3    3    0    0  0.15236704683E+02 -0.93435038757E+01 -0.56257940999E+02  0.10211063505E+03  0.83319671325E+02 0.  0.
          6    2    1    2  501    0 -0.35552801225E+02 -0.14051097270E+01 -0.91265297448E+02  0.19811899535E+03  0.17220861126E+03 0.  0.
         24    2    5    5    0    0  0.17148293434E+02 -0.27307770348E+02  0.33845974392E+01  0.86633364852E+02  0.80337451520E+02 0.  0.
          5    1    5    5  501    0 -0.52701094659E+02  0.25902660621E+02 -0.94649894887E+02  0.11148563050E+03  0.47000000000E+01 0. -1.
        -13    1    6    6    0    0  0.42225225610E+02  0.75588298669E+01  0.72770321672E+01  0.43509318358E+02  0.00000000000E+00 0.  1.
         14    1    6    6    0    0 -0.25076932177E+02 -0.34866600215E+02 -0.38924347280E+01  0.43124046494E+02  0.00000000000E+00 0. -1.
         -5    1    3    3    0  503  0.20316096543E+02  0.10748613603E+02 -0.28727424902E+03  0.28823056851E+03  0.47000000000E+01 0.  1.
         11    1    4    4    0    0  0.40669297780E+02 -0.30872095509E+02 -0.40898461190E+02  0.65419891399E+02  0.00000000000E+00 0. -1.
        -12    1    4    4    0    0 -0.25432593097E+02  0.21528591633E+02 -0.15359479809E+02  0.36690743646E+02  0.00000000000E+00 0.  1.
</event>
<event>
12    1  0.8356052E-002  0.1879872E+03  0.7818608E-02  0.1160387E+00
         21   -1    0    0  501  502  0.00000000000E+00  0.00000000000E+00  0.10095891225E+03  0.10095891225E+03  0.00000000000E+00 0. -1.
         21   -1    0    0  502  503 -0.00000000000E+00 -0.00000000000E+00 -0.86534356318E+03  0.86534356318E+03  0.00000000000E+00 0. -1.
         -6    2    1    2    0  503  0.24200005047E+02 -0.72461410765E+02 -0.75549446623E+03  0.77853134856E+03  0.17176401223E+03 0.  0.
        -24    2    3    3    0    0  0.31661504233E+02  0.17470005120E+02 -0.24290132538E+03  0.25803432496E+03  0.79202317247E+02 0.  0.
          6    2    1    2  501    0 -0.24200005047E+02  0.72461410765E+02 -0.88901847051E+01  0.18777112687E+03  0.17129700642E+03 0.  0.
         24    2    5    5    0    0 -0.30460807392E+01 -0.17208613920E+02 -0.30386760958E+02  0.93048401869E+02  0.86193009275E+02 0.  0.
          5    1    5    5  501    0 -0.21153924308E+02  0.89670024686E+02  0.21496576252E+02  0.94722724999E+02  0.47000000000E+01 0. -1.
        -11    1    6    6    0    0 -0.30915726765E+02  0.22158452757E+02 -0.44850803739E+01  0.38300067049E+02  0.00000000000E+00 0.  1.
         12    1    6    6    0    0  0.27869646026E+02 -0.39367066678E+02 -0.25901680584E+02  0.54748334819E+02  0.00000000000E+00 0. -1.
         -5    1    3    3    0  503 -0.74614991857E+01 -0.89931415885E+02 -0.51259314085E+03  0.52049702360E+03  0.47000000000E+01 0.  1.
         11    1    4    4    0    0  0.15296431516E+02 -0.27628069729E+02 -0.15203882917E+03  0.15528392264E+03  0.00000000000E+00 0. -1.
        -12    1    4    4    0    0  0.16365072717E+02  0.45098074849E+02 -0.90862496206E+02  0.10275040232E+03  0.00000000000E+00 0.  1.
</event>
